
     Program PWSCF v.6.3MaX starts on 17Feb2020 at  9:34:57 

     This program is part of the open-source Quantum ESPRESSO suite
     for quantum simulation of materials; please cite
         "P. Giannozzi et al., J. Phys.:Condens. Matter 21 395502 (2009);
         "P. Giannozzi et al., J. Phys.:Condens. Matter 29 465901 (2017);
          URL http://www.quantum-espresso.org", 
     in publications or presentations arising from this work. More details at
     http://www.quantum-espresso.org/quote

     Parallel version (MPI), running on     4 processors

     MPI processes distributed on     1 nodes
     R & G space division:  proc/nbgrp/npool/nimage =       4
     Waiting for input...
     Reading input from standard input

     Current dimensions of program PWSCF are:
     Max number of different atomic species (ntypx) = 10
     Max number of k-points (npk) =  40000
     Max angular momentum in pseudopotentials (lmaxx) =  3
     Message from routine iosys:
     minimal I/O required, wf_collect reset to FALSE

     Subspace diagonalization in iterative solution of the eigenvalue problem:
     a serial algorithm will be used

 
     Parallelization info
     --------------------
     sticks:   dense  smooth     PW     G-vecs:    dense   smooth      PW
     Min         487     195     64                27318     6914    1354
     Max         488     196     66                27322     6917    1355
     Sum        1949     781    259               109279    27659    5417
 


     bravais-lattice index     =            0
     lattice parameter (alat)  =       1.8897  a.u.
     unit-cell volume          =     808.3427 (a.u.)^3
     number of atoms/cell      =            6
     number of atomic types    =            2
     number of electrons       =        74.00
     number of Kohn-Sham states=           44
     kinetic-energy cutoff     =      40.0000  Ry
     charge density cutoff     =     400.0000  Ry
     convergence threshold     =      1.0E-10
     mixing beta               =       0.6000
     number of iterations used =            8  plain     mixing
     Exchange-correlation      = SLA PW PBE PBE ( 1  4  3  4 0 0)
     nstep                     =           50


     celldm(1)=   1.889726  celldm(2)=   0.000000  celldm(3)=   0.000000
     celldm(4)=   0.000000  celldm(5)=   0.000000  celldm(6)=   0.000000

     crystal axes: (cart. coord. in units of alat)
               a(1) = (  -3.045004   0.000000   4.972461 )  
               a(2) = (  -1.522502   2.637051   4.972461 )  
               a(3) = (  -4.567506   2.637051  -4.972461 )  

     reciprocal axes: (cart. coord. in units 2 pi/alat)
               b(1) = ( -0.218938 -0.252808  0.067036 )  
               b(2) = (  0.109469  0.316010  0.067036 )  
               b(3) = ( -0.109469  0.063202 -0.067036 )  


     PseudoPot. # 1 for Nb read from file:
     ./Nb.pbe-nsp-van.UPF
     MD5 check sum: 0a22fc7fb0ba19a08ca5db297a5d2854
     Pseudo is Ultrasoft + core correction, Zval = 13.0
     Generated by new atomic code, or converted to UPF format
     Using radial grid of  887 points,  6 beta functions with: 
                l(1) =   0
                l(2) =   0
                l(3) =   1
                l(4) =   1
                l(5) =   2
                l(6) =   2
     Q(r) pseudized with  6 coefficients,  rinner =    1.000   1.000   1.000
                                                       1.000   1.000

     PseudoPot. # 2 for Ti read from file:
     ./Ti.pbe-sp-van_ak.UPF
     MD5 check sum: f98fea3e8887528921fefa5636a534ca
     Pseudo is Ultrasoft, Zval = 12.0
     Generated by new atomic code, or converted to UPF format
     Using radial grid of  851 points,  6 beta functions with: 
                l(1) =   0
                l(2) =   0
                l(3) =   1
                l(4) =   1
                l(5) =   2
                l(6) =   2
     Q(r) pseudized with  8 coefficients,  rinner =    1.000   1.000   1.000
                                                       1.000   1.000

     atomic species   valence    mass     pseudopotential
        Nb            13.00    92.90638     Nb( 1.00)
        Ti            12.00    47.86700     Ti( 1.00)

      2 Sym. Ops. (no inversion) found



   Cartesian axes

     site n.     atom                  positions (alat units)
         1           Nb  tau(   1) = (  -4.5675063   2.6370512   0.0000000  )
         2           Ti  tau(   2) = (  -6.0900069   3.5160674   2.4862307  )
         3           Ti  tau(   3) = (  -4.5675063   2.6370512   4.9724614  )
         4           Ti  tau(   4) = (  -6.0900069   3.5160674   7.4586921  )
         5           Ti  tau(   5) = (  -9.1350127   5.2741024   4.9724614  )
         6           Nb  tau(   6) = (  -1.5225006   0.8790162   2.4862307  )

     number of k points=   398  Marzari-Vanderbilt smearing, width (Ry)=  0.0200

     Number of k-points >= 100: set verbosity='high' to print them.

     Dense  grid:   109279 G-vectors     FFT dimensions: (  72,  72,  90)

     Smooth grid:    27659 G-vectors     FFT dimensions: (  45,  45,  60)

     Estimated max dynamical RAM per process >     339.22 MB

     Estimated total dynamical RAM >       1.33 GB

     Initial potential from superposition of free atoms

     starting charge   69.99436, renormalised to   74.00000
     Starting wfcs are   66 randomized atomic wfcs

     total cpu time spent up to now is       27.1 secs

     Self-consistent Calculation

     iteration #  1     ecut=    40.00 Ry     beta= 0.60
     Davidson diagonalization with overlap
     ethr =  1.00E-02,  avg # of iterations =  3.5

     total cpu time spent up to now is       90.9 secs

     total energy              =    -687.28452643 Ry
     Harris-Foulkes estimate   =    -705.15486118 Ry
     estimated scf accuracy    <      22.39240767 Ry

     iteration #  2     ecut=    40.00 Ry     beta= 0.60
     Davidson diagonalization with overlap
     ethr =  1.00E-02,  avg # of iterations =  6.3

     total cpu time spent up to now is      190.4 secs

     total energy              =    -692.48024001 Ry
     Harris-Foulkes estimate   =    -732.74677074 Ry
     estimated scf accuracy    <     133.40392001 Ry

     iteration #  3     ecut=    40.00 Ry     beta= 0.60
     Davidson diagonalization with overlap
     ethr =  1.00E-02,  avg # of iterations =  5.0

     total cpu time spent up to now is      272.0 secs

     total energy              =    -703.35998193 Ry
     Harris-Foulkes estimate   =    -705.71226160 Ry
     estimated scf accuracy    <      38.81450801 Ry

     iteration #  4     ecut=    40.00 Ry     beta= 0.60
     Davidson diagonalization with overlap
     ethr =  1.00E-02,  avg # of iterations =  1.0

     total cpu time spent up to now is      316.6 secs

     total energy              =    -702.59189760 Ry
     Harris-Foulkes estimate   =    -704.01438224 Ry
     estimated scf accuracy    <      15.73013068 Ry

     iteration #  5     ecut=    40.00 Ry     beta= 0.60
     Davidson diagonalization with overlap
     ethr =  1.00E-02,  avg # of iterations =  1.5

     total cpu time spent up to now is      377.3 secs

     total energy              =    -701.44507407 Ry
     Harris-Foulkes estimate   =    -702.78437205 Ry
     estimated scf accuracy    <      11.26284503 Ry

     iteration #  6     ecut=    40.00 Ry     beta= 0.60
     Davidson diagonalization with overlap
     ethr =  1.00E-02,  avg # of iterations =  4.6

     total cpu time spent up to now is      438.4 secs

     total energy              =    -702.23378124 Ry
     Harris-Foulkes estimate   =    -702.30702944 Ry
     estimated scf accuracy    <       0.56003150 Ry

     iteration #  7     ecut=    40.00 Ry     beta= 0.60
     Davidson diagonalization with overlap
     ethr =  7.57E-04,  avg # of iterations =  6.5

     total cpu time spent up to now is      524.7 secs

     total energy              =    -702.21637338 Ry
     Harris-Foulkes estimate   =    -702.44759470 Ry
     estimated scf accuracy    <       1.46814978 Ry

     iteration #  8     ecut=    40.00 Ry     beta= 0.60
     Davidson diagonalization with overlap
     ethr =  7.57E-04,  avg # of iterations =  5.5

     total cpu time spent up to now is      591.9 secs

     total energy              =    -702.41200948 Ry
     Harris-Foulkes estimate   =    -702.43690324 Ry
     estimated scf accuracy    <       0.89909932 Ry

     iteration #  9     ecut=    40.00 Ry     beta= 0.60
     Davidson diagonalization with overlap
     ethr =  7.57E-04,  avg # of iterations =  1.2

     total cpu time spent up to now is      637.3 secs

     total energy              =    -702.39932783 Ry
     Harris-Foulkes estimate   =    -702.42509812 Ry
     estimated scf accuracy    <       0.73950714 Ry

     iteration # 10     ecut=    40.00 Ry     beta= 0.60
     Davidson diagonalization with overlap
     ethr =  7.57E-04,  avg # of iterations =  1.0

     total cpu time spent up to now is      682.1 secs

     total energy              =    -702.38031757 Ry
     Harris-Foulkes estimate   =    -702.40500111 Ry
     estimated scf accuracy    <       0.49237002 Ry

     iteration # 11     ecut=    40.00 Ry     beta= 0.60
     Davidson diagonalization with overlap
     ethr =  6.65E-04,  avg # of iterations =  1.0

     total cpu time spent up to now is      726.8 secs

     total energy              =    -702.36392262 Ry
     Harris-Foulkes estimate   =    -702.38615076 Ry
     estimated scf accuracy    <       0.22226689 Ry

     iteration # 12     ecut=    40.00 Ry     beta= 0.60
     Davidson diagonalization with overlap
     ethr =  3.00E-04,  avg # of iterations =  3.7

     total cpu time spent up to now is      782.3 secs

     total energy              =    -702.38187226 Ry
     Harris-Foulkes estimate   =    -702.38349158 Ry
     estimated scf accuracy    <       0.01738054 Ry

     iteration # 13     ecut=    40.00 Ry     beta= 0.60
     Davidson diagonalization with overlap
     ethr =  2.35E-05,  avg # of iterations =  6.9

     total cpu time spent up to now is      866.2 secs

     total energy              =    -702.37930195 Ry
     Harris-Foulkes estimate   =    -702.38800755 Ry
     estimated scf accuracy    <       0.09361675 Ry

     iteration # 14     ecut=    40.00 Ry     beta= 0.60
     Davidson diagonalization with overlap
     ethr =  2.35E-05,  avg # of iterations =  4.8

     total cpu time spent up to now is      926.4 secs

     total energy              =    -702.38319931 Ry
     Harris-Foulkes estimate   =    -702.38345106 Ry
     estimated scf accuracy    <       0.00187209 Ry

     iteration # 15     ecut=    40.00 Ry     beta= 0.60
     Davidson diagonalization with overlap
     c_bands:  1 eigenvalues not converged
     ethr =  2.53E-06,  avg # of iterations =  8.2

     total cpu time spent up to now is     1009.4 secs

     total energy              =    -702.38353714 Ry
     Harris-Foulkes estimate   =    -702.38356086 Ry
     estimated scf accuracy    <       0.00016633 Ry

     iteration # 16     ecut=    40.00 Ry     beta= 0.60
     Davidson diagonalization with overlap
     ethr =  2.25E-07,  avg # of iterations =  2.9

     total cpu time spent up to now is     1063.9 secs

     total energy              =    -702.38354863 Ry
     Harris-Foulkes estimate   =    -702.38355378 Ry
     estimated scf accuracy    <       0.00003092 Ry

     iteration # 17     ecut=    40.00 Ry     beta= 0.60
     Davidson diagonalization with overlap
     ethr =  4.18E-08,  avg # of iterations =  4.9

     total cpu time spent up to now is     1131.1 secs

     total energy              =    -702.38355487 Ry
     Harris-Foulkes estimate   =    -702.38355570 Ry
     estimated scf accuracy    <       0.00001100 Ry

     iteration # 18     ecut=    40.00 Ry     beta= 0.60
     Davidson diagonalization with overlap
     ethr =  1.49E-08,  avg # of iterations =  1.9

     total cpu time spent up to now is     1177.8 secs

     total energy              =    -702.38355449 Ry
     Harris-Foulkes estimate   =    -702.38355552 Ry
     estimated scf accuracy    <       0.00001033 Ry

     iteration # 19     ecut=    40.00 Ry     beta= 0.60
     Davidson diagonalization with overlap
     ethr =  1.40E-08,  avg # of iterations =  1.2

     total cpu time spent up to now is     1222.7 secs

     total energy              =    -702.38355488 Ry
     Harris-Foulkes estimate   =    -702.38355498 Ry
     estimated scf accuracy    <       0.00000084 Ry

     iteration # 20     ecut=    40.00 Ry     beta= 0.60
     Davidson diagonalization with overlap
     c_bands:  1 eigenvalues not converged
     ethr =  1.14E-09,  avg # of iterations =  5.6

     total cpu time spent up to now is     1296.3 secs

     total energy              =    -702.38355515 Ry
     Harris-Foulkes estimate   =    -702.38355520 Ry
     estimated scf accuracy    <       0.00000095 Ry

     iteration # 21     ecut=    40.00 Ry     beta= 0.60
     Davidson diagonalization with overlap
     ethr =  1.14E-09,  avg # of iterations =  1.0

     total cpu time spent up to now is     1340.8 secs

     total energy              =    -702.38355508 Ry
     Harris-Foulkes estimate   =    -702.38355517 Ry
     estimated scf accuracy    <       0.00000064 Ry

     iteration # 22     ecut=    40.00 Ry     beta= 0.60
     Davidson diagonalization with overlap
     ethr =  8.71E-10,  avg # of iterations =  3.2

     total cpu time spent up to now is     1393.4 secs

     total energy              =    -702.38355513 Ry
     Harris-Foulkes estimate   =    -702.38355514 Ry
     estimated scf accuracy    <       0.00000006 Ry

     iteration # 23     ecut=    40.00 Ry     beta= 0.60
     Davidson diagonalization with overlap
     ethr =  7.67E-11,  avg # of iterations =  4.8

     total cpu time spent up to now is     1459.0 secs

     total energy              =    -702.38355514 Ry
     Harris-Foulkes estimate   =    -702.38355514 Ry
     estimated scf accuracy    <       0.00000003 Ry

     iteration # 24     ecut=    40.00 Ry     beta= 0.60
     Davidson diagonalization with overlap
     ethr =  3.52E-11,  avg # of iterations =  2.6

     total cpu time spent up to now is     1507.4 secs

     total energy              =    -702.38355514 Ry
     Harris-Foulkes estimate   =    -702.38355514 Ry
     estimated scf accuracy    <          2.5E-09 Ry

     iteration # 25     ecut=    40.00 Ry     beta= 0.60
     Davidson diagonalization with overlap
     ethr =  3.33E-12,  avg # of iterations =  5.0

     total cpu time spent up to now is     1577.7 secs

     total energy              =    -702.38355514 Ry
     Harris-Foulkes estimate   =    -702.38355514 Ry
     estimated scf accuracy    <          8.1E-10 Ry

     iteration # 26     ecut=    40.00 Ry     beta= 0.60
     Davidson diagonalization with overlap
     ethr =  1.10E-12,  avg # of iterations =  1.7

     total cpu time spent up to now is     1623.8 secs

     total energy              =    -702.38355514 Ry
     Harris-Foulkes estimate   =    -702.38355514 Ry
     estimated scf accuracy    <          2.2E-10 Ry

     iteration # 27     ecut=    40.00 Ry     beta= 0.60
     Davidson diagonalization with overlap
     ethr =  2.95E-13,  avg # of iterations =  4.5

     total cpu time spent up to now is     1687.0 secs

     End of self-consistent calculation

     Number of k-points >= 100: set verbosity='high' to print the bands.

     the Fermi energy is    12.9928 ev

!    total energy              =    -702.38355514 Ry
     Harris-Foulkes estimate   =    -702.38355514 Ry
     estimated scf accuracy    <          9.5E-11 Ry

     The total energy is the sum of the following terms:

     one-electron contribution =    -231.29875199 Ry
     hartree contribution      =     137.72963723 Ry
     xc contribution           =     -94.33357322 Ry
     ewald contribution        =    -514.47525212 Ry
     smearing contrib. (-TS)   =      -0.00561505 Ry

     convergence has been achieved in  27 iterations

     Forces acting on atoms (cartesian axes, Ry/au):

     atom    1 type  1   force =    -0.00196407    0.00113396    0.00580264
     atom    2 type  2   force =    -0.00082793    0.00047801   -0.00449497
     atom    3 type  2   force =    -0.00184410    0.00106469   -0.00675909
     atom    4 type  2   force =     0.00184446   -0.00106490    0.00675899
     atom    5 type  2   force =     0.00082770   -0.00047787    0.00449427
     atom    6 type  1   force =     0.00196395   -0.00113389   -0.00580185

     Total force =     0.014842     Total SCF correction =     0.000028


     Computing stress (Cartesian axis) and pressure

          total   stress  (Ry/bohr**3)                   (kbar)     P= -130.51
  -0.00088340  -0.00002554  -0.00002995       -129.95     -3.76     -4.41
  -0.00002554  -0.00091290   0.00001729         -3.76   -134.29      2.54
  -0.00002995   0.00001729  -0.00086529         -4.41      2.54   -127.29


     BFGS Geometry Optimization

     number of scf cycles    =   1
     number of bfgs steps    =   0

     enthalpy new            =    -702.3835551426 Ry

     new trust radius        =       0.1298485349 bohr
     new conv_thr            =            1.0E-10 Ry

     new unit-cell volume =    755.73880 a.u.^3 (   111.98893 Ang^3 )
     density =      5.59421 g/cm^3

CELL_PARAMETERS (alat=  1.88972599)
  -2.981477507   0.004093640   4.867175417
  -1.494283950   2.579988627   4.867175417
  -4.464593109   2.577634219  -4.860336215

ATOMIC_POSITIONS (angstrom)
Nb      -4.469334960   2.580371928   0.007564708
Ti      -5.960041251   3.441031668   2.436200386
Ti      -4.472990661   2.582482547   4.865956743
Ti      -5.962385037   3.442384853   7.306921171
Ti      -8.939927861   5.161470127   4.876341002
Nb      -1.490279526   0.860413348   2.430962833


     NEW-OLD atomic charge density approx. for the potential
     extrapolated charge   69.12797, renormalised to   74.00000

     total cpu time spent up to now is     1705.0 secs

     Self-consistent Calculation

     iteration #  1     ecut=    40.00 Ry     beta= 0.60
     Davidson diagonalization with overlap
     c_bands:  3 eigenvalues not converged
     c_bands:  3 eigenvalues not converged
     c_bands:  2 eigenvalues not converged
     c_bands:  5 eigenvalues not converged
     c_bands:  3 eigenvalues not converged
     c_bands:  2 eigenvalues not converged
     c_bands:  3 eigenvalues not converged
     c_bands:  1 eigenvalues not converged
     c_bands:  2 eigenvalues not converged
     c_bands:  1 eigenvalues not converged
     c_bands:  1 eigenvalues not converged
     c_bands:  1 eigenvalues not converged
     c_bands:  1 eigenvalues not converged
     c_bands:  2 eigenvalues not converged
     c_bands:  2 eigenvalues not converged
     c_bands:  1 eigenvalues not converged
     c_bands:  1 eigenvalues not converged
     c_bands:  2 eigenvalues not converged
     c_bands:  1 eigenvalues not converged
     c_bands:  2 eigenvalues not converged
     c_bands:  1 eigenvalues not converged
     c_bands:  1 eigenvalues not converged
     c_bands:  1 eigenvalues not converged
     c_bands:  1 eigenvalues not converged
     c_bands:  2 eigenvalues not converged
     c_bands:  1 eigenvalues not converged
     c_bands:  1 eigenvalues not converged
     c_bands:  1 eigenvalues not converged
     c_bands:  1 eigenvalues not converged
     c_bands:  2 eigenvalues not converged
     c_bands:  3 eigenvalues not converged
     c_bands:  5 eigenvalues not converged
     c_bands:  4 eigenvalues not converged
     c_bands:  3 eigenvalues not converged
     c_bands:  2 eigenvalues not converged
     c_bands:  2 eigenvalues not converged
     c_bands:  5 eigenvalues not converged
     c_bands:  5 eigenvalues not converged
     c_bands:  2 eigenvalues not converged
     c_bands:  1 eigenvalues not converged
     c_bands:  2 eigenvalues not converged
     c_bands:  1 eigenvalues not converged
     c_bands:  1 eigenvalues not converged
     c_bands:  1 eigenvalues not converged
     c_bands:  1 eigenvalues not converged
     c_bands:  1 eigenvalues not converged
     c_bands:  2 eigenvalues not converged
     c_bands:  1 eigenvalues not converged
     c_bands:  1 eigenvalues not converged
     c_bands:  3 eigenvalues not converged
     c_bands:  1 eigenvalues not converged
     c_bands:  1 eigenvalues not converged
     c_bands:  1 eigenvalues not converged
     c_bands:  1 eigenvalues not converged
     c_bands:  1 eigenvalues not converged
     c_bands:  2 eigenvalues not converged
     c_bands:  2 eigenvalues not converged
     c_bands:  2 eigenvalues not converged
     c_bands:  1 eigenvalues not converged
     c_bands:  1 eigenvalues not converged
     c_bands:  1 eigenvalues not converged
     c_bands:  2 eigenvalues not converged
     c_bands:  1 eigenvalues not converged
     c_bands:  3 eigenvalues not converged
     c_bands:  1 eigenvalues not converged
     c_bands:  1 eigenvalues not converged
     c_bands:  2 eigenvalues not converged
     c_bands:  2 eigenvalues not converged
     c_bands:  1 eigenvalues not converged
     c_bands:  1 eigenvalues not converged
     c_bands:  1 eigenvalues not converged
     c_bands:  1 eigenvalues not converged
     c_bands:  1 eigenvalues not converged
     c_bands:  1 eigenvalues not converged
     c_bands:  1 eigenvalues not converged
     c_bands:  1 eigenvalues not converged
     c_bands:  1 eigenvalues not converged
     c_bands:  3 eigenvalues not converged
     c_bands:  4 eigenvalues not converged
     c_bands:  4 eigenvalues not converged
     c_bands:  4 eigenvalues not converged
     c_bands:  1 eigenvalues not converged
     c_bands:  2 eigenvalues not converged
     c_bands:  1 eigenvalues not converged
     c_bands:  3 eigenvalues not converged
     c_bands:  3 eigenvalues not converged
     c_bands:  2 eigenvalues not converged
     c_bands:  2 eigenvalues not converged
     c_bands:  1 eigenvalues not converged
     c_bands:  1 eigenvalues not converged
     c_bands:  1 eigenvalues not converged
     c_bands:  1 eigenvalues not converged
     c_bands:  1 eigenvalues not converged
     c_bands:  1 eigenvalues not converged
     c_bands:  1 eigenvalues not converged
     c_bands:  1 eigenvalues not converged
     c_bands:  1 eigenvalues not converged
     c_bands:  2 eigenvalues not converged
     c_bands:  3 eigenvalues not converged
     c_bands:  1 eigenvalues not converged
     c_bands:  1 eigenvalues not converged
     c_bands:  2 eigenvalues not converged
     c_bands:  1 eigenvalues not converged
     c_bands:  1 eigenvalues not converged
     c_bands:  3 eigenvalues not converged
     c_bands:  1 eigenvalues not converged
     c_bands:  1 eigenvalues not converged
     c_bands:  2 eigenvalues not converged
     c_bands:  1 eigenvalues not converged
     c_bands:  1 eigenvalues not converged
     c_bands:  1 eigenvalues not converged
     c_bands:  1 eigenvalues not converged
     c_bands:  1 eigenvalues not converged
     c_bands:  2 eigenvalues not converged
     c_bands:  2 eigenvalues not converged
     c_bands:  1 eigenvalues not converged
     c_bands:  2 eigenvalues not converged
     c_bands:  3 eigenvalues not converged
     c_bands:  3 eigenvalues not converged
     c_bands:  2 eigenvalues not converged
     c_bands:  3 eigenvalues not converged
     c_bands:  2 eigenvalues not converged
     c_bands:  1 eigenvalues not converged
     c_bands:  1 eigenvalues not converged
     c_bands:  1 eigenvalues not converged
     c_bands:  5 eigenvalues not converged
     c_bands:  1 eigenvalues not converged
     c_bands:  1 eigenvalues not converged
     c_bands:  1 eigenvalues not converged
     c_bands:  1 eigenvalues not converged
     c_bands:  2 eigenvalues not converged
     c_bands:  2 eigenvalues not converged
     c_bands:  2 eigenvalues not converged
     c_bands:  2 eigenvalues not converged
     c_bands:  1 eigenvalues not converged
     c_bands:  1 eigenvalues not converged
     c_bands:  1 eigenvalues not converged
     c_bands:  1 eigenvalues not converged
     c_bands:  1 eigenvalues not converged
     c_bands:  1 eigenvalues not converged
     c_bands:  1 eigenvalues not converged
     c_bands:  1 eigenvalues not converged
     c_bands:  3 eigenvalues not converged
     c_bands:  1 eigenvalues not converged
     c_bands:  1 eigenvalues not converged
     c_bands:  2 eigenvalues not converged
     c_bands:  1 eigenvalues not converged
     c_bands:  2 eigenvalues not converged
     c_bands:  3 eigenvalues not converged
     c_bands:  4 eigenvalues not converged
     c_bands:  2 eigenvalues not converged
     c_bands:  4 eigenvalues not converged
     c_bands:  3 eigenvalues not converged
     c_bands:  2 eigenvalues not converged
     c_bands:  2 eigenvalues not converged
     c_bands:  2 eigenvalues not converged
     c_bands:  2 eigenvalues not converged
     c_bands:  3 eigenvalues not converged
     c_bands:  1 eigenvalues not converged
     c_bands:  1 eigenvalues not converged
     c_bands:  3 eigenvalues not converged
     c_bands:  1 eigenvalues not converged
     c_bands:  2 eigenvalues not converged
     c_bands:  1 eigenvalues not converged
     c_bands:  1 eigenvalues not converged
     c_bands:  2 eigenvalues not converged
     c_bands:  3 eigenvalues not converged
     c_bands:  2 eigenvalues not converged
     c_bands:  1 eigenvalues not converged
     c_bands:  1 eigenvalues not converged
     c_bands:  2 eigenvalues not converged
     c_bands:  2 eigenvalues not converged
     c_bands:  1 eigenvalues not converged
     c_bands:  1 eigenvalues not converged
     c_bands:  1 eigenvalues not converged
     c_bands:  1 eigenvalues not converged
     c_bands:  4 eigenvalues not converged
     c_bands:  2 eigenvalues not converged
     c_bands:  1 eigenvalues not converged
     c_bands:  3 eigenvalues not converged
     c_bands:  3 eigenvalues not converged
     c_bands:  3 eigenvalues not converged
     c_bands:  1 eigenvalues not converged
     c_bands:  1 eigenvalues not converged
     c_bands:  2 eigenvalues not converged
     c_bands:  1 eigenvalues not converged
     c_bands:  2 eigenvalues not converged
     c_bands:  2 eigenvalues not converged
     c_bands:  4 eigenvalues not converged
     c_bands:  4 eigenvalues not converged
     c_bands:  3 eigenvalues not converged
     c_bands:  1 eigenvalues not converged
     c_bands:  1 eigenvalues not converged
     c_bands:  1 eigenvalues not converged
     c_bands:  2 eigenvalues not converged
     c_bands:  1 eigenvalues not converged
     c_bands:  2 eigenvalues not converged
     c_bands:  1 eigenvalues not converged
     c_bands:  2 eigenvalues not converged
     c_bands:  4 eigenvalues not converged
     c_bands:  1 eigenvalues not converged
     c_bands:  1 eigenvalues not converged
     c_bands:  2 eigenvalues not converged
     c_bands:  1 eigenvalues not converged
     ethr =  1.00E-06,  avg # of iterations = 18.9

     total cpu time spent up to now is     1910.1 secs

     total energy              =    -695.74324718 Ry
     Harris-Foulkes estimate   =    -713.12109284 Ry
     estimated scf accuracy    <       6.89415720 Ry

     iteration #  2     ecut=    40.00 Ry     beta= 0.60
     Davidson diagonalization with overlap
     ethr =  9.32E-03,  avg # of iterations =  5.2

     total cpu time spent up to now is     2004.0 secs

     total energy              =    -699.99357330 Ry
     Harris-Foulkes estimate   =    -713.78974539 Ry
     estimated scf accuracy    <      54.13066877 Ry

     iteration #  3     ecut=    40.00 Ry     beta= 0.60
     Davidson diagonalization with overlap
     ethr =  9.32E-03,  avg # of iterations =  4.8

     total cpu time spent up to now is     2072.9 secs

     total energy              =    -701.85270274 Ry
     Harris-Foulkes estimate   =    -704.65149860 Ry
     estimated scf accuracy    <      11.30088259 Ry

     iteration #  4     ecut=    40.00 Ry     beta= 0.60
     Davidson diagonalization with overlap
     ethr =  9.32E-03,  avg # of iterations =  4.0

     total cpu time spent up to now is     2131.6 secs

     total energy              =    -702.51468030 Ry
     Harris-Foulkes estimate   =    -703.69017557 Ry
     estimated scf accuracy    <       8.51096373 Ry

     iteration #  5     ecut=    40.00 Ry     beta= 0.60
     Davidson diagonalization with overlap
     ethr =  9.32E-03,  avg # of iterations =  1.1

     total cpu time spent up to now is     2176.6 secs

     total energy              =    -702.60612133 Ry
     Harris-Foulkes estimate   =    -702.81587123 Ry
     estimated scf accuracy    <       3.24207286 Ry

     iteration #  6     ecut=    40.00 Ry     beta= 0.60
     Davidson diagonalization with overlap
     ethr =  4.38E-03,  avg # of iterations =  1.1

     total cpu time spent up to now is     2221.7 secs

     total energy              =    -702.40698604 Ry
     Harris-Foulkes estimate   =    -702.66043864 Ry
     estimated scf accuracy    <       2.27484559 Ry

     iteration #  7     ecut=    40.00 Ry     beta= 0.60
     Davidson diagonalization with overlap
     ethr =  3.07E-03,  avg # of iterations =  1.8

     total cpu time spent up to now is     2268.3 secs

     total energy              =    -702.38682452 Ry
     Harris-Foulkes estimate   =    -702.46158800 Ry
     estimated scf accuracy    <       1.14460670 Ry

     iteration #  8     ecut=    40.00 Ry     beta= 0.60
     Davidson diagonalization with overlap
     ethr =  1.55E-03,  avg # of iterations =  3.5

     total cpu time spent up to now is     2321.9 secs

     total energy              =    -702.47129475 Ry
     Harris-Foulkes estimate   =    -702.45568147 Ry
     estimated scf accuracy    <       0.41145556 Ry

     iteration #  9     ecut=    40.00 Ry     beta= 0.60
     Davidson diagonalization with overlap
     ethr =  5.56E-04,  avg # of iterations =  4.2

     total cpu time spent up to now is     2375.3 secs

     total energy              =    -702.48546133 Ry
     Harris-Foulkes estimate   =    -702.48281673 Ry
     estimated scf accuracy    <       0.46392254 Ry

     iteration # 10     ecut=    40.00 Ry     beta= 0.60
     Davidson diagonalization with overlap
     ethr =  5.56E-04,  avg # of iterations =  1.2

     total cpu time spent up to now is     2420.4 secs

     total energy              =    -702.36580419 Ry
     Harris-Foulkes estimate   =    -702.48857806 Ry
     estimated scf accuracy    <       0.46897167 Ry

     iteration # 11     ecut=    40.00 Ry     beta= 0.60
     Davidson diagonalization with overlap
     ethr =  5.56E-04,  avg # of iterations =  4.5

     total cpu time spent up to now is     2478.6 secs

     total energy              =    -702.41945564 Ry
     Harris-Foulkes estimate   =    -702.41589560 Ry
     estimated scf accuracy    <       0.11480659 Ry

     iteration # 12     ecut=    40.00 Ry     beta= 0.60
     Davidson diagonalization with overlap
     ethr =  1.55E-04,  avg # of iterations =  5.6

     total cpu time spent up to now is     2539.6 secs

     total energy              =    -702.42373322 Ry
     Harris-Foulkes estimate   =    -702.42965958 Ry
     estimated scf accuracy    <       0.14444253 Ry

     iteration # 13     ecut=    40.00 Ry     beta= 0.60
     Davidson diagonalization with overlap
     ethr =  1.55E-04,  avg # of iterations =  1.1

     total cpu time spent up to now is     2583.9 secs

     total energy              =    -702.41791269 Ry
     Harris-Foulkes estimate   =    -702.42526057 Ry
     estimated scf accuracy    <       0.10174173 Ry

     iteration # 14     ecut=    40.00 Ry     beta= 0.60
     Davidson diagonalization with overlap
     ethr =  1.37E-04,  avg # of iterations =  1.3

     total cpu time spent up to now is     2628.7 secs

     total energy              =    -702.41934586 Ry
     Harris-Foulkes estimate   =    -702.41987588 Ry
     estimated scf accuracy    <       0.04078487 Ry

     iteration # 15     ecut=    40.00 Ry     beta= 0.60
     Davidson diagonalization with overlap
     c_bands:  1 eigenvalues not converged
     ethr =  5.51E-05,  avg # of iterations =  3.9

     total cpu time spent up to now is     2680.3 secs

     total energy              =    -702.41892616 Ry
     Harris-Foulkes estimate   =    -702.42004649 Ry
     estimated scf accuracy    <       0.03128926 Ry

     iteration # 16     ecut=    40.00 Ry     beta= 0.60
     Davidson diagonalization with overlap
     ethr =  4.23E-05,  avg # of iterations =  3.6

     total cpu time spent up to now is     2730.8 secs

     total energy              =    -702.41612031 Ry
     Harris-Foulkes estimate   =    -702.41992443 Ry
     estimated scf accuracy    <       0.01672598 Ry

     iteration # 17     ecut=    40.00 Ry     beta= 0.60
     Davidson diagonalization with overlap
     c_bands:  1 eigenvalues not converged
     c_bands:  1 eigenvalues not converged
     ethr =  2.26E-05,  avg # of iterations =  6.1

     total cpu time spent up to now is     2804.5 secs

     total energy              =    -702.41898871 Ry
     Harris-Foulkes estimate   =    -702.42015867 Ry
     estimated scf accuracy    <       0.00761272 Ry

     iteration # 18     ecut=    40.00 Ry     beta= 0.60
     Davidson diagonalization with overlap
     ethr =  1.03E-05,  avg # of iterations =  1.3

     total cpu time spent up to now is     2849.2 secs

     total energy              =    -702.41921157 Ry
     Harris-Foulkes estimate   =    -702.41935003 Ry
     estimated scf accuracy    <       0.00105914 Ry

     iteration # 19     ecut=    40.00 Ry     beta= 0.60
     Davidson diagonalization with overlap
     c_bands:  1 eigenvalues not converged
     c_bands:  1 eigenvalues not converged
     c_bands:  1 eigenvalues not converged
     ethr =  1.43E-06,  avg # of iterations =  6.2

     total cpu time spent up to now is     2925.3 secs

     total energy              =    -702.41958424 Ry
     Harris-Foulkes estimate   =    -702.41962313 Ry
     estimated scf accuracy    <       0.00071856 Ry

     iteration # 20     ecut=    40.00 Ry     beta= 0.60
     Davidson diagonalization with overlap
     ethr =  9.71E-07,  avg # of iterations =  1.0

     total cpu time spent up to now is     2969.5 secs

     total energy              =    -702.41956335 Ry
     Harris-Foulkes estimate   =    -702.41959137 Ry
     estimated scf accuracy    <       0.00046917 Ry

     iteration # 21     ecut=    40.00 Ry     beta= 0.60
     Davidson diagonalization with overlap
     ethr =  6.34E-07,  avg # of iterations =  1.0

     total cpu time spent up to now is     3013.6 secs

     total energy              =    -702.41954471 Ry
     Harris-Foulkes estimate   =    -702.41957131 Ry
     estimated scf accuracy    <       0.00023713 Ry

     iteration # 22     ecut=    40.00 Ry     beta= 0.60
     Davidson diagonalization with overlap
     ethr =  3.20E-07,  avg # of iterations =  3.3

     total cpu time spent up to now is     3064.1 secs

     total energy              =    -702.41955688 Ry
     Harris-Foulkes estimate   =    -702.41955787 Ry
     estimated scf accuracy    <       0.00003522 Ry

     iteration # 23     ecut=    40.00 Ry     beta= 0.60
     Davidson diagonalization with overlap
     ethr =  4.76E-08,  avg # of iterations =  4.6

     total cpu time spent up to now is     3128.4 secs

     total energy              =    -702.41956404 Ry
     Harris-Foulkes estimate   =    -702.41956498 Ry
     estimated scf accuracy    <       0.00001276 Ry

     iteration # 24     ecut=    40.00 Ry     beta= 0.60
     Davidson diagonalization with overlap
     ethr =  1.72E-08,  avg # of iterations =  1.3

     total cpu time spent up to now is     3173.2 secs

     total energy              =    -702.41956432 Ry
     Harris-Foulkes estimate   =    -702.41956449 Ry
     estimated scf accuracy    <       0.00000400 Ry

     iteration # 25     ecut=    40.00 Ry     beta= 0.60
     Davidson diagonalization with overlap
     ethr =  5.41E-09,  avg # of iterations =  4.2

     total cpu time spent up to now is     3233.7 secs

     total energy              =    -702.41956445 Ry
     Harris-Foulkes estimate   =    -702.41956519 Ry
     estimated scf accuracy    <       0.00000897 Ry

     iteration # 26     ecut=    40.00 Ry     beta= 0.60
     Davidson diagonalization with overlap
     ethr =  5.41E-09,  avg # of iterations =  1.0

     total cpu time spent up to now is     3277.7 secs

     total energy              =    -702.41956427 Ry
     Harris-Foulkes estimate   =    -702.41956459 Ry
     estimated scf accuracy    <       0.00000387 Ry

     iteration # 27     ecut=    40.00 Ry     beta= 0.60
     Davidson diagonalization with overlap
     ethr =  5.24E-09,  avg # of iterations =  2.5

     total cpu time spent up to now is     3325.6 secs

     total energy              =    -702.41956431 Ry
     Harris-Foulkes estimate   =    -702.41956442 Ry
     estimated scf accuracy    <       0.00000095 Ry

     iteration # 28     ecut=    40.00 Ry     beta= 0.60
     Davidson diagonalization with overlap
     ethr =  1.29E-09,  avg # of iterations =  4.6

     total cpu time spent up to now is     3389.0 secs

     total energy              =    -702.41956448 Ry
     Harris-Foulkes estimate   =    -702.41956449 Ry
     estimated scf accuracy    <       0.00000007 Ry

     iteration # 29     ecut=    40.00 Ry     beta= 0.60
     Davidson diagonalization with overlap
     ethr =  9.80E-11,  avg # of iterations =  4.4

     total cpu time spent up to now is     3446.7 secs

     total energy              =    -702.41956449 Ry
     Harris-Foulkes estimate   =    -702.41956449 Ry
     estimated scf accuracy    <       0.00000002 Ry

     iteration # 30     ecut=    40.00 Ry     beta= 0.60
     Davidson diagonalization with overlap
     ethr =  2.04E-11,  avg # of iterations =  4.0

     total cpu time spent up to now is     3503.5 secs

     total energy              =    -702.41956449 Ry
     Harris-Foulkes estimate   =    -702.41956449 Ry
     estimated scf accuracy    <          3.2E-09 Ry

     iteration # 31     ecut=    40.00 Ry     beta= 0.60
     Davidson diagonalization with overlap
     ethr =  4.36E-12,  avg # of iterations =  4.4

     total cpu time spent up to now is     3566.0 secs

     total energy              =    -702.41956449 Ry
     Harris-Foulkes estimate   =    -702.41956449 Ry
     estimated scf accuracy    <          1.0E-09 Ry

     iteration # 32     ecut=    40.00 Ry     beta= 0.60
     Davidson diagonalization with overlap
     ethr =  1.38E-12,  avg # of iterations =  2.3

     total cpu time spent up to now is     3614.8 secs

     total energy              =    -702.41956449 Ry
     Harris-Foulkes estimate   =    -702.41956449 Ry
     estimated scf accuracy    <          2.3E-10 Ry

     iteration # 33     ecut=    40.00 Ry     beta= 0.60
     Davidson diagonalization with overlap
     ethr =  3.15E-13,  avg # of iterations =  4.6

     total cpu time spent up to now is     3681.5 secs

     total energy              =    -702.41956449 Ry
     Harris-Foulkes estimate   =    -702.41956449 Ry
     estimated scf accuracy    <          1.7E-10 Ry

     iteration # 34     ecut=    40.00 Ry     beta= 0.60
     Davidson diagonalization with overlap
     ethr =  2.29E-13,  avg # of iterations =  1.0

     total cpu time spent up to now is     3735.5 secs

     End of self-consistent calculation

     Number of k-points >= 100: set verbosity='high' to print the bands.

     the Fermi energy is    14.0797 ev

!    total energy              =    -702.41956449 Ry
     Harris-Foulkes estimate   =    -702.41956449 Ry
     estimated scf accuracy    <          6.2E-11 Ry

     The total energy is the sum of the following terms:

     one-electron contribution =    -214.01202286 Ry
     hartree contribution      =     132.40978843 Ry
     xc contribution           =     -94.65702917 Ry
     ewald contribution        =    -526.15496550 Ry
     smearing contrib. (-TS)   =      -0.00533539 Ry

     convergence has been achieved in  34 iterations

     Forces acting on atoms (cartesian axes, Ry/au):

     atom    1 type  1   force =    -0.00088758    0.00051244    0.00720033
     atom    2 type  2   force =     0.00148118   -0.00085516   -0.00555254
     atom    3 type  2   force =    -0.00125765    0.00072610   -0.00968418
     atom    4 type  2   force =     0.00125813   -0.00072638    0.00968434
     atom    5 type  2   force =    -0.00148142    0.00085530    0.00555188
     atom    6 type  1   force =     0.00088735   -0.00051231   -0.00719983

     Total force =     0.019107     Total SCF correction =     0.000032


     Computing stress (Cartesian axis) and pressure

          total   stress  (Ry/bohr**3)                   (kbar)     P=  -65.37
  -0.00044867  -0.00002397  -0.00003270        -66.00     -3.53     -4.81
  -0.00002397  -0.00047634   0.00001888         -3.53    -70.07      2.78
  -0.00003270   0.00001888  -0.00040803         -4.81      2.78    -60.02


     number of scf cycles    =   2
     number of bfgs steps    =   1

     enthalpy old            =    -702.3835551426 Ry
     enthalpy new            =    -702.4195644914 Ry

     CASE: enthalpy_new < enthalpy_old

     new trust radius        =       0.1262464943 bohr
     new conv_thr            =            1.0E-10 Ry

     new unit-cell volume =    708.32857 a.u.^3 (   104.96346 Ang^3 )
     density =      5.96864 g/cm^3

CELL_PARAMETERS (alat=  1.88972599)
  -2.924932966   0.011957742   4.776456903
  -1.472822192   2.527087571   4.776456903
  -4.363633686   2.519345273  -4.755569290

ATOMIC_POSITIONS (angstrom)
Nb      -4.376898441   2.527003682   0.023842451
Ti      -5.838010179   3.370577001   2.395656337
Ti      -4.388499322   2.533701454   4.770636366
Ti      -5.848283994   3.376508591   7.185591488
Ti      -8.762407821   5.058978893   4.805001127
Nb      -1.462130647   0.844161586   2.379472386


     NEW-OLD atomic charge density approx. for the potential
     extrapolated charge   69.31510, renormalised to   74.00000

     total cpu time spent up to now is     3753.9 secs

     Self-consistent Calculation

     iteration #  1     ecut=    40.00 Ry     beta= 0.60
     Davidson diagonalization with overlap
     c_bands:  2 eigenvalues not converged
     c_bands:  4 eigenvalues not converged
     c_bands:  3 eigenvalues not converged
     c_bands:  2 eigenvalues not converged
     c_bands:  2 eigenvalues not converged
     c_bands:  1 eigenvalues not converged
     c_bands:  3 eigenvalues not converged
     c_bands:  1 eigenvalues not converged
     c_bands:  1 eigenvalues not converged
     c_bands:  1 eigenvalues not converged
     c_bands:  2 eigenvalues not converged
     c_bands:  1 eigenvalues not converged
     c_bands:  1 eigenvalues not converged
     c_bands:  2 eigenvalues not converged
     c_bands:  2 eigenvalues not converged
     c_bands:  1 eigenvalues not converged
     c_bands:  1 eigenvalues not converged
     c_bands:  1 eigenvalues not converged
     c_bands:  1 eigenvalues not converged
     c_bands:  1 eigenvalues not converged
     c_bands:  1 eigenvalues not converged
     c_bands:  1 eigenvalues not converged
     c_bands:  1 eigenvalues not converged
     c_bands:  2 eigenvalues not converged
     c_bands:  1 eigenvalues not converged
     c_bands:  1 eigenvalues not converged
     c_bands:  1 eigenvalues not converged
     c_bands:  1 eigenvalues not converged
     c_bands:  1 eigenvalues not converged
     c_bands:  1 eigenvalues not converged
     c_bands:  3 eigenvalues not converged
     c_bands:  1 eigenvalues not converged
     c_bands:  1 eigenvalues not converged
     c_bands:  1 eigenvalues not converged
     c_bands:  1 eigenvalues not converged
     c_bands:  2 eigenvalues not converged
     c_bands:  1 eigenvalues not converged
     c_bands:  4 eigenvalues not converged
     c_bands:  2 eigenvalues not converged
     c_bands:  3 eigenvalues not converged
     c_bands:  2 eigenvalues not converged
     c_bands:  1 eigenvalues not converged
     c_bands:  2 eigenvalues not converged
     c_bands:  2 eigenvalues not converged
     c_bands:  2 eigenvalues not converged
     c_bands:  1 eigenvalues not converged
     c_bands:  1 eigenvalues not converged
     c_bands:  2 eigenvalues not converged
     c_bands:  2 eigenvalues not converged
     c_bands:  1 eigenvalues not converged
     c_bands:  1 eigenvalues not converged
     c_bands:  1 eigenvalues not converged
     c_bands:  2 eigenvalues not converged
     c_bands:  1 eigenvalues not converged
     c_bands:  2 eigenvalues not converged
     c_bands:  2 eigenvalues not converged
     c_bands:  2 eigenvalues not converged
     c_bands:  1 eigenvalues not converged
     c_bands:  1 eigenvalues not converged
     c_bands:  2 eigenvalues not converged
     c_bands:  2 eigenvalues not converged
     c_bands:  2 eigenvalues not converged
     c_bands:  1 eigenvalues not converged
     c_bands:  1 eigenvalues not converged
     c_bands:  1 eigenvalues not converged
     c_bands:  2 eigenvalues not converged
     c_bands:  1 eigenvalues not converged
     c_bands:  1 eigenvalues not converged
     c_bands:  2 eigenvalues not converged
     c_bands:  1 eigenvalues not converged
     c_bands:  1 eigenvalues not converged
     c_bands:  1 eigenvalues not converged
     c_bands:  1 eigenvalues not converged
     c_bands:  1 eigenvalues not converged
     c_bands:  1 eigenvalues not converged
     c_bands:  1 eigenvalues not converged
     c_bands:  1 eigenvalues not converged
     c_bands:  1 eigenvalues not converged
     c_bands:  1 eigenvalues not converged
     c_bands:  2 eigenvalues not converged
     c_bands:  1 eigenvalues not converged
     c_bands:  1 eigenvalues not converged
     c_bands:  1 eigenvalues not converged
     c_bands:  1 eigenvalues not converged
     c_bands:  1 eigenvalues not converged
     c_bands:  1 eigenvalues not converged
     c_bands:  1 eigenvalues not converged
     c_bands:  2 eigenvalues not converged
     c_bands:  2 eigenvalues not converged
     c_bands:  3 eigenvalues not converged
     c_bands:  4 eigenvalues not converged
     c_bands:  3 eigenvalues not converged
     c_bands:  3 eigenvalues not converged
     c_bands:  2 eigenvalues not converged
     c_bands:  2 eigenvalues not converged
     c_bands:  2 eigenvalues not converged
     c_bands:  1 eigenvalues not converged
     c_bands:  1 eigenvalues not converged
     c_bands:  1 eigenvalues not converged
     c_bands:  1 eigenvalues not converged
     c_bands:  1 eigenvalues not converged
     c_bands:  1 eigenvalues not converged
     c_bands:  3 eigenvalues not converged
     c_bands:  1 eigenvalues not converged
     c_bands:  2 eigenvalues not converged
     c_bands:  1 eigenvalues not converged
     c_bands:  3 eigenvalues not converged
     c_bands:  2 eigenvalues not converged
     c_bands:  1 eigenvalues not converged
     c_bands:  3 eigenvalues not converged
     c_bands:  2 eigenvalues not converged
     c_bands:  2 eigenvalues not converged
     c_bands:  3 eigenvalues not converged
     c_bands:  1 eigenvalues not converged
     c_bands:  1 eigenvalues not converged
     c_bands:  2 eigenvalues not converged
     c_bands:  2 eigenvalues not converged
     c_bands:  1 eigenvalues not converged
     c_bands:  2 eigenvalues not converged
     c_bands:  2 eigenvalues not converged
     c_bands:  1 eigenvalues not converged
     c_bands:  1 eigenvalues not converged
     c_bands:  1 eigenvalues not converged
     c_bands:  1 eigenvalues not converged
     c_bands:  1 eigenvalues not converged
     c_bands:  1 eigenvalues not converged
     c_bands:  1 eigenvalues not converged
     c_bands:  1 eigenvalues not converged
     c_bands:  1 eigenvalues not converged
     c_bands:  1 eigenvalues not converged
     c_bands:  1 eigenvalues not converged
     c_bands:  1 eigenvalues not converged
     c_bands:  1 eigenvalues not converged
     c_bands:  2 eigenvalues not converged
     c_bands:  2 eigenvalues not converged
     c_bands:  1 eigenvalues not converged
     c_bands:  1 eigenvalues not converged
     c_bands:  3 eigenvalues not converged
     c_bands:  3 eigenvalues not converged
     c_bands:  5 eigenvalues not converged
     c_bands:  2 eigenvalues not converged
     c_bands:  2 eigenvalues not converged
     c_bands:  1 eigenvalues not converged
     c_bands:  1 eigenvalues not converged
     c_bands:  1 eigenvalues not converged
     c_bands:  2 eigenvalues not converged
     c_bands:  3 eigenvalues not converged
     c_bands:  2 eigenvalues not converged
     c_bands:  1 eigenvalues not converged
     c_bands:  1 eigenvalues not converged
     c_bands:  1 eigenvalues not converged
     c_bands:  1 eigenvalues not converged
     c_bands:  1 eigenvalues not converged
     c_bands:  1 eigenvalues not converged
     c_bands:  1 eigenvalues not converged
     c_bands:  2 eigenvalues not converged
     c_bands:  1 eigenvalues not converged
     c_bands:  3 eigenvalues not converged
     c_bands:  2 eigenvalues not converged
     c_bands:  2 eigenvalues not converged
     c_bands:  3 eigenvalues not converged
     c_bands:  3 eigenvalues not converged
     c_bands:  3 eigenvalues not converged
     c_bands:  1 eigenvalues not converged
     c_bands:  2 eigenvalues not converged
     c_bands:  2 eigenvalues not converged
     c_bands:  1 eigenvalues not converged
     c_bands:  2 eigenvalues not converged
     c_bands:  1 eigenvalues not converged
     c_bands:  2 eigenvalues not converged
     c_bands:  3 eigenvalues not converged
     c_bands:  2 eigenvalues not converged
     c_bands:  3 eigenvalues not converged
     c_bands:  1 eigenvalues not converged
     c_bands:  3 eigenvalues not converged
     c_bands:  1 eigenvalues not converged
     c_bands:  1 eigenvalues not converged
     c_bands:  2 eigenvalues not converged
     c_bands:  3 eigenvalues not converged
     c_bands:  1 eigenvalues not converged
     c_bands:  1 eigenvalues not converged
     c_bands:  1 eigenvalues not converged
     c_bands:  2 eigenvalues not converged
     c_bands:  1 eigenvalues not converged
     c_bands:  3 eigenvalues not converged
     c_bands:  2 eigenvalues not converged
     c_bands:  1 eigenvalues not converged
     c_bands:  2 eigenvalues not converged
     c_bands:  1 eigenvalues not converged
     c_bands:  4 eigenvalues not converged
     c_bands:  1 eigenvalues not converged
     c_bands:  4 eigenvalues not converged
     c_bands:  3 eigenvalues not converged
     c_bands:  1 eigenvalues not converged
     c_bands:  1 eigenvalues not converged
     c_bands:  1 eigenvalues not converged
     c_bands:  1 eigenvalues not converged
     c_bands:  1 eigenvalues not converged
     c_bands:  2 eigenvalues not converged
     c_bands:  1 eigenvalues not converged
     c_bands:  3 eigenvalues not converged
     c_bands:  1 eigenvalues not converged
     c_bands:  1 eigenvalues not converged
     c_bands:  1 eigenvalues not converged
     c_bands:  1 eigenvalues not converged
     c_bands:  2 eigenvalues not converged
     c_bands:  2 eigenvalues not converged
     c_bands:  4 eigenvalues not converged
     c_bands:  4 eigenvalues not converged
     c_bands:  2 eigenvalues not converged
     c_bands:  1 eigenvalues not converged
     c_bands:  2 eigenvalues not converged
     c_bands:  1 eigenvalues not converged
     c_bands:  1 eigenvalues not converged
     c_bands:  1 eigenvalues not converged
     c_bands:  1 eigenvalues not converged
     c_bands:  3 eigenvalues not converged
     c_bands:  2 eigenvalues not converged
     c_bands:  2 eigenvalues not converged
     c_bands:  1 eigenvalues not converged
     c_bands:  2 eigenvalues not converged
     c_bands:  1 eigenvalues not converged
     c_bands:  2 eigenvalues not converged
     c_bands:  2 eigenvalues not converged
     c_bands:  2 eigenvalues not converged
     c_bands:  1 eigenvalues not converged
     c_bands:  2 eigenvalues not converged
     c_bands:  1 eigenvalues not converged
     c_bands:  3 eigenvalues not converged
     c_bands:  3 eigenvalues not converged
     c_bands:  2 eigenvalues not converged
     c_bands:  1 eigenvalues not converged
     c_bands:  1 eigenvalues not converged
     c_bands:  1 eigenvalues not converged
     c_bands:  4 eigenvalues not converged
     c_bands:  1 eigenvalues not converged
     c_bands:  1 eigenvalues not converged
     c_bands:  3 eigenvalues not converged
     c_bands:  2 eigenvalues not converged
     c_bands:  1 eigenvalues not converged
     c_bands:  2 eigenvalues not converged
     c_bands:  1 eigenvalues not converged
     c_bands:  1 eigenvalues not converged
     c_bands:  1 eigenvalues not converged
     c_bands:  1 eigenvalues not converged
     ethr =  1.00E-06,  avg # of iterations = 19.1

     total cpu time spent up to now is     3953.8 secs

     total energy              =    -697.44496170 Ry
     Harris-Foulkes estimate   =    -711.92811355 Ry
     estimated scf accuracy    <       5.03881555 Ry

     iteration #  2     ecut=    40.00 Ry     beta= 0.60
     Davidson diagonalization with overlap
     ethr =  6.81E-03,  avg # of iterations =  5.2

     total cpu time spent up to now is     4046.5 secs

     total energy              =    -700.08349555 Ry
     Harris-Foulkes estimate   =    -711.00114419 Ry
     estimated scf accuracy    <      45.45580480 Ry

     iteration #  3     ecut=    40.00 Ry     beta= 0.60
     Davidson diagonalization with overlap
     ethr =  6.81E-03,  avg # of iterations =  5.0

     total cpu time spent up to now is     4117.0 secs

     total energy              =    -701.82457761 Ry
     Harris-Foulkes estimate   =    -704.09984090 Ry
     estimated scf accuracy    <       9.32399003 Ry

     iteration #  4     ecut=    40.00 Ry     beta= 0.60
     Davidson diagonalization with overlap
     ethr =  6.81E-03,  avg # of iterations =  4.3

     total cpu time spent up to now is     4178.2 secs

     total energy              =    -702.44592802 Ry
     Harris-Foulkes estimate   =    -703.42498022 Ry
     estimated scf accuracy    <       6.72407357 Ry

     iteration #  5     ecut=    40.00 Ry     beta= 0.60
     Davidson diagonalization with overlap
     ethr =  6.81E-03,  avg # of iterations =  1.2

     total cpu time spent up to now is     4223.6 secs

     total energy              =    -702.57437098 Ry
     Harris-Foulkes estimate   =    -702.71455931 Ry
     estimated scf accuracy    <       2.34972449 Ry

     iteration #  6     ecut=    40.00 Ry     beta= 0.60
     Davidson diagonalization with overlap
     ethr =  3.18E-03,  avg # of iterations =  1.3

     total cpu time spent up to now is     4268.8 secs

     total energy              =    -702.43274341 Ry
     Harris-Foulkes estimate   =    -702.61605233 Ry
     estimated scf accuracy    <       1.71584367 Ry

     iteration #  7     ecut=    40.00 Ry     beta= 0.60
     Davidson diagonalization with overlap
     ethr =  2.32E-03,  avg # of iterations =  1.6

     total cpu time spent up to now is     4315.0 secs

     total energy              =    -702.39637166 Ry
     Harris-Foulkes estimate   =    -702.47263636 Ry
     estimated scf accuracy    <       0.90051220 Ry

     iteration #  8     ecut=    40.00 Ry     beta= 0.60
     Davidson diagonalization with overlap
     ethr =  1.22E-03,  avg # of iterations =  3.6

     total cpu time spent up to now is     4370.6 secs

     total energy              =    -702.47490021 Ry
     Harris-Foulkes estimate   =    -702.46052887 Ry
     estimated scf accuracy    <       0.26333165 Ry

     iteration #  9     ecut=    40.00 Ry     beta= 0.60
     Davidson diagonalization with overlap
     ethr =  3.56E-04,  avg # of iterations =  4.2

     total cpu time spent up to now is     4424.1 secs

     total energy              =    -702.48724887 Ry
     Harris-Foulkes estimate   =    -702.48179276 Ry
     estimated scf accuracy    <       0.32266441 Ry

     iteration # 10     ecut=    40.00 Ry     beta= 0.60
     Davidson diagonalization with overlap
     ethr =  3.56E-04,  avg # of iterations =  1.2

     total cpu time spent up to now is     4469.1 secs

     total energy              =    -702.39823642 Ry
     Harris-Foulkes estimate   =    -702.48916567 Ry
     estimated scf accuracy    <       0.35507103 Ry

     iteration # 11     ecut=    40.00 Ry     beta= 0.60
     Davidson diagonalization with overlap
     ethr =  3.56E-04,  avg # of iterations =  4.6

     total cpu time spent up to now is     4529.8 secs

     total energy              =    -702.42555426 Ry
     Harris-Foulkes estimate   =    -702.43735983 Ry
     estimated scf accuracy    <       0.18919617 Ry

     iteration # 12     ecut=    40.00 Ry     beta= 0.60
     Davidson diagonalization with overlap
     ethr =  2.56E-04,  avg # of iterations =  1.9

     total cpu time spent up to now is     4576.7 secs

     total energy              =    -702.41997571 Ry
     Harris-Foulkes estimate   =    -702.43079852 Ry
     estimated scf accuracy    <       0.07749755 Ry

     iteration # 13     ecut=    40.00 Ry     beta= 0.60
     Davidson diagonalization with overlap
     ethr =  1.05E-04,  avg # of iterations =  6.0

     total cpu time spent up to now is     4652.7 secs

     total energy              =    -702.42959231 Ry
     Harris-Foulkes estimate   =    -702.42984706 Ry
     estimated scf accuracy    <       0.01017009 Ry

     iteration # 14     ecut=    40.00 Ry     beta= 0.60
     Davidson diagonalization with overlap
     c_bands:  1 eigenvalues not converged
     c_bands:  1 eigenvalues not converged
     ethr =  1.37E-05,  avg # of iterations =  6.6

     total cpu time spent up to now is     4721.4 secs

     total energy              =    -702.42778942 Ry
     Harris-Foulkes estimate   =    -702.43068367 Ry
     estimated scf accuracy    <       0.01147216 Ry

     iteration # 15     ecut=    40.00 Ry     beta= 0.60
     Davidson diagonalization with overlap
     ethr =  1.37E-05,  avg # of iterations =  3.7

     total cpu time spent up to now is     4777.7 secs

     total energy              =    -702.42915301 Ry
     Harris-Foulkes estimate   =    -702.42947998 Ry
     estimated scf accuracy    <       0.00258185 Ry

     iteration # 16     ecut=    40.00 Ry     beta= 0.60
     Davidson diagonalization with overlap
     c_bands:  1 eigenvalues not converged
     ethr =  3.49E-06,  avg # of iterations =  5.3

     total cpu time spent up to now is     4842.2 secs

     total energy              =    -702.42932404 Ry
     Harris-Foulkes estimate   =    -702.42951658 Ry
     estimated scf accuracy    <       0.00146722 Ry

     iteration # 17     ecut=    40.00 Ry     beta= 0.60
     Davidson diagonalization with overlap
     c_bands:  1 eigenvalues not converged
     ethr =  1.98E-06,  avg # of iterations =  1.3

     total cpu time spent up to now is     4886.8 secs

     total energy              =    -702.42929016 Ry
     Harris-Foulkes estimate   =    -702.42938363 Ry
     estimated scf accuracy    <       0.00045588 Ry

     iteration # 18     ecut=    40.00 Ry     beta= 0.60
     Davidson diagonalization with overlap
     ethr =  6.16E-07,  avg # of iterations =  4.0

     total cpu time spent up to now is     4949.1 secs

     total energy              =    -702.42937176 Ry
     Harris-Foulkes estimate   =    -702.42938947 Ry
     estimated scf accuracy    <       0.00010782 Ry

     iteration # 19     ecut=    40.00 Ry     beta= 0.60
     Davidson diagonalization with overlap
     ethr =  1.46E-07,  avg # of iterations =  2.8

     total cpu time spent up to now is     4999.0 secs

     total energy              =    -702.42937813 Ry
     Harris-Foulkes estimate   =    -702.42938088 Ry
     estimated scf accuracy    <       0.00002341 Ry

     iteration # 20     ecut=    40.00 Ry     beta= 0.60
     Davidson diagonalization with overlap
     ethr =  3.16E-08,  avg # of iterations =  3.6

     total cpu time spent up to now is     5054.9 secs

     total energy              =    -702.42938045 Ry
     Harris-Foulkes estimate   =    -702.42938150 Ry
     estimated scf accuracy    <       0.00000499 Ry

     iteration # 21     ecut=    40.00 Ry     beta= 0.60
     Davidson diagonalization with overlap
     ethr =  6.74E-09,  avg # of iterations =  4.4

     total cpu time spent up to now is     5126.8 secs

     total energy              =    -702.42938137 Ry
     Harris-Foulkes estimate   =    -702.42938161 Ry
     estimated scf accuracy    <       0.00000203 Ry

     iteration # 22     ecut=    40.00 Ry     beta= 0.60
     Davidson diagonalization with overlap
     ethr =  2.74E-09,  avg # of iterations =  1.5

     total cpu time spent up to now is     5176.5 secs

     total energy              =    -702.42938130 Ry
     Harris-Foulkes estimate   =    -702.42938150 Ry
     estimated scf accuracy    <       0.00000120 Ry

     iteration # 23     ecut=    40.00 Ry     beta= 0.60
     Davidson diagonalization with overlap
     ethr =  1.62E-09,  avg # of iterations =  3.2

     total cpu time spent up to now is     5232.6 secs

     total energy              =    -702.42938143 Ry
     Harris-Foulkes estimate   =    -702.42938143 Ry
     estimated scf accuracy    <       0.00000004 Ry

     iteration # 24     ecut=    40.00 Ry     beta= 0.60
     Davidson diagonalization with overlap
     ethr =  5.06E-11,  avg # of iterations =  5.6

     total cpu time spent up to now is     5308.7 secs

     total energy              =    -702.42938145 Ry
     Harris-Foulkes estimate   =    -702.42938145 Ry
     estimated scf accuracy    <       0.00000008 Ry

     iteration # 25     ecut=    40.00 Ry     beta= 0.60
     Davidson diagonalization with overlap
     ethr =  5.06E-11,  avg # of iterations =  3.7

     total cpu time spent up to now is     5361.9 secs

     total energy              =    -702.42938145 Ry
     Harris-Foulkes estimate   =    -702.42938145 Ry
     estimated scf accuracy    <       0.00000006 Ry

     iteration # 26     ecut=    40.00 Ry     beta= 0.60
     Davidson diagonalization with overlap
     ethr =  5.06E-11,  avg # of iterations =  1.3

     total cpu time spent up to now is     5406.7 secs

     total energy              =    -702.42938145 Ry
     Harris-Foulkes estimate   =    -702.42938145 Ry
     estimated scf accuracy    <          9.4E-09 Ry

     iteration # 27     ecut=    40.00 Ry     beta= 0.60
     Davidson diagonalization with overlap
     ethr =  1.27E-11,  avg # of iterations =  4.3

     total cpu time spent up to now is     5470.8 secs

     total energy              =    -702.42938145 Ry
     Harris-Foulkes estimate   =    -702.42938145 Ry
     estimated scf accuracy    <          9.0E-10 Ry

     iteration # 28     ecut=    40.00 Ry     beta= 0.60
     Davidson diagonalization with overlap
     ethr =  1.21E-12,  avg # of iterations =  3.9

     total cpu time spent up to now is     5527.8 secs

     total energy              =    -702.42938145 Ry
     Harris-Foulkes estimate   =    -702.42938145 Ry
     estimated scf accuracy    <          3.8E-10 Ry

     iteration # 29     ecut=    40.00 Ry     beta= 0.60
     Davidson diagonalization with overlap
     ethr =  5.12E-13,  avg # of iterations =  2.0

     total cpu time spent up to now is     5574.7 secs

     total energy              =    -702.42938145 Ry
     Harris-Foulkes estimate   =    -702.42938145 Ry
     estimated scf accuracy    <          2.3E-10 Ry

     iteration # 30     ecut=    40.00 Ry     beta= 0.60
     Davidson diagonalization with overlap
     ethr =  3.09E-13,  avg # of iterations =  1.9

     total cpu time spent up to now is     5621.3 secs

     total energy              =    -702.42938145 Ry
     Harris-Foulkes estimate   =    -702.42938145 Ry
     estimated scf accuracy    <          1.3E-10 Ry

     iteration # 31     ecut=    40.00 Ry     beta= 0.60
     Davidson diagonalization with overlap
     ethr =  1.69E-13,  avg # of iterations =  3.0

     total cpu time spent up to now is     5672.3 secs

     End of self-consistent calculation

     Number of k-points >= 100: set verbosity='high' to print the bands.

     the Fermi energy is    15.1857 ev

!    total energy              =    -702.42938145 Ry
     Harris-Foulkes estimate   =    -702.42938145 Ry
     estimated scf accuracy    <          8.8E-12 Ry

     The total energy is the sum of the following terms:

     one-electron contribution =    -197.09577915 Ry
     hartree contribution      =     127.33505372 Ry
     xc contribution           =     -94.99351586 Ry
     ewald contribution        =    -537.67021219 Ry
     smearing contrib. (-TS)   =      -0.00492797 Ry

     convergence has been achieved in  31 iterations

     Forces acting on atoms (cartesian axes, Ry/au):

     atom    1 type  1   force =     0.00014175   -0.00008184    0.00683785
     atom    2 type  2   force =     0.00352883   -0.00203737   -0.00499148
     atom    3 type  2   force =    -0.00142285    0.00082148   -0.01144260
     atom    4 type  2   force =     0.00142267   -0.00082138    0.01144243
     atom    5 type  2   force =    -0.00352847    0.00203716    0.00499158
     atom    6 type  1   force =    -0.00014195    0.00008195   -0.00683777

     Total force =     0.021068     Total SCF correction =     0.000009


     Computing stress (Cartesian axis) and pressure

          total   stress  (Ry/bohr**3)                   (kbar)     P=   14.24
   0.00008236  -0.00001852  -0.00003445         12.12     -2.72     -5.07
  -0.00001852   0.00006098   0.00001989         -2.72      8.97      2.93
  -0.00003445   0.00001989   0.00014698         -5.07      2.93     21.62


     number of scf cycles    =   3
     number of bfgs steps    =   2

     enthalpy old            =    -702.4195644914 Ry
     enthalpy new            =    -702.4293814488 Ry

     CASE: enthalpy_new < enthalpy_old

     new trust radius        =       0.0208649578 bohr
     new conv_thr            =            1.0E-10 Ry

     new unit-cell volume =    714.55434 a.u.^3 (   105.88603 Ang^3 )
     density =      5.91664 g/cm^3

CELL_PARAMETERS (alat=  1.88972599)
  -2.935609421   0.014619914   4.796674230
  -1.480465928   2.535002565   4.796674230
  -4.373003879   2.524755156  -4.770320095

ATOMIC_POSITIONS (angstrom)
Nb      -4.389181953   2.534095571   0.030065227
Ti      -5.854553131   3.380128078   2.407833067
Ti      -4.404352593   2.542854343   4.788274196
Ti      -5.868714037   3.388303880   7.222444940
Ti      -8.791518116   5.075785728   4.832565019
Nb      -1.467810234   0.847440697   2.387306333


     NEW-OLD atomic charge density approx. for the potential
     extrapolated charge   74.60985, renormalised to   74.00000

     total cpu time spent up to now is     5690.6 secs

     Self-consistent Calculation

     iteration #  1     ecut=    40.00 Ry     beta= 0.60
     Davidson diagonalization with overlap
     c_bands:  2 eigenvalues not converged
     c_bands:  2 eigenvalues not converged
     c_bands:  1 eigenvalues not converged
     c_bands:  1 eigenvalues not converged
     c_bands:  1 eigenvalues not converged
     c_bands:  1 eigenvalues not converged
     c_bands:  1 eigenvalues not converged
     c_bands:  1 eigenvalues not converged
     c_bands:  1 eigenvalues not converged
     c_bands:  1 eigenvalues not converged
     c_bands:  1 eigenvalues not converged
     c_bands:  1 eigenvalues not converged
     c_bands:  1 eigenvalues not converged
     c_bands:  1 eigenvalues not converged
     c_bands:  1 eigenvalues not converged
     c_bands:  1 eigenvalues not converged
     c_bands:  1 eigenvalues not converged
     c_bands:  1 eigenvalues not converged
     c_bands:  1 eigenvalues not converged
     c_bands:  1 eigenvalues not converged
     ethr =  1.00E-06,  avg # of iterations =  8.7

     total cpu time spent up to now is     5804.1 secs

     total energy              =    -702.39633446 Ry
     Harris-Foulkes estimate   =    -701.25801830 Ry
     estimated scf accuracy    <       0.02854725 Ry

     iteration #  2     ecut=    40.00 Ry     beta= 0.60
     Davidson diagonalization with overlap
     c_bands:  1 eigenvalues not converged
     c_bands:  1 eigenvalues not converged
     c_bands:  1 eigenvalues not converged
     c_bands:  1 eigenvalues not converged
     c_bands:  2 eigenvalues not converged
     ethr =  3.86E-05,  avg # of iterations =  6.8

     total cpu time spent up to now is     5901.2 secs

     total energy              =    -702.39267379 Ry
     Harris-Foulkes estimate   =    -702.47749044 Ry
     estimated scf accuracy    <       0.48168970 Ry

     iteration #  3     ecut=    40.00 Ry     beta= 0.60
     Davidson diagonalization with overlap
     ethr =  3.86E-05,  avg # of iterations =  5.6

     total cpu time spent up to now is     5984.5 secs

     total energy              =    -702.41884567 Ry
     Harris-Foulkes estimate   =    -702.44355204 Ry
     estimated scf accuracy    <       0.13279277 Ry

     iteration #  4     ecut=    40.00 Ry     beta= 0.60
     Davidson diagonalization with overlap
     ethr =  3.86E-05,  avg # of iterations =  6.1

     total cpu time spent up to now is     6062.8 secs

     total energy              =    -702.42307053 Ry
     Harris-Foulkes estimate   =    -702.44070734 Ry
     estimated scf accuracy    <       0.16329721 Ry

     iteration #  5     ecut=    40.00 Ry     beta= 0.60
     Davidson diagonalization with overlap
     ethr =  3.86E-05,  avg # of iterations =  5.0

     total cpu time spent up to now is     6126.4 secs

     total energy              =    -702.43095926 Ry
     Harris-Foulkes estimate   =    -702.43195492 Ry
     estimated scf accuracy    <       0.00985019 Ry

     iteration #  6     ecut=    40.00 Ry     beta= 0.60
     Davidson diagonalization with overlap
     ethr =  1.33E-05,  avg # of iterations =  3.3

     total cpu time spent up to now is     6176.5 secs

     total energy              =    -702.43024657 Ry
     Harris-Foulkes estimate   =    -702.43113809 Ry
     estimated scf accuracy    <       0.00635623 Ry

     iteration #  7     ecut=    40.00 Ry     beta= 0.60
     Davidson diagonalization with overlap
     ethr =  8.59E-06,  avg # of iterations =  1.4

     total cpu time spent up to now is     6221.5 secs

     total energy              =    -702.42992876 Ry
     Harris-Foulkes estimate   =    -702.43040320 Ry
     estimated scf accuracy    <       0.00289543 Ry

     iteration #  8     ecut=    40.00 Ry     beta= 0.60
     Davidson diagonalization with overlap
     c_bands:  1 eigenvalues not converged
     c_bands:  1 eigenvalues not converged
     ethr =  3.91E-06,  avg # of iterations =  4.6

     total cpu time spent up to now is     6279.9 secs

     total energy              =    -702.42998510 Ry
     Harris-Foulkes estimate   =    -702.43015159 Ry
     estimated scf accuracy    <       0.00045018 Ry

     iteration #  9     ecut=    40.00 Ry     beta= 0.60
     Davidson diagonalization with overlap
     c_bands:  1 eigenvalues not converged
     ethr =  6.08E-07,  avg # of iterations =  5.5

     total cpu time spent up to now is     6352.7 secs

     total energy              =    -702.43012097 Ry
     Harris-Foulkes estimate   =    -702.43012709 Ry
     estimated scf accuracy    <       0.00018124 Ry

     iteration # 10     ecut=    40.00 Ry     beta= 0.60
     Davidson diagonalization with overlap
     ethr =  2.45E-07,  avg # of iterations =  1.0

     total cpu time spent up to now is     6396.8 secs

     total energy              =    -702.43012107 Ry
     Harris-Foulkes estimate   =    -702.43012382 Ry
     estimated scf accuracy    <       0.00014627 Ry

     iteration # 11     ecut=    40.00 Ry     beta= 0.60
     Davidson diagonalization with overlap
     ethr =  1.98E-07,  avg # of iterations =  1.0

     total cpu time spent up to now is     6441.0 secs

     total energy              =    -702.43010651 Ry
     Harris-Foulkes estimate   =    -702.43012191 Ry
     estimated scf accuracy    <       0.00012676 Ry

     iteration # 12     ecut=    40.00 Ry     beta= 0.60
     Davidson diagonalization with overlap
     ethr =  1.71E-07,  avg # of iterations =  1.1

     total cpu time spent up to now is     6494.9 secs

     total energy              =    -702.43010893 Ry
     Harris-Foulkes estimate   =    -702.43011075 Ry
     estimated scf accuracy    <       0.00003109 Ry

     iteration # 13     ecut=    40.00 Ry     beta= 0.60
     Davidson diagonalization with overlap
     ethr =  4.20E-08,  avg # of iterations =  3.9

     total cpu time spent up to now is     6552.7 secs

     total energy              =    -702.43011057 Ry
     Harris-Foulkes estimate   =    -702.43011242 Ry
     estimated scf accuracy    <       0.00000739 Ry

     iteration # 14     ecut=    40.00 Ry     beta= 0.60
     Davidson diagonalization with overlap
     ethr =  9.98E-09,  avg # of iterations =  4.2

     total cpu time spent up to now is     6614.8 secs

     total energy              =    -702.43011200 Ry
     Harris-Foulkes estimate   =    -702.43011203 Ry
     estimated scf accuracy    <       0.00000415 Ry

     iteration # 15     ecut=    40.00 Ry     beta= 0.60
     Davidson diagonalization with overlap
     ethr =  5.61E-09,  avg # of iterations =  1.7

     total cpu time spent up to now is     6660.3 secs

     total energy              =    -702.43011136 Ry
     Harris-Foulkes estimate   =    -702.43011223 Ry
     estimated scf accuracy    <       0.00000482 Ry

     iteration # 16     ecut=    40.00 Ry     beta= 0.60
     Davidson diagonalization with overlap
     ethr =  5.61E-09,  avg # of iterations =  1.4

     total cpu time spent up to now is     6705.1 secs

     total energy              =    -702.43011152 Ry
     Harris-Foulkes estimate   =    -702.43011167 Ry
     estimated scf accuracy    <       0.00000048 Ry

     iteration # 17     ecut=    40.00 Ry     beta= 0.60
     Davidson diagonalization with overlap
     ethr =  6.51E-10,  avg # of iterations =  5.1

     total cpu time spent up to now is     6775.9 secs

     total energy              =    -702.43011167 Ry
     Harris-Foulkes estimate   =    -702.43011185 Ry
     estimated scf accuracy    <       0.00000166 Ry

     iteration # 18     ecut=    40.00 Ry     beta= 0.60
     Davidson diagonalization with overlap
     ethr =  6.51E-10,  avg # of iterations =  2.8

     total cpu time spent up to now is     6825.0 secs

     total energy              =    -702.43011167 Ry
     Harris-Foulkes estimate   =    -702.43011171 Ry
     estimated scf accuracy    <       0.00000033 Ry

     iteration # 19     ecut=    40.00 Ry     beta= 0.60
     Davidson diagonalization with overlap
     ethr =  4.52E-10,  avg # of iterations =  3.8

     total cpu time spent up to now is     6881.6 secs

     total energy              =    -702.43011171 Ry
     Harris-Foulkes estimate   =    -702.43011171 Ry
     estimated scf accuracy    <          6.2E-10 Ry

     iteration # 20     ecut=    40.00 Ry     beta= 0.60
     Davidson diagonalization with overlap
     ethr =  8.35E-13,  avg # of iterations =  6.5

     total cpu time spent up to now is     6978.3 secs

     total energy              =    -702.43011171 Ry
     Harris-Foulkes estimate   =    -702.43011172 Ry
     estimated scf accuracy    <       0.00000001 Ry

     iteration # 21     ecut=    40.00 Ry     beta= 0.60
     Davidson diagonalization with overlap
     ethr =  8.35E-13,  avg # of iterations =  4.9

     total cpu time spent up to now is     7047.5 secs

     total energy              =    -702.43011171 Ry
     Harris-Foulkes estimate   =    -702.43011171 Ry
     estimated scf accuracy    <          3.2E-09 Ry

     iteration # 22     ecut=    40.00 Ry     beta= 0.60
     Davidson diagonalization with overlap
     ethr =  8.35E-13,  avg # of iterations =  4.0

     total cpu time spent up to now is     7107.7 secs

     total energy              =    -702.43011171 Ry
     Harris-Foulkes estimate   =    -702.43011171 Ry
     estimated scf accuracy    <          4.7E-10 Ry

     iteration # 23     ecut=    40.00 Ry     beta= 0.60
     Davidson diagonalization with overlap
     ethr =  6.29E-13,  avg # of iterations =  3.3

     total cpu time spent up to now is     7159.1 secs

     total energy              =    -702.43011171 Ry
     Harris-Foulkes estimate   =    -702.43011171 Ry
     estimated scf accuracy    <          1.3E-10 Ry

     iteration # 24     ecut=    40.00 Ry     beta= 0.60
     Davidson diagonalization with overlap
     ethr =  1.81E-13,  avg # of iterations =  4.9

     total cpu time spent up to now is     7229.1 secs

     total energy              =    -702.43011171 Ry
     Harris-Foulkes estimate   =    -702.43011171 Ry
     estimated scf accuracy    <          1.0E-09 Ry

     iteration # 25     ecut=    40.00 Ry     beta= 0.60
     Davidson diagonalization with overlap
     ethr =  1.81E-13,  avg # of iterations =  4.0

     total cpu time spent up to now is     7290.2 secs

     total energy              =    -702.43011171 Ry
     Harris-Foulkes estimate   =    -702.43011171 Ry
     estimated scf accuracy    <          1.5E-10 Ry

     iteration # 26     ecut=    40.00 Ry     beta= 0.60
     Davidson diagonalization with overlap
     ethr =  1.81E-13,  avg # of iterations =  1.0

     total cpu time spent up to now is     7334.4 secs

     End of self-consistent calculation

     Number of k-points >= 100: set verbosity='high' to print the bands.

     the Fermi energy is    15.0304 ev

!    total energy              =    -702.43011171 Ry
     Harris-Foulkes estimate   =    -702.43011171 Ry
     estimated scf accuracy    <          2.7E-11 Ry

     The total energy is the sum of the following terms:

     one-electron contribution =    -199.36628221 Ry
     hartree contribution      =     128.00166645 Ry
     xc contribution           =     -94.94573754 Ry
     ewald contribution        =    -536.11488925 Ry
     smearing contrib. (-TS)   =      -0.00486917 Ry

     convergence has been achieved in  26 iterations

     Forces acting on atoms (cartesian axes, Ry/au):

     atom    1 type  1   force =    -0.00030097    0.00017377    0.00566533
     atom    2 type  2   force =     0.00286652   -0.00165499   -0.00410552
     atom    3 type  2   force =    -0.00187275    0.00108123   -0.01001933
     atom    4 type  2   force =     0.00187272   -0.00108121    0.01001923
     atom    5 type  2   force =    -0.00286643    0.00165493    0.00410571
     atom    6 type  1   force =     0.00030091   -0.00017373   -0.00566541

     Total force =     0.018171     Total SCF correction =     0.000014


     Computing stress (Cartesian axis) and pressure

          total   stress  (Ry/bohr**3)                   (kbar)     P=    1.92
   0.00000203  -0.00001705  -0.00003241          0.30     -2.51     -4.77
  -0.00001705  -0.00001766   0.00001871         -2.51     -2.60      2.75
  -0.00003241   0.00001871   0.00005474         -4.77      2.75      8.05


     number of scf cycles    =   4
     number of bfgs steps    =   3

     enthalpy old            =    -702.4293814488 Ry
     enthalpy new            =    -702.4301117144 Ry

     CASE: enthalpy_new < enthalpy_old

     new trust radius        =       0.0250350768 bohr
     new conv_thr            =            1.0E-10 Ry

     new unit-cell volume =    718.09572 a.u.^3 (   106.41081 Ang^3 )
     density =      5.88746 g/cm^3

CELL_PARAMETERS (alat=  1.88972599)
  -2.947499517   0.022752668   4.822110695
  -1.493454148   2.541233313   4.822110695
  -4.370866041   2.523520875  -4.779241960

ATOMIC_POSITIONS (angstrom)
Nb      -4.396362787   2.538241427   0.048188006
Ti      -5.864610187   3.385934522   2.427273549
Ti      -4.422174943   2.553144081   4.806906162
Ti      -5.889429508   3.400263962   7.279331199
[...]
     c_bands:  1 eigenvalues not converged
     c_bands:  1 eigenvalues not converged
     c_bands:  3 eigenvalues not converged
     c_bands:  2 eigenvalues not converged
     c_bands:  4 eigenvalues not converged
     c_bands:  3 eigenvalues not converged
     c_bands:  2 eigenvalues not converged
     c_bands:  2 eigenvalues not converged
     c_bands:  2 eigenvalues not converged
     c_bands:  3 eigenvalues not converged
     c_bands:  4 eigenvalues not converged
     c_bands:  3 eigenvalues not converged
     c_bands:  1 eigenvalues not converged
     c_bands:  2 eigenvalues not converged
     c_bands:  2 eigenvalues not converged
     c_bands:  2 eigenvalues not converged
     c_bands:  2 eigenvalues not converged
     c_bands:  2 eigenvalues not converged
     c_bands:  2 eigenvalues not converged
     c_bands:  1 eigenvalues not converged
     c_bands:  1 eigenvalues not converged
     c_bands:  1 eigenvalues not converged
     c_bands:  1 eigenvalues not converged
     c_bands:  1 eigenvalues not converged
     c_bands:  2 eigenvalues not converged
     c_bands:  2 eigenvalues not converged
     c_bands:  3 eigenvalues not converged
     c_bands:  3 eigenvalues not converged
     c_bands:  3 eigenvalues not converged
     c_bands:  3 eigenvalues not converged
     c_bands:  1 eigenvalues not converged
     c_bands:  2 eigenvalues not converged
     c_bands:  2 eigenvalues not converged
     c_bands:  2 eigenvalues not converged
     c_bands:  1 eigenvalues not converged
     c_bands:  1 eigenvalues not converged
     c_bands:  3 eigenvalues not converged
     c_bands:  2 eigenvalues not converged
     c_bands:  2 eigenvalues not converged
     c_bands:  1 eigenvalues not converged
     c_bands:  1 eigenvalues not converged
     c_bands:  1 eigenvalues not converged
     c_bands:  1 eigenvalues not converged
     c_bands:  1 eigenvalues not converged
     c_bands:  1 eigenvalues not converged
     c_bands:  1 eigenvalues not converged
     c_bands:  1 eigenvalues not converged
     c_bands:  1 eigenvalues not converged
     c_bands:  2 eigenvalues not converged
     c_bands:  2 eigenvalues not converged
     c_bands:  2 eigenvalues not converged
     c_bands:  2 eigenvalues not converged
     c_bands:  1 eigenvalues not converged
     c_bands:  1 eigenvalues not converged
     c_bands:  1 eigenvalues not converged
     c_bands:  1 eigenvalues not converged
     c_bands:  1 eigenvalues not converged
     c_bands:  2 eigenvalues not converged
     c_bands:  3 eigenvalues not converged
     c_bands:  3 eigenvalues not converged
     c_bands:  3 eigenvalues not converged
     c_bands:  3 eigenvalues not converged
     c_bands:  1 eigenvalues not converged
     c_bands:  1 eigenvalues not converged
     c_bands:  3 eigenvalues not converged
     c_bands:  3 eigenvalues not converged
     c_bands:  3 eigenvalues not converged
     c_bands:  1 eigenvalues not converged
     c_bands:  1 eigenvalues not converged
     c_bands:  2 eigenvalues not converged
     c_bands:  2 eigenvalues not converged
     c_bands:  1 eigenvalues not converged
     c_bands:  2 eigenvalues not converged
     c_bands:  2 eigenvalues not converged
     c_bands:  1 eigenvalues not converged
     c_bands:  1 eigenvalues not converged
     ethr =  1.00E-06,  avg # of iterations = 19.4

     total cpu time spent up to now is    45462.3 secs

     total energy              =    -681.53046813 Ry
     Harris-Foulkes estimate   =    -705.77095809 Ry
     estimated scf accuracy    <      30.15671924 Ry

     iteration #  2     ecut=    40.00 Ry     beta= 0.60
     Davidson diagonalization with overlap
     ethr =  1.00E-02,  avg # of iterations =  6.9

     total cpu time spent up to now is    45566.0 secs

     total energy              =    -668.00723961 Ry
     Harris-Foulkes estimate   =    -749.52566445 Ry
     estimated scf accuracy    <     331.84680832 Ry

     iteration #  3     ecut=    40.00 Ry     beta= 0.60
     Davidson diagonalization with overlap
     ethr =  1.00E-02,  avg # of iterations =  5.3

     total cpu time spent up to now is    45653.9 secs

     total energy              =    -701.29717724 Ry
     Harris-Foulkes estimate   =    -704.19326318 Ry
     estimated scf accuracy    <      20.41129528 Ry

     iteration #  4     ecut=    40.00 Ry     beta= 0.60
     Davidson diagonalization with overlap
     ethr =  1.00E-02,  avg # of iterations =  3.7

     total cpu time spent up to now is    45708.5 secs

     total energy              =    -701.94605199 Ry
     Harris-Foulkes estimate   =    -703.46109408 Ry
     estimated scf accuracy    <      17.32759102 Ry

     iteration #  5     ecut=    40.00 Ry     beta= 0.60
     Davidson diagonalization with overlap
     ethr =  1.00E-02,  avg # of iterations =  1.5

     total cpu time spent up to now is    45752.5 secs

     total energy              =    -702.21482080 Ry
     Harris-Foulkes estimate   =    -702.34609650 Ry
     estimated scf accuracy    <       4.33688780 Ry

     iteration #  6     ecut=    40.00 Ry     beta= 0.60
     Davidson diagonalization with overlap
     ethr =  5.86E-03,  avg # of iterations =  1.7

     total cpu time spent up to now is    45796.8 secs

     total energy              =    -702.29402713 Ry
     Harris-Foulkes estimate   =    -702.30565321 Ry
     estimated scf accuracy    <       2.65025600 Ry

     iteration #  7     ecut=    40.00 Ry     beta= 0.60
     Davidson diagonalization with overlap
     ethr =  3.58E-03,  avg # of iterations =  3.1

     total cpu time spent up to now is    45845.2 secs

     total energy              =    -702.28851006 Ry
     Harris-Foulkes estimate   =    -702.39598286 Ry
     estimated scf accuracy    <       1.13780835 Ry

     iteration #  8     ecut=    40.00 Ry     beta= 0.60
     Davidson diagonalization with overlap
     ethr =  1.54E-03,  avg # of iterations =  5.3

     total cpu time spent up to now is    45908.8 secs

     total energy              =    -702.43082141 Ry
     Harris-Foulkes estimate   =    -702.47099384 Ry
     estimated scf accuracy    <       0.51510394 Ry

     iteration #  9     ecut=    40.00 Ry     beta= 0.60
     Davidson diagonalization with overlap
     ethr =  6.96E-04,  avg # of iterations =  2.5

     total cpu time spent up to now is    45955.8 secs

     total energy              =    -702.42654035 Ry
     Harris-Foulkes estimate   =    -702.45504504 Ry
     estimated scf accuracy    <       0.31679367 Ry

     iteration # 10     ecut=    40.00 Ry     beta= 0.60
     Davidson diagonalization with overlap
     ethr =  4.28E-04,  avg # of iterations =  1.3

     total cpu time spent up to now is    45998.3 secs

     total energy              =    -702.42613992 Ry
     Harris-Foulkes estimate   =    -702.43667024 Ry
     estimated scf accuracy    <       0.08696312 Ry

     iteration # 11     ecut=    40.00 Ry     beta= 0.60
     Davidson diagonalization with overlap
     ethr =  1.18E-04,  avg # of iterations =  5.8

     total cpu time spent up to now is    46063.4 secs

     total energy              =    -702.43309774 Ry
     Harris-Foulkes estimate   =    -702.44070926 Ry
     estimated scf accuracy    <       0.05324028 Ry

     iteration # 12     ecut=    40.00 Ry     beta= 0.60
     Davidson diagonalization with overlap
     c_bands:  1 eigenvalues not converged
     ethr =  7.19E-05,  avg # of iterations =  2.8

     total cpu time spent up to now is    46110.1 secs

     total energy              =    -702.43616035 Ry
     Harris-Foulkes estimate   =    -702.43837525 Ry
     estimated scf accuracy    <       0.02655817 Ry

     iteration # 13     ecut=    40.00 Ry     beta= 0.60
     Davidson diagonalization with overlap
     c_bands:  1 eigenvalues not converged
     c_bands:  1 eigenvalues not converged
     ethr =  3.59E-05,  avg # of iterations =  4.2

     total cpu time spent up to now is    46164.7 secs

     total energy              =    -702.43338902 Ry
     Harris-Foulkes estimate   =    -702.43986857 Ry
     estimated scf accuracy    <       0.04241655 Ry

     iteration # 14     ecut=    40.00 Ry     beta= 0.60
     Davidson diagonalization with overlap
     ethr =  3.59E-05,  avg # of iterations =  2.6

     total cpu time spent up to now is    46210.8 secs

     total energy              =    -702.43599512 Ry
     Harris-Foulkes estimate   =    -702.43616271 Ry
     estimated scf accuracy    <       0.00056958 Ry

     iteration # 15     ecut=    40.00 Ry     beta= 0.60
     Davidson diagonalization with overlap
     ethr =  7.70E-07,  avg # of iterations =  6.7

     total cpu time spent up to now is    46301.4 secs

     total energy              =    -702.43669850 Ry
     Harris-Foulkes estimate   =    -702.43704237 Ry
     estimated scf accuracy    <       0.00371064 Ry

     iteration # 16     ecut=    40.00 Ry     beta= 0.60
     Davidson diagonalization with overlap
     ethr =  7.70E-07,  avg # of iterations =  3.7

     total cpu time spent up to now is    46353.0 secs

     total energy              =    -702.43673111 Ry
     Harris-Foulkes estimate   =    -702.43680090 Ry
     estimated scf accuracy    <       0.00051930 Ry

     iteration # 17     ecut=    40.00 Ry     beta= 0.60
     Davidson diagonalization with overlap
     ethr =  7.02E-07,  avg # of iterations =  3.1

     total cpu time spent up to now is    46402.7 secs

     total energy              =    -702.43676601 Ry
     Harris-Foulkes estimate   =    -702.43679499 Ry
     estimated scf accuracy    <       0.00022004 Ry

     iteration # 18     ecut=    40.00 Ry     beta= 0.60
     Davidson diagonalization with overlap
     ethr =  2.97E-07,  avg # of iterations =  2.7

     total cpu time spent up to now is    46448.9 secs

     total energy              =    -702.43678129 Ry
     Harris-Foulkes estimate   =    -702.43678236 Ry
     estimated scf accuracy    <       0.00000682 Ry

     iteration # 19     ecut=    40.00 Ry     beta= 0.60
     Davidson diagonalization with overlap
     ethr =  9.22E-09,  avg # of iterations =  5.7

     total cpu time spent up to now is    46521.7 secs

     total energy              =    -702.43678694 Ry
     Harris-Foulkes estimate   =    -702.43678815 Ry
     estimated scf accuracy    <       0.00001596 Ry

     iteration # 20     ecut=    40.00 Ry     beta= 0.60
     Davidson diagonalization with overlap
     ethr =  9.22E-09,  avg # of iterations =  1.0

     total cpu time spent up to now is    46563.2 secs

     total energy              =    -702.43678698 Ry
     Harris-Foulkes estimate   =    -702.43678727 Ry
     estimated scf accuracy    <       0.00000573 Ry

     iteration # 21     ecut=    40.00 Ry     beta= 0.60
     Davidson diagonalization with overlap
     ethr =  7.75E-09,  avg # of iterations =  1.0

     total cpu time spent up to now is    46604.9 secs

     total energy              =    -702.43678684 Ry
     Harris-Foulkes estimate   =    -702.43678715 Ry
     estimated scf accuracy    <       0.00000308 Ry

     iteration # 22     ecut=    40.00 Ry     beta= 0.60
     Davidson diagonalization with overlap
     ethr =  4.16E-09,  avg # of iterations =  3.9

     total cpu time spent up to now is    46656.5 secs

     total energy              =    -702.43678706 Ry
     Harris-Foulkes estimate   =    -702.43678717 Ry
     estimated scf accuracy    <       0.00000075 Ry

     iteration # 23     ecut=    40.00 Ry     beta= 0.60
     Davidson diagonalization with overlap
     ethr =  1.01E-09,  avg # of iterations =  3.9

     total cpu time spent up to now is    46712.2 secs

     total energy              =    -702.43678716 Ry
     Harris-Foulkes estimate   =    -702.43678722 Ry
     estimated scf accuracy    <       0.00000040 Ry

     iteration # 24     ecut=    40.00 Ry     beta= 0.60
     Davidson diagonalization with overlap
     ethr =  5.46E-10,  avg # of iterations =  1.2

     total cpu time spent up to now is    46753.9 secs

     total energy              =    -702.43678717 Ry
     Harris-Foulkes estimate   =    -702.43678719 Ry
     estimated scf accuracy    <       0.00000017 Ry

     iteration # 25     ecut=    40.00 Ry     beta= 0.60
     Davidson diagonalization with overlap
     ethr =  2.24E-10,  avg # of iterations =  3.2

     total cpu time spent up to now is    46804.3 secs

     total energy              =    -702.43678718 Ry
     Harris-Foulkes estimate   =    -702.43678719 Ry
     estimated scf accuracy    <       0.00000011 Ry

     iteration # 26     ecut=    40.00 Ry     beta= 0.60
     Davidson diagonalization with overlap
     ethr =  1.46E-10,  avg # of iterations =  1.0

     total cpu time spent up to now is    46845.9 secs

     total energy              =    -702.43678718 Ry
     Harris-Foulkes estimate   =    -702.43678719 Ry
     estimated scf accuracy    <       0.00000004 Ry

     iteration # 27     ecut=    40.00 Ry     beta= 0.60
     Davidson diagonalization with overlap
     ethr =  5.73E-11,  avg # of iterations =  2.4

     total cpu time spent up to now is    46891.3 secs

     total energy              =    -702.43678718 Ry
     Harris-Foulkes estimate   =    -702.43678719 Ry
     estimated scf accuracy    <          9.3E-09 Ry

     iteration # 28     ecut=    40.00 Ry     beta= 0.60
     Davidson diagonalization with overlap
     ethr =  1.26E-11,  avg # of iterations =  4.3

     total cpu time spent up to now is    46951.7 secs

     total energy              =    -702.43678719 Ry
     Harris-Foulkes estimate   =    -702.43678719 Ry
     estimated scf accuracy    <          4.7E-09 Ry

     iteration # 29     ecut=    40.00 Ry     beta= 0.60
     Davidson diagonalization with overlap
     ethr =  6.31E-12,  avg # of iterations =  1.0

     total cpu time spent up to now is    46993.3 secs

     total energy              =    -702.43678719 Ry
     Harris-Foulkes estimate   =    -702.43678719 Ry
     estimated scf accuracy    <          1.2E-09 Ry

     iteration # 30     ecut=    40.00 Ry     beta= 0.60
     Davidson diagonalization with overlap
     ethr =  1.62E-12,  avg # of iterations =  3.8

     total cpu time spent up to now is    47047.6 secs

     total energy              =    -702.43678719 Ry
     Harris-Foulkes estimate   =    -702.43678719 Ry
     estimated scf accuracy    <          1.0E-10 Ry

     iteration # 31     ecut=    40.00 Ry     beta= 0.60
     Davidson diagonalization with overlap
     ethr =  1.41E-13,  avg # of iterations =  3.8

     total cpu time spent up to now is    47101.4 secs

     total energy              =    -702.43678719 Ry
     Harris-Foulkes estimate   =    -702.43678719 Ry
     estimated scf accuracy    <          1.5E-10 Ry

     iteration # 32     ecut=    40.00 Ry     beta= 0.60
     Davidson diagonalization with overlap
     ethr =  1.41E-13,  avg # of iterations =  1.0

     total cpu time spent up to now is    47142.9 secs

     total energy              =    -702.43678719 Ry
     Harris-Foulkes estimate   =    -702.43678719 Ry
     estimated scf accuracy    <          4.2E-11 Ry

     iteration # 33     ecut=    40.00 Ry     beta= 0.60
     Davidson diagonalization with overlap
     ethr =  1.00E-13,  avg # of iterations =  1.3

     total cpu time spent up to now is    47185.0 secs

     total energy              =    -702.43678719 Ry
     Harris-Foulkes estimate   =    -702.43678719 Ry
     estimated scf accuracy    <          1.2E-11 Ry

     iteration # 34     ecut=    40.00 Ry     beta= 0.60
     Davidson diagonalization with overlap
     ethr =  1.00E-13,  avg # of iterations =  1.0

     total cpu time spent up to now is    47226.4 secs

     End of self-consistent calculation

     Number of k-points >= 100: set verbosity='high' to print the bands.

     the Fermi energy is    14.9637 ev

!    total energy              =    -702.43678719 Ry
     Harris-Foulkes estimate   =    -702.43678719 Ry
     estimated scf accuracy    <          9.3E-13 Ry

     The total energy is the sum of the following terms:

     one-electron contribution =    -199.12696337 Ry
     hartree contribution      =     128.02179074 Ry
     xc contribution           =     -94.97402979 Ry
     ewald contribution        =    -536.35849464 Ry
     smearing contrib. (-TS)   =       0.00090987 Ry

     convergence has been achieved in  34 iterations

     Forces acting on atoms (cartesian axes, Ry/au):

     atom    1 type  1   force =    -0.00001125    0.00000650    0.00001570
     atom    2 type  2   force =    -0.00010083    0.00005821   -0.00015061
     atom    3 type  2   force =    -0.00004904    0.00002831    0.00019986
     atom    4 type  2   force =     0.00004909   -0.00002834   -0.00019975
     atom    5 type  2   force =     0.00010086   -0.00005823    0.00015039
     atom    6 type  1   force =     0.00001116   -0.00000645   -0.00001559

     Total force =     0.000399     Total SCF correction =     0.000002


     Computing stress (Cartesian axis) and pressure

          total   stress  (Ry/bohr**3)                   (kbar)     P=   -4.72
  -0.00002431  -0.00001127  -0.00000085         -3.58     -1.66     -0.12
  -0.00001127  -0.00003732   0.00000049         -1.66     -5.49      0.07
  -0.00000085   0.00000049  -0.00003470         -0.12      0.07     -5.10

 
     init_run     :     49.17s CPU     50.17s WALL (       2 calls)
     electrons    :  45118.52s CPU  46546.26s WALL (      35 calls)
     update_pot   :     48.19s CPU     48.49s WALL (      33 calls)
     forces       :    155.88s CPU    159.98s WALL (      35 calls)
     stress       :    408.70s CPU    419.86s WALL (      35 calls)

     Called by init_run:
     wfcinit      :     46.48s CPU     47.35s WALL (       2 calls)
     potinit      :      0.80s CPU      0.82s WALL (       2 calls)
     hinit0       :      1.43s CPU      1.46s WALL (       2 calls)

     Called by electrons:
     c_bands      :  38565.00s CPU  39715.42s WALL (     752 calls)
     sum_band     :   6347.66s CPU   6494.63s WALL (     752 calls)
     v_of_rho     :     47.11s CPU     47.41s WALL (     779 calls)
     newd         :    159.80s CPU    232.12s WALL (     779 calls)
     mix_rho      :      4.94s CPU      4.95s WALL (     752 calls)

     Called by c_bands:
     init_us_2    :    406.33s CPU    410.41s WALL (  627248 calls)
     cegterg      :  36070.79s CPU  36504.99s WALL (  299296 calls)

     Called by sum_band:
     sum_band:bec :     13.99s CPU     14.34s WALL (  299296 calls)
     addusdens    :    184.80s CPU    250.46s WALL (     752 calls)

     Called by *egterg:
     h_psi        :  26093.53s CPU  26482.85s WALL ( 1361621 calls)
     s_psi        :    908.87s CPU    911.42s WALL ( 1361621 calls)
     g_psi        :    143.93s CPU    147.80s WALL ( 1061529 calls)
     cdiaghg      :   5352.46s CPU   5367.78s WALL ( 1344507 calls)

     Called by h_psi:
     h_psi:pot    :  26019.60s CPU  26407.99s WALL ( 1361621 calls)
     h_psi:calbec :   1029.50s CPU   1035.68s WALL ( 1361621 calls)
     vloc_psi     :  24054.00s CPU  24431.32s WALL ( 1361621 calls)
     add_vuspsi   :    930.03s CPU    932.92s WALL ( 1361621 calls)

     General routines
     calbec       :   1468.80s CPU   1476.06s WALL ( 1730567 calls)
     fft          :     25.10s CPU     25.48s WALL (   11008 calls)
     ffts         :      0.92s CPU      0.91s WALL (    1531 calls)
     fftw         :  26255.60s CPU  26654.02s WALL (81105056 calls)
     interpolate  :      2.35s CPU      2.36s WALL (     779 calls)
 
     Parallel routines
     fft_scatt_xy :   5321.33s CPU   5373.22s WALL (81117595 calls)
     fft_scatt_yz :   3966.44s CPU   4058.31s WALL (81117595 calls)
 
     PWSCF        :    12h43m CPU       43h13m WALL

       7h
 
   This run was terminated on:  22:42:18  17Feb2020            

=------------------------------------------------------------------------------=
   JOB DONE.
=------------------------------------------------------------------------------=
