
     Program PWSCF v.6.3MaX starts on 14Jan2020 at 18:36:44 

     This program is part of the open-source Quantum ESPRESSO suite
     for quantum simulation of materials; please cite
         "P. Giannozzi et al., J. Phys.:Condens. Matter 21 395502 (2009);
         "P. Giannozzi et al., J. Phys.:Condens. Matter 29 465901 (2017);
          URL http://www.quantum-espresso.org", 
     in publications or presentations arising from this work. More details at
     http://www.quantum-espresso.org/quote

     Parallel version (MPI), running on     4 processors

     MPI processes distributed on     1 nodes
     R & G space division:  proc/nbgrp/npool/nimage =       4
     Waiting for input...
     Reading input from standard input

     Current dimensions of program PWSCF are:
     Max number of different atomic species (ntypx) = 10
     Max number of k-points (npk) =  40000
     Max angular momentum in pseudopotentials (lmaxx) =  3
     Message from routine iosys:
     minimal I/O required, wf_collect reset to FALSE

     Subspace diagonalization in iterative solution of the eigenvalue problem:
     a serial algorithm will be used

 
     Parallelization info
     --------------------
     sticks:   dense  smooth     PW     G-vecs:    dense   smooth      PW
     Min         538     213     65                27719     7004    1154
     Max         539     214     66                27721     7007    1156
     Sum        2155     855    261               110881    28023    4619
 


     bravais-lattice index     =            0
     lattice parameter (alat)  =       1.8897  a.u.
     unit-cell volume          =     586.6735 (a.u.)^3
     number of atoms/cell      =            4
     number of atomic types    =            2
     number of electrons       =        51.00
     number of Kohn-Sham states=           31
     kinetic-energy cutoff     =      50.0000  Ry
     charge density cutoff     =     500.0000  Ry
     convergence threshold     =      1.0E-10
     mixing beta               =       0.6000
     number of iterations used =            8  plain     mixing
     Exchange-correlation      = SLA PW PBE PBE ( 1  4  3  4 0 0)
     nstep                     =           50


     celldm(1)=   1.889726  celldm(2)=   0.000000  celldm(3)=   0.000000
     celldm(4)=   0.000000  celldm(5)=   0.000000  celldm(6)=   0.000000

     crystal axes: (cart. coord. in units of alat)
               a(1) = (   1.758031   1.758031  -1.758031 )  
               a(2) = (  -3.516063   3.516063   0.000000 )  
               a(3) = (   1.758031   1.758031   5.274095 )  

     reciprocal axes: (cart. coord. in units 2 pi/alat)
               b(1) = (  0.213307  0.213307 -0.142205 )  
               b(2) = ( -0.142205  0.142205  0.000000 )  
               b(3) = (  0.071102  0.071102  0.142205 )  


     PseudoPot. # 1 for Nb read from file:
     /home/u16/abhishekkt/fp/krishna/calculations/pseudopotentials/Nb.pbe-nsp-van.UPF
     MD5 check sum: c44c1a86bf31974e1e832c2ec821fd5f
     Pseudo is Ultrasoft + core correction, Zval = 13.0
     Generated by new atomic code, or converted to UPF format
     Using radial grid of  887 points,  6 beta functions with: 
                l(1) =   0
                l(2) =   0
                l(3) =   1
                l(4) =   1
                l(5) =   2
                l(6) =   2
     Q(r) pseudized with  6 coefficients,  rinner =    1.000   1.000   1.000
                                                       1.000   1.000

     PseudoPot. # 2 for Ti read from file:
     /home/u16/abhishekkt/fp/krishna/calculations/pseudopotentials/Ti.pbe-sp-van_ak.UPF
     MD5 check sum: 84d3ec9e8983e94242673103c800fb48
     Pseudo is Ultrasoft, Zval = 12.0
     Generated by new atomic code, or converted to UPF format
     Using radial grid of  851 points,  6 beta functions with: 
                l(1) =   0
                l(2) =   0
                l(3) =   1
                l(4) =   1
                l(5) =   2
                l(6) =   2
     Q(r) pseudized with  8 coefficients,  rinner =    1.000   1.000   1.000
                                                       1.000   1.000

     atomic species   valence    mass     pseudopotential
        Nb            13.00    92.90638     Nb( 1.00)
        Ti            12.00    47.86700     Ti( 1.00)

      4 Sym. Ops., with inversion, found



   Cartesian axes

     site n.     atom                  positions (alat units)
         1           Ti  tau(   1) = (  -1.7580316   5.2740949   1.7580316  )
         2           Nb  tau(   2) = (   0.0000000   3.5160633   3.5160633  )
         3           Nb  tau(   3) = (   0.0000000   7.0321265   3.5160633  )
         4           Nb  tau(   4) = (   0.0000000   3.5160633   0.0000000  )

     number of k points=   576  Marzari-Vanderbilt smearing, width (Ry)=  0.0200

     Number of k-points >= 100: set verbosity='high' to print them.

     Dense  grid:   110881 G-vectors     FFT dimensions: (  45,  72,  80)

     Smooth grid:    28023 G-vectors     FFT dimensions: (  25,  45,  50)

     Estimated max dynamical RAM per process >     343.63 MB

     Estimated total dynamical RAM >       1.34 GB

     Initial potential from superposition of free atoms

     starting charge   49.99176, renormalised to   51.00000
     Starting wfcs are   49 randomized atomic wfcs

     total cpu time spent up to now is       17.4 secs

     Self-consistent Calculation

     iteration #  1     ecut=    50.00 Ry     beta= 0.60
     Davidson diagonalization with overlap
     ethr =  1.00E-02,  avg # of iterations =  2.4

     total cpu time spent up to now is       50.7 secs

     total energy              =    -446.81783659 Ry
     Harris-Foulkes estimate   =    -472.74523047 Ry
     estimated scf accuracy    <      32.30779319 Ry

     iteration #  2     ecut=    50.00 Ry     beta= 0.60
     Davidson diagonalization with overlap
     ethr =  1.00E-02,  avg # of iterations =  7.4

     total cpu time spent up to now is      118.8 secs

     total energy              =    -455.09827474 Ry
     Harris-Foulkes estimate   =    -509.00145387 Ry
     estimated scf accuracy    <     170.18159347 Ry

     iteration #  3     ecut=    50.00 Ry     beta= 0.60
     Davidson diagonalization with overlap
     ethr =  1.00E-02,  avg # of iterations =  5.1

     total cpu time spent up to now is      179.0 secs

     total energy              =    -472.07131566 Ry
     Harris-Foulkes estimate   =    -473.09804660 Ry
     estimated scf accuracy    <       9.42893354 Ry

     iteration #  4     ecut=    50.00 Ry     beta= 0.60
     Davidson diagonalization with overlap
     ethr =  1.00E-02,  avg # of iterations =  1.1

     total cpu time spent up to now is      207.5 secs

     total energy              =    -471.66186333 Ry
     Harris-Foulkes estimate   =    -472.36853798 Ry
     estimated scf accuracy    <       7.22288848 Ry

     iteration #  5     ecut=    50.00 Ry     beta= 0.60
     Davidson diagonalization with overlap
     ethr =  1.00E-02,  avg # of iterations =  1.0

     total cpu time spent up to now is      235.9 secs

     total energy              =    -470.36638275 Ry
     Harris-Foulkes estimate   =    -471.73226069 Ry
     estimated scf accuracy    <       5.45926262 Ry

     iteration #  6     ecut=    50.00 Ry     beta= 0.60
     Davidson diagonalization with overlap
     ethr =  1.00E-02,  avg # of iterations =  1.3

     total cpu time spent up to now is      264.1 secs

     total energy              =    -470.39827511 Ry
     Harris-Foulkes estimate   =    -470.50356918 Ry
     estimated scf accuracy    <       2.40306321 Ry

     iteration #  7     ecut=    50.00 Ry     beta= 0.60
     Davidson diagonalization with overlap
     ethr =  4.71E-03,  avg # of iterations =  1.9

     total cpu time spent up to now is      293.3 secs

     total energy              =    -469.77096729 Ry
     Harris-Foulkes estimate   =    -470.45271559 Ry
     estimated scf accuracy    <       1.88516695 Ry

     iteration #  8     ecut=    50.00 Ry     beta= 0.60
     Davidson diagonalization with overlap
     ethr =  3.70E-03,  avg # of iterations =  4.4

     total cpu time spent up to now is      341.9 secs

     total energy              =    -469.99682073 Ry
     Harris-Foulkes estimate   =    -471.21677399 Ry
     estimated scf accuracy    <      20.85535647 Ry

     iteration #  9     ecut=    50.00 Ry     beta= 0.60
     Davidson diagonalization with overlap
     ethr =  3.70E-03,  avg # of iterations =  2.1

     total cpu time spent up to now is      371.0 secs

     total energy              =    -470.24042248 Ry
     Harris-Foulkes estimate   =    -470.40879472 Ry
     estimated scf accuracy    <       1.97479527 Ry

     iteration # 10     ecut=    50.00 Ry     beta= 0.60
     Davidson diagonalization with overlap
     ethr =  3.70E-03,  avg # of iterations =  2.1

     total cpu time spent up to now is      400.1 secs

     total energy              =    -470.36922016 Ry
     Harris-Foulkes estimate   =    -470.35441675 Ry
     estimated scf accuracy    <       0.02436205 Ry

     iteration # 11     ecut=    50.00 Ry     beta= 0.60
     Davidson diagonalization with overlap
     ethr =  4.78E-05,  avg # of iterations =  7.5

     total cpu time spent up to now is      464.1 secs

     total energy              =    -470.38031254 Ry
     Harris-Foulkes estimate   =    -470.45974453 Ry
     estimated scf accuracy    <       0.91641538 Ry

     iteration # 12     ecut=    50.00 Ry     beta= 0.60
     Davidson diagonalization with overlap
     ethr =  4.78E-05,  avg # of iterations =  5.2

     total cpu time spent up to now is      512.6 secs

     total energy              =    -470.39229881 Ry
     Harris-Foulkes estimate   =    -470.39217369 Ry
     estimated scf accuracy    <       0.35026914 Ry

     iteration # 13     ecut=    50.00 Ry     beta= 0.60
     Davidson diagonalization with overlap
     ethr =  4.78E-05,  avg # of iterations =  1.0

     total cpu time spent up to now is      540.2 secs

     total energy              =    -470.36065370 Ry
     Harris-Foulkes estimate   =    -470.39252300 Ry
     estimated scf accuracy    <       0.38032060 Ry

     iteration # 14     ecut=    50.00 Ry     beta= 0.60
     Davidson diagonalization with overlap
     ethr =  4.78E-05,  avg # of iterations =  5.8

     total cpu time spent up to now is      584.7 secs

     total energy              =    -470.36752123 Ry
     Harris-Foulkes estimate   =    -470.36746917 Ry
     estimated scf accuracy    <       0.09115645 Ry

     iteration # 15     ecut=    50.00 Ry     beta= 0.60
     Davidson diagonalization with overlap
     ethr =  4.78E-05,  avg # of iterations =  1.1

     total cpu time spent up to now is      612.5 secs

     total energy              =    -470.36206562 Ry
     Harris-Foulkes estimate   =    -470.36764364 Ry
     estimated scf accuracy    <       0.10364760 Ry

     iteration # 16     ecut=    50.00 Ry     beta= 0.60
     Davidson diagonalization with overlap
     ethr =  4.78E-05,  avg # of iterations =  1.1

     total cpu time spent up to now is      640.4 secs

     total energy              =    -470.35270420 Ry
     Harris-Foulkes estimate   =    -470.36259518 Ry
     estimated scf accuracy    <       0.06017759 Ry

     iteration # 17     ecut=    50.00 Ry     beta= 0.60
     Davidson diagonalization with overlap
     ethr =  4.78E-05,  avg # of iterations =  6.3

     total cpu time spent up to now is      687.6 secs

     total energy              =    -470.36250227 Ry
     Harris-Foulkes estimate   =    -470.35940070 Ry
     estimated scf accuracy    <       0.01068761 Ry

     iteration # 18     ecut=    50.00 Ry     beta= 0.60
     Davidson diagonalization with overlap
     ethr =  2.10E-05,  avg # of iterations =  5.7

     total cpu time spent up to now is      734.6 secs

     total energy              =    -470.36892991 Ry
     Harris-Foulkes estimate   =    -470.36638036 Ry
     estimated scf accuracy    <       0.14585574 Ry

     iteration # 19     ecut=    50.00 Ry     beta= 0.60
     Davidson diagonalization with overlap
     ethr =  2.10E-05,  avg # of iterations =  1.0

     total cpu time spent up to now is      762.0 secs

     total energy              =    -470.37513197 Ry
     Harris-Foulkes estimate   =    -470.36917232 Ry
     estimated scf accuracy    <       0.20213020 Ry

     iteration # 20     ecut=    50.00 Ry     beta= 0.60
     Davidson diagonalization with overlap
     ethr =  2.10E-05,  avg # of iterations =  3.1

     total cpu time spent up to now is      795.3 secs

     total energy              =    -470.35633541 Ry
     Harris-Foulkes estimate   =    -470.37621594 Ry
     estimated scf accuracy    <       0.36841206 Ry

     iteration # 21     ecut=    50.00 Ry     beta= 0.60
     Davidson diagonalization with overlap
     ethr =  2.10E-05,  avg # of iterations =  4.3

     total cpu time spent up to now is      836.5 secs

     total energy              =    -470.35681762 Ry
     Harris-Foulkes estimate   =    -470.36200695 Ry
     estimated scf accuracy    <       0.06130329 Ry

     iteration # 22     ecut=    50.00 Ry     beta= 0.60
     Davidson diagonalization with overlap
     ethr =  2.10E-05,  avg # of iterations =  3.9

     total cpu time spent up to now is      871.3 secs

     total energy              =    -470.35827236 Ry
     Harris-Foulkes estimate   =    -470.35875440 Ry
     estimated scf accuracy    <       0.00298716 Ry

     iteration # 23     ecut=    50.00 Ry     beta= 0.60
     Davidson diagonalization with overlap
     ethr =  5.86E-06,  avg # of iterations =  6.4

     total cpu time spent up to now is      922.0 secs

     total energy              =    -470.35903197 Ry
     Harris-Foulkes estimate   =    -470.35900875 Ry
     estimated scf accuracy    <       0.00160859 Ry

     iteration # 24     ecut=    50.00 Ry     beta= 0.60
     Davidson diagonalization with overlap
     ethr =  3.15E-06,  avg # of iterations =  1.2

     total cpu time spent up to now is      950.7 secs

     total energy              =    -470.35891591 Ry
     Harris-Foulkes estimate   =    -470.35903691 Ry
     estimated scf accuracy    <       0.00192821 Ry

     iteration # 25     ecut=    50.00 Ry     beta= 0.60
     Davidson diagonalization with overlap
     ethr =  3.15E-06,  avg # of iterations =  1.0

     total cpu time spent up to now is      978.9 secs

     total energy              =    -470.35895219 Ry
     Harris-Foulkes estimate   =    -470.35894051 Ry
     estimated scf accuracy    <       0.00061315 Ry

     iteration # 26     ecut=    50.00 Ry     beta= 0.60
     Davidson diagonalization with overlap
     ethr =  1.20E-06,  avg # of iterations =  1.0

     total cpu time spent up to now is     1008.8 secs

     total energy              =    -470.35889312 Ry
     Harris-Foulkes estimate   =    -470.35895589 Ry
     estimated scf accuracy    <       0.00074299 Ry

     iteration # 27     ecut=    50.00 Ry     beta= 0.60
     Davidson diagonalization with overlap
     ethr =  1.20E-06,  avg # of iterations =  1.0

     total cpu time spent up to now is     1036.5 secs

     total energy              =    -470.35889263 Ry
     Harris-Foulkes estimate   =    -470.35890729 Ry
     estimated scf accuracy    <       0.00019506 Ry

     iteration # 28     ecut=    50.00 Ry     beta= 0.60
     Davidson diagonalization with overlap
     ethr =  3.82E-07,  avg # of iterations =  4.1

     total cpu time spent up to now is     1073.3 secs

     total energy              =    -470.35891360 Ry
     Harris-Foulkes estimate   =    -470.35891362 Ry
     estimated scf accuracy    <       0.00000124 Ry

     iteration # 29     ecut=    50.00 Ry     beta= 0.60
     Davidson diagonalization with overlap
     ethr =  2.42E-09,  avg # of iterations =  5.1

     total cpu time spent up to now is     1120.1 secs

     total energy              =    -470.35891590 Ry
     Harris-Foulkes estimate   =    -470.35891502 Ry
     estimated scf accuracy    <       0.00000756 Ry

     iteration # 30     ecut=    50.00 Ry     beta= 0.60
     Davidson diagonalization with overlap
     ethr =  2.42E-09,  avg # of iterations =  4.0

     total cpu time spent up to now is     1154.9 secs

     total energy              =    -470.35891497 Ry
     Harris-Foulkes estimate   =    -470.35891623 Ry
     estimated scf accuracy    <       0.00002634 Ry

     iteration # 31     ecut=    50.00 Ry     beta= 0.60
     Davidson diagonalization with overlap
     ethr =  2.42E-09,  avg # of iterations =  3.4

     total cpu time spent up to now is     1187.2 secs

     total energy              =    -470.35891442 Ry
     Harris-Foulkes estimate   =    -470.35891514 Ry
     estimated scf accuracy    <       0.00001257 Ry

     iteration # 32     ecut=    50.00 Ry     beta= 0.60
     Davidson diagonalization with overlap
     ethr =  2.42E-09,  avg # of iterations =  3.6

     total cpu time spent up to now is     1221.5 secs

     total energy              =    -470.35891424 Ry
     Harris-Foulkes estimate   =    -470.35891459 Ry
     estimated scf accuracy    <       0.00000390 Ry

     iteration # 33     ecut=    50.00 Ry     beta= 0.60
     Davidson diagonalization with overlap
     ethr =  2.42E-09,  avg # of iterations =  2.8

     total cpu time spent up to now is     1253.9 secs

     total energy              =    -470.35891432 Ry
     Harris-Foulkes estimate   =    -470.35891436 Ry
     estimated scf accuracy    <       0.00000047 Ry

     iteration # 34     ecut=    50.00 Ry     beta= 0.60
     Davidson diagonalization with overlap
     ethr =  9.26E-10,  avg # of iterations =  3.6

     total cpu time spent up to now is     1288.0 secs

     total energy              =    -470.35891437 Ry
     Harris-Foulkes estimate   =    -470.35891437 Ry
     estimated scf accuracy    <       0.00000001 Ry

     iteration # 35     ecut=    50.00 Ry     beta= 0.60
     Davidson diagonalization with overlap
     ethr =  2.32E-11,  avg # of iterations =  4.4

     total cpu time spent up to now is     1328.0 secs

     total energy              =    -470.35891437 Ry
     Harris-Foulkes estimate   =    -470.35891437 Ry
     estimated scf accuracy    <          1.4E-09 Ry

     iteration # 36     ecut=    50.00 Ry     beta= 0.60
     Davidson diagonalization with overlap
     ethr =  2.67E-12,  avg # of iterations =  2.5

     total cpu time spent up to now is     1359.4 secs

     total energy              =    -470.35891437 Ry
     Harris-Foulkes estimate   =    -470.35891437 Ry
     estimated scf accuracy    <          1.2E-09 Ry

     iteration # 37     ecut=    50.00 Ry     beta= 0.60
     Davidson diagonalization with overlap
     ethr =  2.36E-12,  avg # of iterations =  1.1

     total cpu time spent up to now is     1386.2 secs

     total energy              =    -470.35891437 Ry
     Harris-Foulkes estimate   =    -470.35891437 Ry
     estimated scf accuracy    <          4.7E-10 Ry

     iteration # 38     ecut=    50.00 Ry     beta= 0.60
     Davidson diagonalization with overlap
     ethr =  9.13E-13,  avg # of iterations =  3.2

     total cpu time spent up to now is     1418.5 secs

     End of self-consistent calculation

     Number of k-points >= 100: set verbosity='high' to print the bands.

     the Fermi energy is    13.2809 ev

!    total energy              =    -470.35891437 Ry
     Harris-Foulkes estimate   =    -470.35891437 Ry
     estimated scf accuracy    <          2.1E-11 Ry

     The total energy is the sum of the following terms:

     one-electron contribution =    -124.25353215 Ry
     hartree contribution      =      79.32851578 Ry
     xc contribution           =     -69.12158411 Ry
     ewald contribution        =    -356.31256671 Ry
     smearing contrib. (-TS)   =       0.00025282 Ry

     convergence has been achieved in  38 iterations

     Forces acting on atoms (cartesian axes, Ry/au):

     atom    1 type  2   force =     0.00000000    0.00000000    0.00000000
     atom    2 type  1   force =    -0.00403339   -0.00403339    0.01066687
     atom    3 type  1   force =     0.00000000    0.00000000    0.00000000
     atom    4 type  1   force =     0.00403339    0.00403339   -0.01066687

     Total force =     0.017107     Total SCF correction =     0.000001


     Computing stress (Cartesian axis) and pressure

          total   stress  (Ry/bohr**3)                   (kbar)     P= -211.93
  -0.00143802  -0.00000516   0.00002166       -211.54     -0.76      3.19
  -0.00000516  -0.00143802   0.00002166         -0.76   -211.54      3.19
   0.00002166   0.00002166  -0.00144602          3.19      3.19   -212.72


     BFGS Geometry Optimization

     number of scf cycles    =   1
     number of bfgs steps    =   0

     enthalpy new            =    -470.3589143705 Ry

     new trust radius        =       0.1751625599 bohr
     new conv_thr            =            1.0E-10 Ry

     new unit-cell volume =    525.53793 a.u.^3 (    77.87668 Ang^3 )
     density =      6.96369 g/cm^3

CELL_PARAMETERS (alat=  1.88972599)
   1.693650961   1.693650961  -1.692574023
  -3.390112500   3.390112500   0.000000000
   1.697458076   1.697458076   5.085336299

ATOMIC_POSITIONS (angstrom)
Ti      -1.694557982   5.085667018   1.696381138
Nb      -0.000604267   3.389508233   3.396297012
Nb       0.000996537   6.781221537   3.392762276
Nb       0.001600804   3.391713304  -0.003534736


     NEW-OLD atomic charge density approx. for the potential
     extrapolated charge   45.18449, renormalised to   51.00000

     total cpu time spent up to now is     1434.5 secs

     Self-consistent Calculation

     iteration #  1     ecut=    50.00 Ry     beta= 0.60
     Davidson diagonalization with overlap
     c_bands:  1 eigenvalues not converged
     c_bands:  1 eigenvalues not converged
     c_bands:  1 eigenvalues not converged
     c_bands:  1 eigenvalues not converged
     c_bands:  1 eigenvalues not converged
     c_bands:  1 eigenvalues not converged
     c_bands:  1 eigenvalues not converged
     c_bands:  1 eigenvalues not converged
     c_bands:  1 eigenvalues not converged
     c_bands:  1 eigenvalues not converged
     c_bands:  1 eigenvalues not converged
     c_bands:  1 eigenvalues not converged
     c_bands:  2 eigenvalues not converged
     c_bands:  1 eigenvalues not converged
     c_bands:  1 eigenvalues not converged
     c_bands:  1 eigenvalues not converged
     c_bands:  1 eigenvalues not converged
     c_bands:  1 eigenvalues not converged
     c_bands:  1 eigenvalues not converged
     c_bands:  1 eigenvalues not converged
     c_bands:  1 eigenvalues not converged
     c_bands:  1 eigenvalues not converged
     c_bands:  2 eigenvalues not converged
     c_bands:  2 eigenvalues not converged
     c_bands:  1 eigenvalues not converged
     c_bands:  1 eigenvalues not converged
     c_bands:  1 eigenvalues not converged
     c_bands:  1 eigenvalues not converged
     c_bands:  1 eigenvalues not converged
     c_bands:  1 eigenvalues not converged
     c_bands:  1 eigenvalues not converged
     c_bands:  1 eigenvalues not converged
     c_bands:  1 eigenvalues not converged
     c_bands:  1 eigenvalues not converged
     c_bands:  1 eigenvalues not converged
     c_bands:  1 eigenvalues not converged
     c_bands:  1 eigenvalues not converged
     c_bands:  1 eigenvalues not converged
     c_bands:  1 eigenvalues not converged
     c_bands:  1 eigenvalues not converged
     c_bands:  1 eigenvalues not converged
     c_bands:  1 eigenvalues not converged
     c_bands:  1 eigenvalues not converged
     c_bands:  1 eigenvalues not converged
     c_bands:  1 eigenvalues not converged
     c_bands:  1 eigenvalues not converged
     ethr =  1.00E-06,  avg # of iterations = 14.4

     total cpu time spent up to now is     1549.1 secs

     total energy              =    -448.73535271 Ry
     Harris-Foulkes estimate   =    -479.85659939 Ry
     estimated scf accuracy    <      24.31115229 Ry

     iteration #  2     ecut=    50.00 Ry     beta= 0.60
     Davidson diagonalization with overlap
     ethr =  1.00E-02,  avg # of iterations =  6.3

     total cpu time spent up to now is     1611.9 secs

     total energy              =    -459.15195534 Ry
     Harris-Foulkes estimate   =    -501.13391191 Ry
     estimated scf accuracy    <     137.89976937 Ry

     iteration #  3     ecut=    50.00 Ry     beta= 0.60
     Davidson diagonalization with overlap
     ethr =  1.00E-02,  avg # of iterations =  5.0

     total cpu time spent up to now is     1665.5 secs

     total energy              =    -472.07717830 Ry
     Harris-Foulkes estimate   =    -473.84673026 Ry
     estimated scf accuracy    <       8.42077067 Ry

     iteration #  4     ecut=    50.00 Ry     beta= 0.60
     Davidson diagonalization with overlap
     ethr =  1.00E-02,  avg # of iterations =  1.0

     total cpu time spent up to now is     1693.0 secs

     total energy              =    -471.31298502 Ry
     Harris-Foulkes estimate   =    -472.25312507 Ry
     estimated scf accuracy    <       5.88554719 Ry

     iteration #  5     ecut=    50.00 Ry     beta= 0.60
     Davidson diagonalization with overlap
     ethr =  1.00E-02,  avg # of iterations =  1.0

     total cpu time spent up to now is     1721.6 secs

     total energy              =    -470.85448900 Ry
     Harris-Foulkes estimate   =    -471.41996921 Ry
     estimated scf accuracy    <       3.99497725 Ry

     iteration #  6     ecut=    50.00 Ry     beta= 0.60
     Davidson diagonalization with overlap
     ethr =  7.83E-03,  avg # of iterations =  1.0

     total cpu time spent up to now is     1748.5 secs

     total energy              =    -470.60301797 Ry
     Harris-Foulkes estimate   =    -470.90188050 Ry
     estimated scf accuracy    <       2.67566458 Ry

     iteration #  7     ecut=    50.00 Ry     beta= 0.60
     Davidson diagonalization with overlap
     ethr =  5.25E-03,  avg # of iterations =  1.6

     total cpu time spent up to now is     1776.7 secs

     total energy              =    -470.85295755 Ry
     Harris-Foulkes estimate   =    -470.65088753 Ry
     estimated scf accuracy    <       1.62654000 Ry

     iteration #  8     ecut=    50.00 Ry     beta= 0.60
     Davidson diagonalization with overlap
     ethr =  3.19E-03,  avg # of iterations =  1.0

     total cpu time spent up to now is     1803.7 secs

     total energy              =    -470.59657632 Ry
     Harris-Foulkes estimate   =    -470.87246943 Ry
     estimated scf accuracy    <       2.17119582 Ry

     iteration #  9     ecut=    50.00 Ry     beta= 0.60
     Davidson diagonalization with overlap
     ethr =  3.19E-03,  avg # of iterations =  1.0

     total cpu time spent up to now is     1830.6 secs

     total energy              =    -470.39493584 Ry
     Harris-Foulkes estimate   =    -470.61100208 Ry
     estimated scf accuracy    <       1.50073308 Ry

     iteration # 10     ecut=    50.00 Ry     beta= 0.60
     Davidson diagonalization with overlap
     ethr =  2.94E-03,  avg # of iterations =  2.5

     total cpu time spent up to now is     1860.9 secs

     total energy              =    -470.21973322 Ry
     Harris-Foulkes estimate   =    -470.44791933 Ry
     estimated scf accuracy    <       0.42236907 Ry

     iteration # 11     ecut=    50.00 Ry     beta= 0.60
     Davidson diagonalization with overlap
     ethr =  8.28E-04,  avg # of iterations =  4.5

     total cpu time spent up to now is     1911.3 secs

     total energy              =    -470.50505802 Ry
     Harris-Foulkes estimate   =    -470.96087358 Ry
     estimated scf accuracy    <      12.52362203 Ry

     iteration # 12     ecut=    50.00 Ry     beta= 0.60
     Davidson diagonalization with overlap
     ethr =  8.28E-04,  avg # of iterations =  2.2

     total cpu time spent up to now is     1943.0 secs

     total energy              =    -470.59824772 Ry
     Harris-Foulkes estimate   =    -470.60092203 Ry
     estimated scf accuracy    <       4.37799202 Ry

     iteration # 13     ecut=    50.00 Ry     beta= 0.60
     Davidson diagonalization with overlap
     ethr =  8.28E-04,  avg # of iterations =  1.0

     total cpu time spent up to now is     1972.0 secs

     total energy              =    -470.80150704 Ry
     Harris-Foulkes estimate   =    -470.60156889 Ry
     estimated scf accuracy    <       4.31311582 Ry

     iteration # 14     ecut=    50.00 Ry     beta= 0.60
     Davidson diagonalization with overlap
     ethr =  8.28E-04,  avg # of iterations =  1.1

     total cpu time spent up to now is     2001.0 secs

     total energy              =    -470.55166844 Ry
     Harris-Foulkes estimate   =    -470.84551832 Ry
     estimated scf accuracy    <       9.25929794 Ry

     iteration # 15     ecut=    50.00 Ry     beta= 0.60
     Davidson diagonalization with overlap
     ethr =  8.28E-04,  avg # of iterations =  1.0

     total cpu time spent up to now is     2034.5 secs

     total energy              =    -470.51743286 Ry
     Harris-Foulkes estimate   =    -470.60070423 Ry
     estimated scf accuracy    <       4.21427385 Ry

     iteration # 16     ecut=    50.00 Ry     beta= 0.60
     Davidson diagonalization with overlap
     ethr =  8.28E-04,  avg # of iterations =  1.3

     total cpu time spent up to now is     2062.3 secs

     total energy              =    -470.62067543 Ry
     Harris-Foulkes estimate   =    -470.53076770 Ry
     estimated scf accuracy    <       2.51589723 Ry

     iteration # 17     ecut=    50.00 Ry     beta= 0.60
     Davidson diagonalization with overlap
     ethr =  8.28E-04,  avg # of iterations =  1.0

     total cpu time spent up to now is     2089.5 secs

     total energy              =    -470.22114949 Ry
     Harris-Foulkes estimate   =    -470.63798640 Ry
     estimated scf accuracy    <       4.55965449 Ry

     iteration # 18     ecut=    50.00 Ry     beta= 0.60
     Davidson diagonalization with overlap
     ethr =  8.28E-04,  avg # of iterations =  4.5

     total cpu time spent up to now is     2126.3 secs

     total energy              =    -470.43593296 Ry
     Harris-Foulkes estimate   =    -470.43606277 Ry
     estimated scf accuracy    <       0.03827486 Ry

     iteration # 19     ecut=    50.00 Ry     beta= 0.60
     Davidson diagonalization with overlap
     ethr =  7.50E-05,  avg # of iterations =  7.2

     total cpu time spent up to now is     2178.1 secs

     total energy              =    -470.44903100 Ry
     Harris-Foulkes estimate   =    -470.44486223 Ry
     estimated scf accuracy    <       0.07267551 Ry

     iteration # 20     ecut=    50.00 Ry     beta= 0.60
     Davidson diagonalization with overlap
     ethr =  7.50E-05,  avg # of iterations =  1.3

     total cpu time spent up to now is     2206.2 secs

     total energy              =    -470.44359055 Ry
     Harris-Foulkes estimate   =    -470.45039267 Ry
     estimated scf accuracy    <       0.12601137 Ry

     iteration # 21     ecut=    50.00 Ry     beta= 0.60
     Davidson diagonalization with overlap
     ethr =  7.50E-05,  avg # of iterations =  1.0

     total cpu time spent up to now is     2233.9 secs

     total energy              =    -470.44141823 Ry
     Harris-Foulkes estimate   =    -470.44462209 Ry
     estimated scf accuracy    <       0.08155607 Ry

     iteration # 22     ecut=    50.00 Ry     beta= 0.60
     Davidson diagonalization with overlap
     ethr =  7.50E-05,  avg # of iterations =  1.0

     total cpu time spent up to now is     2261.3 secs

     total energy              =    -470.44781473 Ry
     Harris-Foulkes estimate   =    -470.44202163 Ry
     estimated scf accuracy    <       0.05737168 Ry

     iteration # 23     ecut=    50.00 Ry     beta= 0.60
     Davidson diagonalization with overlap
     ethr =  7.50E-05,  avg # of iterations =  1.1

     total cpu time spent up to now is     2289.1 secs

     total energy              =    -470.41870000 Ry
     Harris-Foulkes estimate   =    -470.44926118 Ry
     estimated scf accuracy    <       0.08276487 Ry

     iteration # 24     ecut=    50.00 Ry     beta= 0.60
     Davidson diagonalization with overlap
     ethr =  7.50E-05,  avg # of iterations =  3.0

     total cpu time spent up to now is     2327.3 secs

     total energy              =    -470.42810725 Ry
     Harris-Foulkes estimate   =    -470.43029201 Ry
     estimated scf accuracy    <       0.02001908 Ry

     iteration # 25     ecut=    50.00 Ry     beta= 0.60
     Davidson diagonalization with overlap
     ethr =  3.93E-05,  avg # of iterations =  3.2

     total cpu time spent up to now is     2362.7 secs

     total energy              =    -470.42895571 Ry
     Harris-Foulkes estimate   =    -470.42934685 Ry
     estimated scf accuracy    <       0.00120232 Ry

     iteration # 26     ecut=    50.00 Ry     beta= 0.60
     Davidson diagonalization with overlap
     ethr =  2.36E-06,  avg # of iterations =  6.5

     total cpu time spent up to now is     2419.5 secs

     total energy              =    -470.42928133 Ry
     Harris-Foulkes estimate   =    -470.42930401 Ry
     estimated scf accuracy    <       0.00010232 Ry

     iteration # 27     ecut=    50.00 Ry     beta= 0.60
     Davidson diagonalization with overlap
     ethr =  2.01E-07,  avg # of iterations =  3.4

     total cpu time spent up to now is     2459.3 secs

     total energy              =    -470.42926843 Ry
     Harris-Foulkes estimate   =    -470.42930096 Ry
     estimated scf accuracy    <       0.00017088 Ry

     iteration # 28     ecut=    50.00 Ry     beta= 0.60
     Davidson diagonalization with overlap
     ethr =  2.01E-07,  avg # of iterations =  3.7

     total cpu time spent up to now is     2493.8 secs

     total energy              =    -470.42928529 Ry
     Harris-Foulkes estimate   =    -470.42929280 Ry
     estimated scf accuracy    <       0.00004778 Ry

     iteration # 29     ecut=    50.00 Ry     beta= 0.60
     Davidson diagonalization with overlap
     ethr =  9.37E-08,  avg # of iterations =  1.9

     total cpu time spent up to now is     2522.8 secs

     total energy              =    -470.42928939 Ry
     Harris-Foulkes estimate   =    -470.42928941 Ry
     estimated scf accuracy    <       0.00000022 Ry

     iteration # 30     ecut=    50.00 Ry     beta= 0.60
     Davidson diagonalization with overlap
     ethr =  4.40E-10,  avg # of iterations =  5.3

     total cpu time spent up to now is     2574.5 secs

     total energy              =    -470.42929014 Ry
     Harris-Foulkes estimate   =    -470.42929026 Ry
     estimated scf accuracy    <       0.00000112 Ry

     iteration # 31     ecut=    50.00 Ry     beta= 0.60
     Davidson diagonalization with overlap
     ethr =  4.40E-10,  avg # of iterations =  3.3

     total cpu time spent up to now is     2613.3 secs

     total energy              =    -470.42929016 Ry
     Harris-Foulkes estimate   =    -470.42929018 Ry
     estimated scf accuracy    <       0.00000015 Ry

     iteration # 32     ecut=    50.00 Ry     beta= 0.60
     Davidson diagonalization with overlap
     ethr =  2.92E-10,  avg # of iterations =  1.8

     total cpu time spent up to now is     2644.2 secs

     total energy              =    -470.42929017 Ry
     Harris-Foulkes estimate   =    -470.42929017 Ry
     estimated scf accuracy    <       0.00000002 Ry

     iteration # 33     ecut=    50.00 Ry     beta= 0.60
     Davidson diagonalization with overlap
     ethr =  2.95E-11,  avg # of iterations =  4.1

     total cpu time spent up to now is     2688.1 secs

     total energy              =    -470.42929017 Ry
     Harris-Foulkes estimate   =    -470.42929017 Ry
     estimated scf accuracy    <          6.1E-09 Ry

     iteration # 34     ecut=    50.00 Ry     beta= 0.60
     Davidson diagonalization with overlap
     ethr =  1.19E-11,  avg # of iterations =  1.0

     total cpu time spent up to now is     2716.2 secs

     total energy              =    -470.42929017 Ry
     Harris-Foulkes estimate   =    -470.42929017 Ry
     estimated scf accuracy    <          1.2E-09 Ry

     iteration # 35     ecut=    50.00 Ry     beta= 0.60
     Davidson diagonalization with overlap
     ethr =  2.37E-12,  avg # of iterations =  3.4

     total cpu time spent up to now is     2750.0 secs

     End of self-consistent calculation

     Number of k-points >= 100: set verbosity='high' to print the bands.

     the Fermi energy is    15.1690 ev

!    total energy              =    -470.42929017 Ry
     Harris-Foulkes estimate   =    -470.42929017 Ry
     estimated scf accuracy    <          6.9E-11 Ry

     The total energy is the sum of the following terms:

     one-electron contribution =    -104.94554807 Ry
     hartree contribution      =      73.64283248 Ry
     xc contribution           =     -69.51062181 Ry
     ewald contribution        =    -369.61586262 Ry
     smearing contrib. (-TS)   =      -0.00009015 Ry

     convergence has been achieved in  35 iterations

     Forces acting on atoms (cartesian axes, Ry/au):

     atom    1 type  2   force =     0.00000000    0.00000000    0.00000000
     atom    2 type  1   force =    -0.00611578   -0.00611578    0.00639982
     atom    3 type  1   force =     0.00000000    0.00000000    0.00000000
     atom    4 type  1   force =     0.00611578    0.00611578   -0.00639982

     Total force =     0.015216     Total SCF correction =     0.000024


     Computing stress (Cartesian axis) and pressure

          total   stress  (Ry/bohr**3)                   (kbar)     P= -115.55
  -0.00078217   0.00000016   0.00001975       -115.06      0.02      2.91
   0.00000016  -0.00078217   0.00001975          0.02   -115.06      2.91
   0.00001975   0.00001975  -0.00079219          2.91      2.91   -116.53


     number of scf cycles    =   2
     number of bfgs steps    =   1

     enthalpy old            =    -470.3589143705 Ry
     enthalpy new            =    -470.4292901704 Ry

     CASE: enthalpy_new < enthalpy_old

     new trust radius        =       0.1784578977 bohr
     new conv_thr            =            1.0E-10 Ry

     new unit-cell volume =    467.06035 a.u.^3 (    69.21120 Ang^3 )
     density =      7.83557 g/cm^3

CELL_PARAMETERS (alat=  1.88972599)
   1.626916541   1.626916541  -1.623310895
  -3.259985347   3.259985347   0.000000000
   1.637434029   1.637434029   4.890970490

ATOMIC_POSITIONS (angstrom)
Ti      -1.627810062   4.892160632   1.633829798
Nb      -0.003023121   3.256962226   3.273753778
Nb       0.004365223   6.524335917   3.267659595
Nb       0.007388344   3.267373691  -0.006094183


     NEW-OLD atomic charge density approx. for the potential
     extrapolated charge   44.74086, renormalised to   51.00000

     total cpu time spent up to now is     2766.9 secs

     Self-consistent Calculation

     iteration #  1     ecut=    50.00 Ry     beta= 0.60
     Davidson diagonalization with overlap
     c_bands:  1 eigenvalues not converged
     c_bands:  1 eigenvalues not converged
     c_bands:  1 eigenvalues not converged
     c_bands:  1 eigenvalues not converged
     c_bands:  1 eigenvalues not converged
     c_bands:  1 eigenvalues not converged
     c_bands:  1 eigenvalues not converged
     c_bands:  1 eigenvalues not converged
     c_bands:  1 eigenvalues not converged
     c_bands:  1 eigenvalues not converged
     c_bands:  1 eigenvalues not converged
     c_bands:  1 eigenvalues not converged
     c_bands:  1 eigenvalues not converged
     c_bands:  1 eigenvalues not converged
     c_bands:  1 eigenvalues not converged
     c_bands:  1 eigenvalues not converged
     c_bands:  1 eigenvalues not converged
     c_bands:  1 eigenvalues not converged
     c_bands:  1 eigenvalues not converged
     c_bands:  1 eigenvalues not converged
     c_bands:  1 eigenvalues not converged
     c_bands:  1 eigenvalues not converged
     c_bands:  1 eigenvalues not converged
     c_bands:  1 eigenvalues not converged
     c_bands:  2 eigenvalues not converged
     c_bands:  1 eigenvalues not converged
     c_bands:  1 eigenvalues not converged
     c_bands:  1 eigenvalues not converged
     c_bands:  1 eigenvalues not converged
     c_bands:  1 eigenvalues not converged
     c_bands:  1 eigenvalues not converged
     c_bands:  1 eigenvalues not converged
     c_bands:  1 eigenvalues not converged
     c_bands:  1 eigenvalues not converged
     c_bands:  1 eigenvalues not converged
     c_bands:  1 eigenvalues not converged
     c_bands:  1 eigenvalues not converged
     c_bands:  1 eigenvalues not converged
     c_bands:  1 eigenvalues not converged
     c_bands:  1 eigenvalues not converged
     c_bands:  1 eigenvalues not converged
     c_bands:  1 eigenvalues not converged
     c_bands:  1 eigenvalues not converged
     c_bands:  2 eigenvalues not converged
     c_bands:  1 eigenvalues not converged
     c_bands:  1 eigenvalues not converged
     c_bands:  1 eigenvalues not converged
     c_bands:  1 eigenvalues not converged
     c_bands:  1 eigenvalues not converged
     c_bands:  1 eigenvalues not converged
     c_bands:  1 eigenvalues not converged
     c_bands:  2 eigenvalues not converged
     c_bands:  1 eigenvalues not converged
     c_bands:  1 eigenvalues not converged
     c_bands:  2 eigenvalues not converged
     c_bands:  1 eigenvalues not converged
     c_bands:  1 eigenvalues not converged
     c_bands:  1 eigenvalues not converged
     c_bands:  1 eigenvalues not converged
     c_bands:  1 eigenvalues not converged
     c_bands:  1 eigenvalues not converged
     c_bands:  1 eigenvalues not converged
     ethr =  1.00E-06,  avg # of iterations = 14.7

     total cpu time spent up to now is     2885.2 secs

     total energy              =    -451.60803795 Ry
     Harris-Foulkes estimate   =    -478.83146949 Ry
     estimated scf accuracy    <      20.81003120 Ry

     iteration #  2     ecut=    50.00 Ry     beta= 0.60
     Davidson diagonalization with overlap
     ethr =  1.00E-02,  avg # of iterations =  6.2

     total cpu time spent up to now is     2949.7 secs

     total energy              =    -462.17429925 Ry
     Harris-Foulkes estimate   =    -496.31087108 Ry
     estimated scf accuracy    <     109.78022718 Ry

     iteration #  3     ecut=    50.00 Ry     beta= 0.60
     Davidson diagonalization with overlap
     ethr =  1.00E-02,  avg # of iterations =  5.0

     total cpu time spent up to now is     3002.0 secs

     total energy              =    -471.82718140 Ry
     Harris-Foulkes estimate   =    -473.48323237 Ry
     estimated scf accuracy    <       7.76974473 Ry

     iteration #  4     ecut=    50.00 Ry     beta= 0.60
     Davidson diagonalization with overlap
     ethr =  1.00E-02,  avg # of iterations =  1.0

     total cpu time spent up to now is     3030.0 secs

     total energy              =    -470.83028893 Ry
     Harris-Foulkes estimate   =    -471.98538873 Ry
     estimated scf accuracy    <       5.35445639 Ry

     iteration #  5     ecut=    50.00 Ry     beta= 0.60
     Davidson diagonalization with overlap
     ethr =  1.00E-02,  avg # of iterations =  1.4

     total cpu time spent up to now is     3062.0 secs

     total energy              =    -470.68110032 Ry
     Harris-Foulkes estimate   =    -470.96837492 Ry
     estimated scf accuracy    <       2.74965704 Ry

     iteration #  6     ecut=    50.00 Ry     beta= 0.60
     Davidson diagonalization with overlap
     ethr =  5.39E-03,  avg # of iterations =  1.1

     total cpu time spent up to now is     3089.7 secs

     total energy              =    -470.56255228 Ry
     Harris-Foulkes estimate   =    -470.72120700 Ry
     estimated scf accuracy    <       1.96522779 Ry

     iteration #  7     ecut=    50.00 Ry     beta= 0.60
     Davidson diagonalization with overlap
     ethr =  3.85E-03,  avg # of iterations =  1.7

     total cpu time spent up to now is     3118.5 secs

     total energy              =    -470.81857386 Ry
     Harris-Foulkes estimate   =    -470.60015585 Ry
     estimated scf accuracy    <       1.21870405 Ry

     iteration #  8     ecut=    50.00 Ry     beta= 0.60
     Davidson diagonalization with overlap
     ethr =  2.39E-03,  avg # of iterations =  1.1

     total cpu time spent up to now is     3146.2 secs

     total energy              =    -470.57146278 Ry
     Harris-Foulkes estimate   =    -470.84334020 Ry
     estimated scf accuracy    <       1.91460681 Ry

     iteration #  9     ecut=    50.00 Ry     beta= 0.60
     Davidson diagonalization with overlap
     ethr =  2.39E-03,  avg # of iterations =  1.0

     total cpu time spent up to now is     3173.6 secs

     total energy              =    -470.42618488 Ry
     Harris-Foulkes estimate   =    -470.58765255 Ry
     estimated scf accuracy    <       1.23770338 Ry

     iteration # 10     ecut=    50.00 Ry     beta= 0.60
     Davidson diagonalization with overlap
     ethr =  2.39E-03,  avg # of iterations =  2.5

     total cpu time spent up to now is     3204.4 secs

     total energy              =    -470.30187842 Ry
     Harris-Foulkes estimate   =    -470.46875473 Ry
     estimated scf accuracy    <       0.36648947 Ry

     iteration # 11     ecut=    50.00 Ry     beta= 0.60
     Davidson diagonalization with overlap
     ethr =  7.19E-04,  avg # of iterations =  4.3

     total cpu time spent up to now is     3253.4 secs

     total energy              =    -470.54904542 Ry
     Harris-Foulkes estimate   =    -470.63989516 Ry
     estimated scf accuracy    <       3.70269705 Ry

     iteration # 12     ecut=    50.00 Ry     beta= 0.60
     Davidson diagonalization with overlap
     ethr =  7.19E-04,  avg # of iterations =  1.0

     total cpu time spent up to now is     3280.9 secs

     total energy              =    -470.57644387 Ry
     Harris-Foulkes estimate   =    -470.55801870 Ry
     estimated scf accuracy    <       2.34142436 Ry

     iteration # 13     ecut=    50.00 Ry     beta= 0.60
     Davidson diagonalization with overlap
     ethr =  7.19E-04,  avg # of iterations =  1.0

     total cpu time spent up to now is     3308.5 secs

     total energy              =    -470.64023545 Ry
     Harris-Foulkes estimate   =    -470.57744002 Ry
     estimated scf accuracy    <       2.63682905 Ry

     iteration # 14     ecut=    50.00 Ry     beta= 0.60
     Davidson diagonalization with overlap
     ethr =  7.19E-04,  avg # of iterations =  1.0

     total cpu time spent up to now is     3338.4 secs

     total energy              =    -470.68176012 Ry
     Harris-Foulkes estimate   =    -470.64599941 Ry
     estimated scf accuracy    <       3.67927743 Ry

     iteration # 15     ecut=    50.00 Ry     beta= 0.60
     Davidson diagonalization with overlap
     ethr =  7.19E-04,  avg # of iterations =  1.0

     total cpu time spent up to now is     3365.9 secs

     total energy              =    -470.89904701 Ry
     Harris-Foulkes estimate   =    -470.68463868 Ry
     estimated scf accuracy    <       4.39354749 Ry

     iteration # 16     ecut=    50.00 Ry     beta= 0.60
     Davidson diagonalization with overlap
     ethr =  7.19E-04,  avg # of iterations =  1.9

     total cpu time spent up to now is     3395.2 secs

     total energy              =    -470.40630478 Ry
     Harris-Foulkes estimate   =    -470.94362723 Ry
     estimated scf accuracy    <       9.09961340 Ry

     iteration # 17     ecut=    50.00 Ry     beta= 0.60
     Davidson diagonalization with overlap
     ethr =  7.19E-04,  avg # of iterations =  2.7

     total cpu time spent up to now is     3429.4 secs

     total energy              =    -470.57378904 Ry
     Harris-Foulkes estimate   =    -470.54744893 Ry
     estimated scf accuracy    <       2.00148280 Ry

     iteration # 18     ecut=    50.00 Ry     beta= 0.60
     Davidson diagonalization with overlap
     ethr =  7.19E-04,  avg # of iterations =  1.0

     total cpu time spent up to now is     3457.6 secs

     total energy              =    -470.27668907 Ry
     Harris-Foulkes estimate   =    -470.57623888 Ry
     estimated scf accuracy    <       2.44018379 Ry

     iteration # 19     ecut=    50.00 Ry     beta= 0.60
     Davidson diagonalization with overlap
     ethr =  7.19E-04,  avg # of iterations =  4.7

     total cpu time spent up to now is     3496.1 secs

     total energy              =    -470.44449303 Ry
     Harris-Foulkes estimate   =    -470.44787456 Ry
     estimated scf accuracy    <       0.02625350 Ry

     iteration # 20     ecut=    50.00 Ry     beta= 0.60
     Davidson diagonalization with overlap
     ethr =  5.15E-05,  avg # of iterations =  6.4

     total cpu time spent up to now is     3541.3 secs

     total energy              =    -470.44705944 Ry
     Harris-Foulkes estimate   =    -470.44735900 Ry
     estimated scf accuracy    <       0.00711463 Ry

     iteration # 21     ecut=    50.00 Ry     beta= 0.60
     Davidson diagonalization with overlap
     ethr =  1.40E-05,  avg # of iterations =  2.6

     total cpu time spent up to now is     3573.5 secs

     total energy              =    -470.44707863 Ry
     Harris-Foulkes estimate   =    -470.44725502 Ry
     estimated scf accuracy    <       0.00471377 Ry

     iteration # 22     ecut=    50.00 Ry     beta= 0.60
     Davidson diagonalization with overlap
     ethr =  9.24E-06,  avg # of iterations =  1.1

     total cpu time spent up to now is     3601.3 secs

     total energy              =    -470.44707390 Ry
     Harris-Foulkes estimate   =    -470.44711647 Ry
     estimated scf accuracy    <       0.00446777 Ry

     iteration # 23     ecut=    50.00 Ry     beta= 0.60
     Davidson diagonalization with overlap
     ethr =  8.76E-06,  avg # of iterations =  1.0

     total cpu time spent up to now is     3628.8 secs

     total energy              =    -470.44714627 Ry
     Harris-Foulkes estimate   =    -470.44708819 Ry
     estimated scf accuracy    <       0.00435394 Ry

     iteration # 24     ecut=    50.00 Ry     beta= 0.60
     Davidson diagonalization with overlap
     ethr =  8.54E-06,  avg # of iterations =  1.0

     total cpu time spent up to now is     3656.4 secs

     total energy              =    -470.44610905 Ry
     Harris-Foulkes estimate   =    -470.44715173 Ry
     estimated scf accuracy    <       0.00450837 Ry

     iteration # 25     ecut=    50.00 Ry     beta= 0.60
     Davidson diagonalization with overlap
     ethr =  8.54E-06,  avg # of iterations =  1.4

     total cpu time spent up to now is     3684.8 secs

     total energy              =    -470.44553027 Ry
     Harris-Foulkes estimate   =    -470.44625227 Ry
     estimated scf accuracy    <       0.00178109 Ry

     iteration # 26     ecut=    50.00 Ry     beta= 0.60
     Davidson diagonalization with overlap
     ethr =  3.49E-06,  avg # of iterations =  5.1

     total cpu time spent up to now is     3729.0 secs

     total energy              =    -470.44587153 Ry
     Harris-Foulkes estimate   =    -470.44592654 Ry
     estimated scf accuracy    <       0.00026981 Ry

     iteration # 27     ecut=    50.00 Ry     beta= 0.60
     Davidson diagonalization with overlap
     ethr =  5.29E-07,  avg # of iterations =  2.8

     total cpu time spent up to now is     3761.4 secs

     total energy              =    -470.44589939 Ry
     Harris-Foulkes estimate   =    -470.44590779 Ry
     estimated scf accuracy    <       0.00004481 Ry

     iteration # 28     ecut=    50.00 Ry     beta= 0.60
     Davidson diagonalization with overlap
     ethr =  8.79E-08,  avg # of iterations =  2.9

     total cpu time spent up to now is     3795.1 secs

     total energy              =    -470.44590531 Ry
     Harris-Foulkes estimate   =    -470.44590558 Ry
     estimated scf accuracy    <       0.00000109 Ry

     iteration # 29     ecut=    50.00 Ry     beta= 0.60
     Davidson diagonalization with overlap
     ethr =  2.14E-09,  avg # of iterations =  4.0

     total cpu time spent up to now is     3838.0 secs

     total energy              =    -470.44590573 Ry
     Harris-Foulkes estimate   =    -470.44590584 Ry
     estimated scf accuracy    <       0.00000056 Ry

     iteration # 30     ecut=    50.00 Ry     beta= 0.60
     Davidson diagonalization with overlap
     ethr =  1.11E-09,  avg # of iterations =  2.5

     total cpu time spent up to now is     3871.9 secs

     total energy              =    -470.44590578 Ry
     Harris-Foulkes estimate   =    -470.44590579 Ry
     estimated scf accuracy    <       0.00000003 Ry

     iteration # 31     ecut=    50.00 Ry     beta= 0.60
     Davidson diagonalization with overlap
     ethr =  5.57E-11,  avg # of iterations =  4.1

     total cpu time spent up to now is     3911.7 secs

     total energy              =    -470.44590579 Ry
     Harris-Foulkes estimate   =    -470.44590579 Ry
     estimated scf accuracy    <          5.5E-09 Ry

     iteration # 32     ecut=    50.00 Ry     beta= 0.60
     Davidson diagonalization with overlap
     ethr =  1.07E-11,  avg # of iterations =  3.7

     total cpu time spent up to now is     3947.5 secs

     total energy              =    -470.44590579 Ry
     Harris-Foulkes estimate   =    -470.44590579 Ry
     estimated scf accuracy    <          4.0E-09 Ry

     iteration # 33     ecut=    50.00 Ry     beta= 0.60
     Davidson diagonalization with overlap
     ethr =  7.83E-12,  avg # of iterations =  1.9

     total cpu time spent up to now is     3976.6 secs

     End of self-consistent calculation

     Number of k-points >= 100: set verbosity='high' to print the bands.

     the Fermi energy is    17.4202 ev

!    total energy              =    -470.44590579 Ry
     Harris-Foulkes estimate   =    -470.44590579 Ry
     estimated scf accuracy    <          5.6E-11 Ry

     The total energy is the sum of the following terms:

     one-electron contribution =     -83.74083436 Ry
     hartree contribution      =      67.71887800 Ry
     xc contribution           =     -69.98974559 Ry
     ewald contribution        =    -384.43394841 Ry
     smearing contrib. (-TS)   =      -0.00025544 Ry

     convergence has been achieved in  33 iterations

     Forces acting on atoms (cartesian axes, Ry/au):

     atom    1 type  2   force =     0.00000000    0.00000000    0.00000000
     atom    2 type  1   force =    -0.00792623   -0.00792623   -0.00025594
     atom    3 type  1   force =     0.00000000    0.00000000    0.00000000
     atom    4 type  1   force =     0.00792623    0.00792623    0.00025594

     Total force =     0.015857     Total SCF correction =     0.000015


     Computing stress (Cartesian axis) and pressure

          total   stress  (Ry/bohr**3)                   (kbar)     P=   49.49
   0.00033770   0.00001044   0.00000822         49.68      1.54      1.21
   0.00001044   0.00033770   0.00000822          1.54     49.68      1.21
   0.00000822   0.00000822   0.00033382          1.21      1.21     49.11


     number of scf cycles    =   3
     number of bfgs steps    =   2

     enthalpy old            =    -470.4292901704 Ry
     enthalpy new            =    -470.4459057938 Ry

     CASE: enthalpy_new < enthalpy_old

     new trust radius        =       0.0481493643 bohr
     new conv_thr            =            1.0E-10 Ry

     new unit-cell volume =    482.82534 a.u.^3 (    71.54733 Ang^3 )
     density =      7.57972 g/cm^3

CELL_PARAMETERS (alat=  1.88972599)
   1.645347561   1.645347561  -1.641496229
  -3.295663747   3.295663747   0.000000000
   1.655775581   1.655775581   4.945351152

ATOMIC_POSITIONS (angstrom)
Ti      -1.645102176   4.946225318   1.651927461
Nb      -0.004398888   3.291264859   3.309166848
Nb       0.005459396   6.596786890   3.303854923
Nb       0.009858284   3.305522031  -0.005311925


     NEW-OLD atomic charge density approx. for the potential
     extrapolated charge   52.63231, renormalised to   51.00000

     total cpu time spent up to now is     3994.8 secs

     Self-consistent Calculation

     iteration #  1     ecut=    50.00 Ry     beta= 0.60
     Davidson diagonalization with overlap
     c_bands:  1 eigenvalues not converged
     c_bands:  1 eigenvalues not converged
     ethr =  1.00E-06,  avg # of iterations = 12.6

     total cpu time spent up to now is     4087.4 secs

     total energy              =    -470.25532119 Ry
     Harris-Foulkes estimate   =    -468.43890117 Ry
     estimated scf accuracy    <       0.15192640 Ry

     iteration #  2     ecut=    50.00 Ry     beta= 0.60
     Davidson diagonalization with overlap
     ethr =  2.98E-04,  avg # of iterations =  6.5

     total cpu time spent up to now is     4150.6 secs

     total energy              =    -470.02581931 Ry
     Harris-Foulkes estimate   =    -470.88357286 Ry
     estimated scf accuracy    <       8.44119747 Ry

     iteration #  3     ecut=    50.00 Ry     beta= 0.60
     Davidson diagonalization with overlap
     ethr =  2.98E-04,  avg # of iterations =  5.2

     total cpu time spent up to now is     4204.1 secs

     total energy              =    -470.43739790 Ry
     Harris-Foulkes estimate   =    -470.49434915 Ry
     estimated scf accuracy    <       0.18913404 Ry

     iteration #  4     ecut=    50.00 Ry     beta= 0.60
     Davidson diagonalization with overlap
     ethr =  2.98E-04,  avg # of iterations =  2.1

     total cpu time spent up to now is     4235.4 secs

     total energy              =    -470.45347598 Ry
     Harris-Foulkes estimate   =    -470.45830212 Ry
     estimated scf accuracy    <       0.05184427 Ry

     iteration #  5     ecut=    50.00 Ry     beta= 0.60
     Davidson diagonalization with overlap
     ethr =  1.02E-04,  avg # of iterations =  1.5

     total cpu time spent up to now is     4266.8 secs

     total energy              =    -470.45349582 Ry
     Harris-Foulkes estimate   =    -470.45583642 Ry
     estimated scf accuracy    <       0.03955532 Ry

     iteration #  6     ecut=    50.00 Ry     beta= 0.60
     Davidson diagonalization with overlap
     ethr =  7.76E-05,  avg # of iterations =  1.0

     total cpu time spent up to now is     4294.2 secs

     total energy              =    -470.44960182 Ry
     Harris-Foulkes estimate   =    -470.45398081 Ry
     estimated scf accuracy    <       0.03166562 Ry

     iteration #  7     ecut=    50.00 Ry     beta= 0.60
     Davidson diagonalization with overlap
     ethr =  6.21E-05,  avg # of iterations =  1.0

     total cpu time spent up to now is     4321.5 secs

     total energy              =    -470.44842194 Ry
     Harris-Foulkes estimate   =    -470.45030079 Ry
     estimated scf accuracy    <       0.01461701 Ry

     iteration #  8     ecut=    50.00 Ry     beta= 0.60
     Davidson diagonalization with overlap
     ethr =  2.87E-05,  avg # of iterations =  1.7

     total cpu time spent up to now is     4349.8 secs

     total energy              =    -470.44859975 Ry
     Harris-Foulkes estimate   =    -470.44887131 Ry
     estimated scf accuracy    <       0.00565566 Ry

     iteration #  9     ecut=    50.00 Ry     beta= 0.60
     Davidson diagonalization with overlap
     ethr =  1.11E-05,  avg # of iterations =  2.1

     total cpu time spent up to now is     4383.0 secs

     total energy              =    -470.44841269 Ry
     Harris-Foulkes estimate   =    -470.44867681 Ry
     estimated scf accuracy    <       0.00398755 Ry

     iteration # 10     ecut=    50.00 Ry     beta= 0.60
     Davidson diagonalization with overlap
     ethr =  7.82E-06,  avg # of iterations =  1.5

     total cpu time spent up to now is     4411.3 secs

     total energy              =    -470.44815874 Ry
     Harris-Foulkes estimate   =    -470.44847645 Ry
     estimated scf accuracy    <       0.00230130 Ry

     iteration # 11     ecut=    50.00 Ry     beta= 0.60
     Davidson diagonalization with overlap
     ethr =  4.51E-06,  avg # of iterations =  3.4

     total cpu time spent up to now is     4445.0 secs

     total energy              =    -470.44830567 Ry
     Harris-Foulkes estimate   =    -470.44832179 Ry
     estimated scf accuracy    <       0.00007923 Ry

     iteration # 12     ecut=    50.00 Ry     beta= 0.60
     Davidson diagonalization with overlap
     ethr =  1.55E-07,  avg # of iterations =  4.8

     total cpu time spent up to now is     4489.9 secs

     total energy              =    -470.44833572 Ry
     Harris-Foulkes estimate   =    -470.44833991 Ry
     estimated scf accuracy    <       0.00004829 Ry

     iteration # 13     ecut=    50.00 Ry     beta= 0.60
     Davidson diagonalization with overlap
     ethr =  9.47E-08,  avg # of iterations =  1.0

     total cpu time spent up to now is     4517.0 secs

     total energy              =    -470.44833318 Ry
     Harris-Foulkes estimate   =    -470.44833649 Ry
     estimated scf accuracy    <       0.00001797 Ry

     iteration # 14     ecut=    50.00 Ry     beta= 0.60
     Davidson diagonalization with overlap
     ethr =  3.52E-08,  avg # of iterations =  3.5

     total cpu time spent up to now is     4550.5 secs

     total energy              =    -470.44833526 Ry
     Harris-Foulkes estimate   =    -470.44833549 Ry
     estimated scf accuracy    <       0.00000176 Ry

     iteration # 15     ecut=    50.00 Ry     beta= 0.60
     Davidson diagonalization with overlap
     ethr =  3.45E-09,  avg # of iterations =  3.3

     total cpu time spent up to now is     4585.9 secs

     total energy              =    -470.44833539 Ry
     Harris-Foulkes estimate   =    -470.44833550 Ry
     estimated scf accuracy    <       0.00000061 Ry

     iteration # 16     ecut=    50.00 Ry     beta= 0.60
     Davidson diagonalization with overlap
     ethr =  1.21E-09,  avg # of iterations =  3.3

     total cpu time spent up to now is     4619.1 secs

     total energy              =    -470.44833546 Ry
     Harris-Foulkes estimate   =    -470.44833546 Ry
     estimated scf accuracy    <       0.00000002 Ry

     iteration # 17     ecut=    50.00 Ry     beta= 0.60
     Davidson diagonalization with overlap
     ethr =  3.90E-11,  avg # of iterations =  3.9

     total cpu time spent up to now is     4662.9 secs

     total energy              =    -470.44833547 Ry
     Harris-Foulkes estimate   =    -470.44833547 Ry
     estimated scf accuracy    <       0.00000002 Ry

     iteration # 18     ecut=    50.00 Ry     beta= 0.60
     Davidson diagonalization with overlap
     ethr =  3.60E-11,  avg # of iterations =  1.0

     total cpu time spent up to now is     4689.9 secs

     total energy              =    -470.44833547 Ry
     Harris-Foulkes estimate   =    -470.44833547 Ry
     estimated scf accuracy    <          6.8E-09 Ry

     iteration # 19     ecut=    50.00 Ry     beta= 0.60
     Davidson diagonalization with overlap
     ethr =  1.34E-11,  avg # of iterations =  2.0

     total cpu time spent up to now is     4719.0 secs

     total energy              =    -470.44833547 Ry
     Harris-Foulkes estimate   =    -470.44833547 Ry
     estimated scf accuracy    <          1.1E-09 Ry

     iteration # 20     ecut=    50.00 Ry     beta= 0.60
     Davidson diagonalization with overlap
     ethr =  2.21E-12,  avg # of iterations =  3.8

     total cpu time spent up to now is     4756.1 secs

     total energy              =    -470.44833547 Ry
     Harris-Foulkes estimate   =    -470.44833547 Ry
     estimated scf accuracy    <          4.1E-10 Ry

     iteration # 21     ecut=    50.00 Ry     beta= 0.60
     Davidson diagonalization with overlap
     ethr =  8.13E-13,  avg # of iterations =  1.0

     total cpu time spent up to now is     4782.8 secs

     End of self-consistent calculation

     Number of k-points >= 100: set verbosity='high' to print the bands.

     the Fermi energy is    16.7610 ev

!    total energy              =    -470.44833547 Ry
     Harris-Foulkes estimate   =    -470.44833547 Ry
     estimated scf accuracy    <          6.8E-11 Ry

     The total energy is the sum of the following terms:

     one-electron contribution =     -89.75169375 Ry
     hartree contribution      =      69.36160041 Ry
     xc contribution           =     -69.84808998 Ry
     ewald contribution        =    -380.20996476 Ry
     smearing contrib. (-TS)   =      -0.00018739 Ry

     convergence has been achieved in  21 iterations

     Forces acting on atoms (cartesian axes, Ry/au):

     atom    1 type  2   force =     0.00000000    0.00000000    0.00000000
     atom    2 type  1   force =    -0.00660218   -0.00660218    0.00211137
     atom    3 type  1   force =     0.00000000    0.00000000    0.00000000
     atom    4 type  1   force =     0.00660218    0.00660218   -0.00211137

     Total force =     0.013538     Total SCF correction =     0.000006


     Computing stress (Cartesian axis) and pressure

          total   stress  (Ry/bohr**3)                   (kbar)     P=   -4.56
  -0.00002947   0.00000823   0.00001217         -4.34      1.21      1.79
   0.00000823  -0.00002947   0.00001217          1.21     -4.34      1.79
   0.00001217   0.00001217  -0.00003398          1.79      1.79     -5.00


     number of scf cycles    =   4
     number of bfgs steps    =   3

     enthalpy old            =    -470.4459057938 Ry
     enthalpy new            =    -470.4483354657 Ry

     CASE: enthalpy_new < enthalpy_old

     new trust radius        =       0.0085428649 bohr
     new conv_thr            =            1.0E-10 Ry

     new unit-cell volume =    481.63510 a.u.^3 (    71.37096 Ang^3 )
     density =      7.59845 g/cm^3

CELL_PARAMETERS (alat=  1.88972599)
   1.643894008   1.643894008  -1.639069051
  -3.292446371   3.292446371   0.000000000
   1.656225130   1.656225130   4.941879302

ATOMIC_POSITIONS (angstrom)
Ti      -1.642386802   4.942505940   1.651405126
Nb      -0.005927384   3.286518987   3.308123438
Nb       0.007672767   6.592565508   3.302810251
Nb       0.013600151   3.306046522  -0.005313187


     NEW-OLD atomic charge density approx. for the potential
     extrapolated charge   50.87646, renormalised to   51.00000

     total cpu time spent up to now is     4799.5 secs

     Self-consistent Calculation

     iteration #  1     ecut=    50.00 Ry     beta= 0.60
     Davidson diagonalization with overlap
     ethr =  1.00E-06,  avg # of iterations =  4.2

     total cpu time spent up to now is     4854.1 secs

     total energy              =    -470.44684798 Ry
     Harris-Foulkes estimate   =    -470.60197119 Ry
     estimated scf accuracy    <       0.00149697 Ry

     iteration #  2     ecut=    50.00 Ry     beta= 0.60
     Davidson diagonalization with overlap
     c_bands:  1 eigenvalues not converged
     c_bands:  1 eigenvalues not converged
     c_bands:  1 eigenvalues not converged
     c_bands:  1 eigenvalues not converged
     c_bands:  1 eigenvalues not converged
     c_bands:  1 eigenvalues not converged
     c_bands:  1 eigenvalues not converged
     c_bands:  1 eigenvalues not converged
     c_bands:  1 eigenvalues not converged
     c_bands:  1 eigenvalues not converged
     c_bands:  1 eigenvalues not converged
     c_bands:  2 eigenvalues not converged
     c_bands:  2 eigenvalues not converged
     c_bands:  1 eigenvalues not converged
     c_bands:  1 eigenvalues not converged
     c_bands:  1 eigenvalues not converged
     c_bands:  1 eigenvalues not converged
     ethr =  2.94E-06,  avg # of iterations =  8.4

     total cpu time spent up to now is     4917.4 secs

     total energy              =    -470.44527807 Ry
     Harris-Foulkes estimate   =    -470.45309053 Ry
     estimated scf accuracy    <       0.06133155 Ry

     iteration #  3     ecut=    50.00 Ry     beta= 0.60
     Davidson diagonalization with overlap
     ethr =  2.94E-06,  avg # of iterations =  5.4

     total cpu time spent up to now is     4970.0 secs

     total energy              =    -470.44853540 Ry
     Harris-Foulkes estimate   =    -470.44882214 Ry
     estimated scf accuracy    <       0.00082767 Ry

     iteration #  4     ecut=    50.00 Ry     beta= 0.60
     Davidson diagonalization with overlap
     ethr =  1.62E-06,  avg # of iterations =  2.0

     total cpu time spent up to now is     4999.6 secs

     total energy              =    -470.44855849 Ry
     Harris-Foulkes estimate   =    -470.44860810 Ry
     estimated scf accuracy    <       0.00062867 Ry

     iteration #  5     ecut=    50.00 Ry     beta= 0.60
     Davidson diagonalization with overlap
     ethr =  1.23E-06,  avg # of iterations =  1.0

     total cpu time spent up to now is     5027.1 secs

     total energy              =    -470.44853755 Ry
     Harris-Foulkes estimate   =    -470.44857357 Ry
     estimated scf accuracy    <       0.00040680 Ry

     iteration #  6     ecut=    50.00 Ry     beta= 0.60
     Davidson diagonalization with overlap
     ethr =  7.98E-07,  avg # of iterations =  1.0

     total cpu time spent up to now is     5054.5 secs

     total energy              =    -470.44849317 Ry
     Harris-Foulkes estimate   =    -470.44854423 Ry
     estimated scf accuracy    <       0.00021268 Ry

     iteration #  7     ecut=    50.00 Ry     beta= 0.60
     Davidson diagonalization with overlap
     ethr =  4.17E-07,  avg # of iterations =  3.0

     total cpu time spent up to now is     5087.8 secs

     total energy              =    -470.44851945 Ry
     Harris-Foulkes estimate   =    -470.44851959 Ry
     estimated scf accuracy    <       0.00000138 Ry

     iteration #  8     ecut=    50.00 Ry     beta= 0.60
     Davidson diagonalization with overlap
     ethr =  2.71E-09,  avg # of iterations =  5.1

     total cpu time spent up to now is     5137.5 secs

     total energy              =    -470.44852099 Ry
     Harris-Foulkes estimate   =    -470.44852124 Ry
     estimated scf accuracy    <       0.00000312 Ry

     iteration #  9     ecut=    50.00 Ry     beta= 0.60
     Davidson diagonalization with overlap
     ethr =  2.71E-09,  avg # of iterations =  1.0

     total cpu time spent up to now is     5164.6 secs

     total energy              =    -470.44852093 Ry
     Harris-Foulkes estimate   =    -470.44852103 Ry
     estimated scf accuracy    <       0.00000115 Ry

     iteration # 10     ecut=    50.00 Ry     beta= 0.60
     Davidson diagonalization with overlap
     ethr =  2.25E-09,  avg # of iterations =  2.8

     total cpu time spent up to now is     5196.0 secs

     total energy              =    -470.44852094 Ry
     Harris-Foulkes estimate   =    -470.44852100 Ry
     estimated scf accuracy    <       0.00000012 Ry

     iteration # 11     ecut=    50.00 Ry     beta= 0.60
     Davidson diagonalization with overlap
     ethr =  2.44E-10,  avg # of iterations =  4.2

     total cpu time spent up to now is     5238.7 secs

     total energy              =    -470.44852097 Ry
     Harris-Foulkes estimate   =    -470.44852099 Ry
     estimated scf accuracy    <       0.00000018 Ry

     iteration # 12     ecut=    50.00 Ry     beta= 0.60
     Davidson diagonalization with overlap
     ethr =  2.44E-10,  avg # of iterations =  1.0

     total cpu time spent up to now is     5266.5 secs

     total energy              =    -470.44852097 Ry
     Harris-Foulkes estimate   =    -470.44852098 Ry
     estimated scf accuracy    <       0.00000004 Ry

     iteration # 13     ecut=    50.00 Ry     beta= 0.60
     Davidson diagonalization with overlap
     ethr =  7.12E-11,  avg # of iterations =  3.3

     total cpu time spent up to now is     5300.2 secs

     total energy              =    -470.44852098 Ry
     Harris-Foulkes estimate   =    -470.44852098 Ry
     estimated scf accuracy    <          3.0E-09 Ry

     iteration # 14     ecut=    50.00 Ry     beta= 0.60
     Davidson diagonalization with overlap
     ethr =  5.86E-12,  avg # of iterations =  4.0

     total cpu time spent up to now is     5339.8 secs

     total energy              =    -470.44852098 Ry
     Harris-Foulkes estimate   =    -470.44852098 Ry
     estimated scf accuracy    <          2.9E-10 Ry

     iteration # 15     ecut=    50.00 Ry     beta= 0.60
     Davidson diagonalization with overlap
     ethr =  5.70E-13,  avg # of iterations =  3.9

     total cpu time spent up to now is     5383.9 secs

     total energy              =    -470.44852098 Ry
     Harris-Foulkes estimate   =    -470.44852098 Ry
     estimated scf accuracy    <          7.1E-10 Ry

     iteration # 16     ecut=    50.00 Ry     beta= 0.60
     Davidson diagonalization with overlap
     ethr =  5.70E-13,  avg # of iterations =  2.1

     total cpu time spent up to now is     5413.7 secs

     End of self-consistent calculation

     Number of k-points >= 100: set verbosity='high' to print the bands.

     the Fermi energy is    16.8092 ev

!    total energy              =    -470.44852098 Ry
     Harris-Foulkes estimate   =    -470.44852098 Ry
     estimated scf accuracy    <          5.4E-11 Ry

     The total energy is the sum of the following terms:

     one-electron contribution =     -89.29926548 Ry
     hartree contribution      =      69.23472535 Ry
     xc contribution           =     -69.85830290 Ry
     ewald contribution        =    -380.52550306 Ry
     smearing contrib. (-TS)   =      -0.00017489 Ry

     convergence has been achieved in  16 iterations

     Forces acting on atoms (cartesian axes, Ry/au):

     atom    1 type  2   force =     0.00000000    0.00000000    0.00000000
     atom    2 type  1   force =    -0.00589864   -0.00589864    0.00217405
     atom    3 type  1   force =     0.00000000    0.00000000    0.00000000
     atom    4 type  1   force =     0.00589864    0.00589864   -0.00217405

     Total force =     0.012191     Total SCF correction =     0.000016


     Computing stress (Cartesian axis) and pressure

          total   stress  (Ry/bohr**3)                   (kbar)     P=   -0.85
  -0.00000498   0.00000910   0.00001117         -0.73      1.34      1.64
   0.00000910  -0.00000498   0.00001117          1.34     -0.73      1.64
   0.00001117   0.00001117  -0.00000736          1.64      1.64     -1.08


     number of scf cycles    =   5
     number of bfgs steps    =   4

     enthalpy old            =    -470.4483354657 Ry
     enthalpy new            =    -470.4485209768 Ry

     CASE: enthalpy_new < enthalpy_old

     new trust radius        =       0.0128042980 bohr
     new conv_thr            =            1.0E-10 Ry

     new unit-cell volume =    480.99219 a.u.^3 (    71.27569 Ang^3 )
     density =      7.60861 g/cm^3

CELL_PARAMETERS (alat=  1.88972599)
   1.643061581   1.643061581  -1.636767929
  -3.290009146   3.290009146   0.000000000
   1.658271556   1.658271556   4.940738806

ATOMIC_POSITIONS (angstrom)
Ti      -1.639342577   4.940675714   1.651985439
Nb      -0.008034130   3.281975016   3.309401616
Nb       0.011323991   6.591342283   3.303970878
Nb       0.019358121   3.309367267  -0.005430738


     NEW-OLD atomic charge density approx. for the potential
     extrapolated charge   50.93318, renormalised to   51.00000

     total cpu time spent up to now is     5430.4 secs

     Self-consistent Calculation

     iteration #  1     ecut=    50.00 Ry     beta= 0.60
     Davidson diagonalization with overlap
     ethr =  1.00E-06,  avg # of iterations =  4.0

     total cpu time spent up to now is     5491.1 secs

     total energy              =    -470.44821753 Ry
     Harris-Foulkes estimate   =    -470.53149407 Ry
     estimated scf accuracy    <       0.00048330 Ry

     iteration #  2     ecut=    50.00 Ry     beta= 0.60
     Davidson diagonalization with overlap
     c_bands:  1 eigenvalues not converged
     c_bands:  1 eigenvalues not converged
     ethr =  9.48E-07,  avg # of iterations =  6.3

     total cpu time spent up to now is     5551.5 secs

     total energy              =    -470.44757302 Ry
     Harris-Foulkes estimate   =    -470.45030066 Ry
     estimated scf accuracy    <       0.02226866 Ry

     iteration #  3     ecut=    50.00 Ry     beta= 0.60
     Davidson diagonalization with overlap
     ethr =  9.48E-07,  avg # of iterations =  5.0

     total cpu time spent up to now is     5603.1 secs

     total energy              =    -470.44873989 Ry
     Harris-Foulkes estimate   =    -470.44881698 Ry
     estimated scf accuracy    <       0.00023346 Ry

     iteration #  4     ecut=    50.00 Ry     beta= 0.60
     Davidson diagonalization with overlap
     ethr =  4.58E-07,  avg # of iterations =  1.7

     total cpu time spent up to now is     5631.7 secs

     total energy              =    -470.44872966 Ry
     Harris-Foulkes estimate   =    -470.44875595 Ry
     estimated scf accuracy    <       0.00017125 Ry

     iteration #  5     ecut=    50.00 Ry     beta= 0.60
     Davidson diagonalization with overlap
     ethr =  3.36E-07,  avg # of iterations =  2.0

     total cpu time spent up to now is     5661.4 secs

     total energy              =    -470.44873059 Ry
     Harris-Foulkes estimate   =    -470.44873791 Ry
     estimated scf accuracy    <       0.00004855 Ry

     iteration #  6     ecut=    50.00 Ry     beta= 0.60
     Davidson diagonalization with overlap
     ethr =  9.52E-08,  avg # of iterations =  2.0

     total cpu time spent up to now is     5690.9 secs

     total energy              =    -470.44873120 Ry
     Harris-Foulkes estimate   =    -470.44873423 Ry
     estimated scf accuracy    <       0.00001371 Ry

     iteration #  7     ecut=    50.00 Ry     beta= 0.60
     Davidson diagonalization with overlap
     ethr =  2.69E-08,  avg # of iterations =  3.7

     total cpu time spent up to now is     5728.1 secs

     total energy              =    -470.44873372 Ry
     Harris-Foulkes estimate   =    -470.44873427 Ry
     estimated scf accuracy    <       0.00000320 Ry

     iteration #  8     ecut=    50.00 Ry     beta= 0.60
     Davidson diagonalization with overlap
     ethr =  6.27E-09,  avg # of iterations =  2.0

     total cpu time spent up to now is     5758.8 secs

     total energy              =    -470.44873378 Ry
     Harris-Foulkes estimate   =    -470.44873389 Ry
     estimated scf accuracy    <       0.00000058 Ry

     iteration #  9     ecut=    50.00 Ry     beta= 0.60
     Davidson diagonalization with overlap
     ethr =  1.14E-09,  avg # of iterations =  3.8

     total cpu time spent up to now is     5798.4 secs

     total energy              =    -470.44873388 Ry
     Harris-Foulkes estimate   =    -470.44873389 Ry
     estimated scf accuracy    <       0.00000005 Ry

     iteration # 10     ecut=    50.00 Ry     beta= 0.60
     Davidson diagonalization with overlap
     ethr =  9.41E-11,  avg # of iterations =  2.8

     total cpu time spent up to now is     5830.5 secs

     total energy              =    -470.44873389 Ry
     Harris-Foulkes estimate   =    -470.44873389 Ry
     estimated scf accuracy    <          4.0E-09 Ry

     iteration # 11     ecut=    50.00 Ry     beta= 0.60
     Davidson diagonalization with overlap
     ethr =  7.77E-12,  avg # of iterations =  3.8

     total cpu time spent up to now is     5872.9 secs

     total energy              =    -470.44873389 Ry
     Harris-Foulkes estimate   =    -470.44873389 Ry
     estimated scf accuracy    <          1.5E-10 Ry

     iteration # 12     ecut=    50.00 Ry     beta= 0.60
     Davidson diagonalization with overlap
     ethr =  2.85E-13,  avg # of iterations =  4.0

     total cpu time spent up to now is     5916.6 secs

     End of self-consistent calculation

     Number of k-points >= 100: set verbosity='high' to print the bands.

     the Fermi energy is    16.8356 ev

!    total energy              =    -470.44873389 Ry
     Harris-Foulkes estimate   =    -470.44873389 Ry
     estimated scf accuracy    <          1.1E-11 Ry

     The total energy is the sum of the following terms:

[...]

     total energy              =    -470.44928497 Ry
     Harris-Foulkes estimate   =    -470.44928497 Ry
     estimated scf accuracy    <          7.0E-12 Ry

     iteration # 10     ecut=    50.00 Ry     beta= 0.60
     Davidson diagonalization with overlap
     ethr =  1.00E-13,  avg # of iterations =  1.2

     total cpu time spent up to now is    12269.0 secs

     End of self-consistent calculation

     Number of k-points >= 100: set verbosity='high' to print the bands.

     the Fermi energy is    16.8182 ev

!    total energy              =    -470.44928497 Ry
     Harris-Foulkes estimate   =    -470.44928497 Ry
     estimated scf accuracy    <          1.7E-13 Ry

     The total energy is the sum of the following terms:

     one-electron contribution =     -89.31686092 Ry
     hartree contribution      =      69.24494335 Ry
     xc contribution           =     -69.86048170 Ry
     ewald contribution        =    -380.51668814 Ry
     smearing contrib. (-TS)   =      -0.00019756 Ry

     convergence has been achieved in  10 iterations

     Forces acting on atoms (cartesian axes, Ry/au):

     atom    1 type  2   force =     0.00000000    0.00000000    0.00000000
     atom    2 type  1   force =     0.00000198    0.00000198   -0.00000005
     atom    3 type  1   force =     0.00000000    0.00000000    0.00000000
     atom    4 type  1   force =    -0.00000198   -0.00000198    0.00000005

     Total force =     0.000004     Total SCF correction =     0.000001
     SCF correction compared to forces is large: reduce conv_thr to get better values


     Computing stress (Cartesian axis) and pressure

          total   stress  (Ry/bohr**3)                   (kbar)     P=    0.00
   0.00000017   0.00000019   0.00000002          0.03      0.03      0.00
   0.00000019   0.00000017   0.00000002          0.03      0.03      0.00
   0.00000002   0.00000002  -0.00000031          0.00      0.00     -0.05


     bfgs converged in  19 scf cycles and  18 bfgs steps
     (criteria: energy <  1.0E-10 Ry, force <  1.0E-05Ry/Bohr, cell <  1.0E-03kbar)

     End of BFGS Geometry Optimization

     Final enthalpy =    -470.4492849666 Ry
Begin final coordinates
     new unit-cell volume =    481.55408 a.u.^3 (    71.35895 Ang^3 )
     density =      7.59973 g/cm^3

CELL_PARAMETERS (alat=  1.88972599)
   1.646823041   1.646823041  -1.633619357
  -3.272484228   3.272484228   0.000000000
   1.675579075   1.675579075   4.958405136

ATOMIC_POSITIONS (angstrom)
Ti      -1.611283170   4.933685286   1.662392889
Nb      -0.008594946   3.263889282   3.341497949
Nb       0.049917888   6.594886344   3.324785779
Nb       0.058512834   3.330997062  -0.016712170
End final coordinates



     A final scf calculation at the relaxed structure.
     The G-vectors are recalculated for the final unit cell
     Results may differ from those at the preceding step.
 
     Parallelization info
     --------------------
     sticks:   dense  smooth     PW     G-vecs:    dense   smooth      PW
     Min         469     188     56                22739     5757     965
     Max         470     189     57                22742     5759     968
     Sum        1877     755    225                90961    23033    3865
 


     bravais-lattice index     =            0
     lattice parameter (alat)  =       1.8897  a.u.
     unit-cell volume          =     481.5541 (a.u.)^3
     number of atoms/cell      =            4
     number of atomic types    =            2
     number of electrons       =        51.00
     number of Kohn-Sham states=           31
     kinetic-energy cutoff     =      50.0000  Ry
     charge density cutoff     =     500.0000  Ry
     convergence threshold     =      1.0E-12
     mixing beta               =       0.6000
     number of iterations used =            8  plain     mixing
     Exchange-correlation      = SLA PW PBE PBE ( 1  4  3  4 0 0)

     celldm(1)=   1.889726  celldm(2)=   0.000000  celldm(3)=   0.000000
     celldm(4)=   0.000000  celldm(5)=   0.000000  celldm(6)=   0.000000

     crystal axes: (cart. coord. in units of alat)
               a(1) = (   1.646823   1.646823  -1.633619 )  
               a(2) = (  -3.272484   3.272484   0.000000 )  
               a(3) = (   1.675579   1.675579   4.958405 )  

     reciprocal axes: (cart. coord. in units 2 pi/alat)
               b(1) = (  0.227390  0.227390 -0.153682 )  
               b(2) = ( -0.152789  0.152789  0.000000 )  
               b(3) = (  0.074917  0.074917  0.151045 )  


     PseudoPot. # 1 for Nb read from file:
     /home/u16/abhishekkt/fp/krishna/calculations/pseudopotentials/Nb.pbe-nsp-van.UPF
     MD5 check sum: c44c1a86bf31974e1e832c2ec821fd5f
     Pseudo is Ultrasoft + core correction, Zval = 13.0
     Generated by new atomic code, or converted to UPF format
     Using radial grid of  887 points,  6 beta functions with: 
                l(1) =   0
                l(2) =   0
                l(3) =   1
                l(4) =   1
                l(5) =   2
                l(6) =   2
     Q(r) pseudized with  6 coefficients,  rinner =    1.000   1.000   1.000
                                                       1.000   1.000

     PseudoPot. # 2 for Ti read from file:
     /home/u16/abhishekkt/fp/krishna/calculations/pseudopotentials/Ti.pbe-sp-van_ak.UPF
     MD5 check sum: 84d3ec9e8983e94242673103c800fb48
     Pseudo is Ultrasoft, Zval = 12.0
     Generated by new atomic code, or converted to UPF format
     Using radial grid of  851 points,  6 beta functions with: 
                l(1) =   0
                l(2) =   0
                l(3) =   1
                l(4) =   1
                l(5) =   2
                l(6) =   2
     Q(r) pseudized with  8 coefficients,  rinner =    1.000   1.000   1.000
                                                       1.000   1.000

     atomic species   valence    mass     pseudopotential
        Nb            13.00    92.90638     Nb( 1.00)
        Ti            12.00    47.86700     Ti( 1.00)

      4 Sym. Ops., with inversion, found



   Cartesian axes

     site n.     atom                  positions (alat units)
         1           Ti  tau(   1) = (  -1.6112833   4.9336857   1.6623930  )
         2           Nb  tau(   2) = (  -0.0085949   3.2638895   3.3414982  )
         3           Nb  tau(   3) = (   0.0499179   6.5948868   3.3247860  )
         4           Nb  tau(   4) = (   0.0585128   3.3309973  -0.0167122  )

     number of k points=   576  Marzari-Vanderbilt smearing, width (Ry)=  0.0200

     Number of k-points >= 100: set verbosity='high' to print them.

     Dense  grid:    90961 G-vectors     FFT dimensions: (  40,  64,  75)

     Smooth grid:    23033 G-vectors     FFT dimensions: (  25,  40,  48)

     Estimated max dynamical RAM per process >     282.45 MB

     Estimated total dynamical RAM >       1.10 GB

     Initial potential from superposition of free atoms

     starting charge   49.99176, renormalised to   51.00000
     Starting wfcs are   49 randomized atomic wfcs

     total cpu time spent up to now is    12297.9 secs

     Self-consistent Calculation

     iteration #  1     ecut=    50.00 Ry     beta= 0.60
     Davidson diagonalization with overlap
     c_bands:  2 eigenvalues not converged
     ethr =  1.00E-06,  avg # of iterations = 10.4

     total cpu time spent up to now is    12387.9 secs

     total energy              =    -452.17912895 Ry
     Harris-Foulkes estimate   =    -472.40201997 Ry
     estimated scf accuracy    <      25.24138230 Ry

     iteration #  2     ecut=    50.00 Ry     beta= 0.60
     Davidson diagonalization with overlap
     ethr =  1.00E-02,  avg # of iterations =  5.8

     total cpu time spent up to now is    12440.2 secs

     total energy              =    -459.40018611 Ry
     Harris-Foulkes estimate   =    -499.67700961 Ry
     estimated scf accuracy    <     125.10766196 Ry

     iteration #  3     ecut=    50.00 Ry     beta= 0.60
     Davidson diagonalization with overlap
     ethr =  1.00E-02,  avg # of iterations =  5.0

     total cpu time spent up to now is    12485.0 secs

     total energy              =    -471.54994732 Ry
     Harris-Foulkes estimate   =    -472.92750499 Ry
     estimated scf accuracy    <      10.61206884 Ry

     iteration #  4     ecut=    50.00 Ry     beta= 0.60
     Davidson diagonalization with overlap
     ethr =  1.00E-02,  avg # of iterations =  1.7

     total cpu time spent up to now is    12512.8 secs

     total energy              =    -471.30962862 Ry
     Harris-Foulkes estimate   =    -471.99427640 Ry
     estimated scf accuracy    <       5.91664660 Ry

     iteration #  5     ecut=    50.00 Ry     beta= 0.60
     Davidson diagonalization with overlap
     ethr =  1.00E-02,  avg # of iterations =  1.0

     total cpu time spent up to now is    12534.8 secs

     total energy              =    -470.01202454 Ry
     Harris-Foulkes estimate   =    -471.35915679 Ry
     estimated scf accuracy    <       4.41346396 Ry

     iteration #  6     ecut=    50.00 Ry     beta= 0.60
     Davidson diagonalization with overlap
     ethr =  8.65E-03,  avg # of iterations =  3.5

     total cpu time spent up to now is    12566.4 secs

     total energy              =    -470.41030667 Ry
     Harris-Foulkes estimate   =    -470.41067733 Ry
     estimated scf accuracy    <       0.13376554 Ry

     iteration #  7     ecut=    50.00 Ry     beta= 0.60
     Davidson diagonalization with overlap
     ethr =  2.62E-04,  avg # of iterations =  5.3

     total cpu time spent up to now is    12613.3 secs

     total energy              =    -470.45676122 Ry
     Harris-Foulkes estimate   =    -470.46646642 Ry
     estimated scf accuracy    <       0.05755141 Ry

     iteration #  8     ecut=    50.00 Ry     beta= 0.60
     Davidson diagonalization with overlap
     ethr =  1.13E-04,  avg # of iterations =  5.6

     total cpu time spent up to now is    12653.0 secs

     total energy              =    -470.46097120 Ry
     Harris-Foulkes estimate   =    -470.50348822 Ry
     estimated scf accuracy    <       0.56398980 Ry

     iteration #  9     ecut=    50.00 Ry     beta= 0.60
     Davidson diagonalization with overlap
     ethr =  1.13E-04,  avg # of iterations =  2.7

     total cpu time spent up to now is    12680.5 secs

     total energy              =    -470.45328730 Ry
     Harris-Foulkes estimate   =    -470.46617804 Ry
     estimated scf accuracy    <       0.28649740 Ry

     iteration # 10     ecut=    50.00 Ry     beta= 0.60
     Davidson diagonalization with overlap
     ethr =  1.13E-04,  avg # of iterations =  4.3

     total cpu time spent up to now is    12710.5 secs

     total energy              =    -470.44285584 Ry
     Harris-Foulkes estimate   =    -470.45717487 Ry
     estimated scf accuracy    <       0.13479688 Ry

     iteration # 11     ecut=    50.00 Ry     beta= 0.60
     Davidson diagonalization with overlap
     ethr =  1.13E-04,  avg # of iterations =  3.3

     total cpu time spent up to now is    12737.3 secs

     total energy              =    -470.44844665 Ry
     Harris-Foulkes estimate   =    -470.44832475 Ry
     estimated scf accuracy    <       0.01024422 Ry

     iteration # 12     ecut=    50.00 Ry     beta= 0.60
     Davidson diagonalization with overlap
     ethr =  2.01E-05,  avg # of iterations =  5.4

     total cpu time spent up to now is    12771.3 secs

     total energy              =    -470.44894914 Ry
     Harris-Foulkes estimate   =    -470.44917503 Ry
     estimated scf accuracy    <       0.00630124 Ry

     iteration # 13     ecut=    50.00 Ry     beta= 0.60
     Davidson diagonalization with overlap
     ethr =  1.24E-05,  avg # of iterations =  1.1

     total cpu time spent up to now is    12793.0 secs

     total energy              =    -470.44846762 Ry
     Harris-Foulkes estimate   =    -470.44898823 Ry
     estimated scf accuracy    <       0.00373221 Ry

     iteration # 14     ecut=    50.00 Ry     beta= 0.60
     Davidson diagonalization with overlap
     ethr =  7.32E-06,  avg # of iterations =  3.4

     total cpu time spent up to now is    12828.4 secs

     total energy              =    -470.44876303 Ry
     Harris-Foulkes estimate   =    -470.44876954 Ry
     estimated scf accuracy    <       0.00005022 Ry

     iteration # 15     ecut=    50.00 Ry     beta= 0.60
     Davidson diagonalization with overlap
     ethr =  9.85E-08,  avg # of iterations =  5.1

     total cpu time spent up to now is    12866.0 secs

     total energy              =    -470.44878418 Ry
     Harris-Foulkes estimate   =    -470.44878819 Ry
     estimated scf accuracy    <       0.00002309 Ry

     iteration # 16     ecut=    50.00 Ry     beta= 0.60
     Davidson diagonalization with overlap
     ethr =  4.53E-08,  avg # of iterations =  2.2

     total cpu time spent up to now is    12890.3 secs

     total energy              =    -470.44878653 Ry
     Harris-Foulkes estimate   =    -470.44878678 Ry
     estimated scf accuracy    <       0.00000192 Ry

     iteration # 17     ecut=    50.00 Ry     beta= 0.60
     Davidson diagonalization with overlap
     ethr =  3.76E-09,  avg # of iterations =  3.7

     total cpu time spent up to now is    12920.2 secs

     total energy              =    -470.44878676 Ry
     Harris-Foulkes estimate   =    -470.44878687 Ry
     estimated scf accuracy    <       0.00000049 Ry

     iteration # 18     ecut=    50.00 Ry     beta= 0.60
     Davidson diagonalization with overlap
     ethr =  9.68E-10,  avg # of iterations =  3.4

     total cpu time spent up to now is    12947.4 secs

     total energy              =    -470.44878683 Ry
     Harris-Foulkes estimate   =    -470.44878685 Ry
     estimated scf accuracy    <       0.00000018 Ry

     iteration # 19     ecut=    50.00 Ry     beta= 0.60
     Davidson diagonalization with overlap
     ethr =  3.45E-10,  avg # of iterations =  1.6

     total cpu time spent up to now is    12972.7 secs

     total energy              =    -470.44878684 Ry
     Harris-Foulkes estimate   =    -470.44878684 Ry
     estimated scf accuracy    <       0.00000003 Ry

     iteration # 20     ecut=    50.00 Ry     beta= 0.60
     Davidson diagonalization with overlap
     ethr =  5.46E-11,  avg # of iterations =  3.6

     total cpu time spent up to now is    13000.9 secs

     total energy              =    -470.44878684 Ry
     Harris-Foulkes estimate   =    -470.44878684 Ry
     estimated scf accuracy    <          5.1E-09 Ry

     iteration # 21     ecut=    50.00 Ry     beta= 0.60
     Davidson diagonalization with overlap
     ethr =  9.98E-12,  avg # of iterations =  2.3

     total cpu time spent up to now is    13025.0 secs

     total energy              =    -470.44878684 Ry
     Harris-Foulkes estimate   =    -470.44878684 Ry
     estimated scf accuracy    <          6.3E-10 Ry

     iteration # 22     ecut=    50.00 Ry     beta= 0.60
     Davidson diagonalization with overlap
     ethr =  1.25E-12,  avg # of iterations =  3.9

     total cpu time spent up to now is    13061.8 secs

     total energy              =    -470.44878684 Ry
     Harris-Foulkes estimate   =    -470.44878684 Ry
     estimated scf accuracy    <          5.4E-11 Ry

     iteration # 23     ecut=    50.00 Ry     beta= 0.60
     Davidson diagonalization with overlap
     ethr =  1.06E-13,  avg # of iterations =  3.2

     total cpu time spent up to now is    13093.1 secs

     total energy              =    -470.44878684 Ry
     Harris-Foulkes estimate   =    -470.44878684 Ry
     estimated scf accuracy    <          1.5E-12 Ry

     iteration # 24     ecut=    50.00 Ry     beta= 0.60
     Davidson diagonalization with overlap
     ethr =  1.00E-13,  avg # of iterations =  1.0

     total cpu time spent up to now is    13115.7 secs

     End of self-consistent calculation

     Number of k-points >= 100: set verbosity='high' to print the bands.

     the Fermi energy is    16.8184 ev

!    total energy              =    -470.44878684 Ry
     Harris-Foulkes estimate   =    -470.44878684 Ry
     estimated scf accuracy    <          8.0E-14 Ry

     The total energy is the sum of the following terms:

     one-electron contribution =     -89.31666216 Ry
     hartree contribution      =      69.24505686 Ry
     xc contribution           =     -69.86029573 Ry
     ewald contribution        =    -380.51668814 Ry
     smearing contrib. (-TS)   =      -0.00019768 Ry

     convergence has been achieved in  24 iterations

     Forces acting on atoms (cartesian axes, Ry/au):

     atom    1 type  2   force =     0.00000000    0.00000000    0.00000000
     atom    2 type  1   force =     0.00000350    0.00000350    0.00000809
     atom    3 type  1   force =     0.00000000    0.00000000    0.00000000
     atom    4 type  1   force =    -0.00000350   -0.00000350   -0.00000809

     Total force =     0.000013     Total SCF correction =     0.000001


     Computing stress (Cartesian axis) and pressure

          total   stress  (Ry/bohr**3)                   (kbar)     P=   -1.34
  -0.00000900   0.00000014   0.00000013         -1.32      0.02      0.02
   0.00000014  -0.00000900   0.00000013          0.02     -1.32      0.02
   0.00000013   0.00000013  -0.00000941          0.02      0.02     -1.38

 
     init_run     :     29.59s CPU     30.34s WALL (       2 calls)
     electrons    :  12213.43s CPU  12763.14s WALL (      20 calls)
     update_pot   :     26.89s CPU     27.04s WALL (      18 calls)
     forces       :     75.35s CPU     77.96s WALL (      20 calls)
     stress       :    211.15s CPU    218.07s WALL (      20 calls)

     Called by init_run:
     wfcinit      :     27.02s CPU     27.65s WALL (       2 calls)
     potinit      :      0.74s CPU      0.75s WALL (       2 calls)
     hinit0       :      1.47s CPU      1.49s WALL (       2 calls)

     Called by electrons:
     c_bands      :  10556.79s CPU  10962.53s WALL (     342 calls)
     sum_band     :   1575.41s CPU   1638.02s WALL (     342 calls)
     v_of_rho     :     12.93s CPU     13.01s WALL (     354 calls)
     newd         :     70.46s CPU    105.75s WALL (     354 calls)
     mix_rho      :      1.64s CPU      1.64s WALL (     342 calls)

     Called by c_bands:
     init_us_2    :    231.06s CPU    234.55s WALL (  418176 calls)
     cegterg      :   9378.96s CPU   9544.59s WALL (  196992 calls)

     Called by sum_band:
     sum_band:bec :      5.16s CPU      5.34s WALL (  196992 calls)
     addusdens    :     77.89s CPU    108.99s WALL (     342 calls)

     Called by *egterg:
     h_psi        :   6152.31s CPU   6300.14s WALL (  794749 calls)
     s_psi        :    292.76s CPU    292.98s WALL (  794749 calls)
     g_psi        :     68.10s CPU     68.35s WALL (  596605 calls)
     cdiaghg      :   1508.20s CPU   1513.08s WALL (  778621 calls)

     Called by h_psi:
     h_psi:pot    :   6113.98s CPU   6260.41s WALL (  794749 calls)
     h_psi:calbec :    360.48s CPU    362.87s WALL (  794749 calls)
     vloc_psi     :   5441.80s CPU   5581.72s WALL (  794749 calls)
     add_vuspsi   :    308.03s CPU    311.03s WALL (  794749 calls)

     General routines
     calbec       :    517.32s CPU    519.91s WALL ( 1049341 calls)
     fft          :      9.02s CPU      9.24s WALL (    5108 calls)
     ffts         :      0.23s CPU      0.24s WALL (     696 calls)
     fftw         :   5911.88s CPU   6062.03s WALL (37260020 calls)
     interpolate  :      0.67s CPU      0.68s WALL (     354 calls)
 
     Parallel routines
     fft_scatt_xy :   1128.85s CPU   1163.36s WALL (37265824 calls)
     fft_scatt_yz :   1319.68s CPU   1351.76s WALL (37265824 calls)
 
     PWSCF        :     3h29m CPU       29h 3m WALL

      38h
 
   This run was terminated on:  22:15:31  14Jan2020            

=------------------------------------------------------------------------------=
   JOB DONE.
=------------------------------------------------------------------------------=
