
     Program PWSCF v.6.3MaX starts on 30Jan2020 at 15:34:14 

     This program is part of the open-source Quantum ESPRESSO suite
     for quantum simulation of materials; please cite
         "P. Giannozzi et al., J. Phys.:Condens. Matter 21 395502 (2009);
         "P. Giannozzi et al., J. Phys.:Condens. Matter 29 465901 (2017);
          URL http://www.quantum-espresso.org", 
     in publications or presentations arising from this work. More details at
     http://www.quantum-espresso.org/quote

     Parallel version (MPI), running on     4 processors

     MPI processes distributed on     1 nodes
     R & G space division:  proc/nbgrp/npool/nimage =       4
     Waiting for input...
     Reading input from standard input

     Current dimensions of program PWSCF are:
     Max number of different atomic species (ntypx) = 10
     Max number of k-points (npk) =  40000
     Max angular momentum in pseudopotentials (lmaxx) =  3
     Message from routine iosys:
     minimal I/O required, wf_collect reset to FALSE

     Subspace diagonalization in iterative solution of the eigenvalue problem:
     a serial algorithm will be used

 
     Parallelization info
     --------------------
     sticks:   dense  smooth     PW     G-vecs:    dense   smooth      PW
     Min         431     171     53                36427     9205    1551
     Max         432     172     54                36434     9212    1556
     Sum        1727     687    213               145721    36835    6213
 


     bravais-lattice index     =            0
     lattice parameter (alat)  =       1.8897  a.u.
     unit-cell volume          =    1077.7903 (a.u.)^3
     number of atoms/cell      =            8
     number of atomic types    =            2
     number of electrons       =       100.00
     number of Kohn-Sham states=           60
     kinetic-energy cutoff     =      40.0000  Ry
     charge density cutoff     =     400.0000  Ry
     convergence threshold     =      1.0E-10
     mixing beta               =       0.6000
     number of iterations used =            8  plain     mixing
     Exchange-correlation      = SLA PW PBE PBE ( 1  4  3  4 0 0)
     nstep                     =           50


     celldm(1)=   1.889726  celldm(2)=   0.000000  celldm(3)=   0.000000
     celldm(4)=   0.000000  celldm(5)=   0.000000  celldm(6)=   0.000000

     crystal axes: (cart. coord. in units of alat)
               a(1) = (   1.522502  -2.637051   0.000000 )  
               a(2) = (   0.000000   0.000000  -4.972461 )  
               a(3) = (   9.135012   5.274102   0.000000 )  

     reciprocal axes: (cart. coord. in units 2 pi/alat)
               b(1) = (  0.164203 -0.284409  0.000000 )  
               b(2) = (  0.000000  0.000000 -0.201108 )  
               b(3) = (  0.082102  0.047401  0.000000 )  


     PseudoPot. # 1 for Nb read from file:
     ./Nb.pbe-nsp-van.UPF
     MD5 check sum: 0a22fc7fb0ba19a08ca5db297a5d2854
     Pseudo is Ultrasoft + core correction, Zval = 13.0
     Generated by new atomic code, or converted to UPF format
     Using radial grid of  887 points,  6 beta functions with: 
                l(1) =   0
                l(2) =   0
                l(3) =   1
                l(4) =   1
                l(5) =   2
                l(6) =   2
     Q(r) pseudized with  6 coefficients,  rinner =    1.000   1.000   1.000
                                                       1.000   1.000

     PseudoPot. # 2 for Ti read from file:
     ./Ti.pbe-sp-van_ak.UPF
     MD5 check sum: f98fea3e8887528921fefa5636a534ca
     Pseudo is Ultrasoft, Zval = 12.0
     Generated by new atomic code, or converted to UPF format
     Using radial grid of  851 points,  6 beta functions with: 
                l(1) =   0
                l(2) =   0
                l(3) =   1
                l(4) =   1
                l(5) =   2
                l(6) =   2
     Q(r) pseudized with  8 coefficients,  rinner =    1.000   1.000   1.000
                                                       1.000   1.000

     atomic species   valence    mass     pseudopotential
        Nb            13.00    92.90638     Nb( 1.00)
        Ti            12.00    47.86700     Ti( 1.00)

      4 Sym. Ops. (no inversion) found



   Cartesian axes

     site n.     atom                  positions (alat units)
         1           Nb  tau(   1) = (   3.0450042   0.0000000  -4.9724614  )
         2           Ti  tau(   2) = (   3.0450058  -1.7580350  -2.4862307  )
         3           Ti  tau(   3) = (   6.0900085   0.0000000  -4.9724614  )
         4           Nb  tau(   4) = (   4.5675079   0.8790162  -2.4862307  )
         5           Ti  tau(   5) = (   7.6125106   2.6370512  -4.9724614  )
         6           Nb  tau(   6) = (   7.6125121   0.8790162  -2.4862307  )
         7           Ti  tau(   7) = (  10.6575148   2.6370512  -4.9724614  )
         8           Nb  tau(   8) = (   9.1350142   3.5160674  -2.4862307  )

     number of k points=   240  Marzari-Vanderbilt smearing, width (Ry)=  0.0200

     Number of k-points >= 100: set verbosity='high' to print them.

     Dense  grid:   145721 G-vectors     FFT dimensions: (  40,  60, 128)

     Smooth grid:    36835 G-vectors     FFT dimensions: (  24,  40,  81)

     Estimated max dynamical RAM per process >     395.70 MB

     Estimated total dynamical RAM >       1.55 GB

     Initial potential from superposition of free atoms

     starting charge   95.98889, renormalised to  100.00000
     Starting wfcs are   92 randomized atomic wfcs

     total cpu time spent up to now is       19.6 secs

     Self-consistent Calculation

     iteration #  1     ecut=    40.00 Ry     beta= 0.60
     Davidson diagonalization with overlap
     ethr =  1.00E-02,  avg # of iterations =  3.0

     total cpu time spent up to now is       62.5 secs

     total energy              =    -867.44519677 Ry
     Harris-Foulkes estimate   =    -943.44737774 Ry
     estimated scf accuracy    <      93.16566105 Ry

     iteration #  2     ecut=    40.00 Ry     beta= 0.60
     Davidson diagonalization with overlap
     ethr =  1.00E-02,  avg # of iterations =  9.2

     total cpu time spent up to now is      181.7 secs

     total energy              =    -836.89715979 Ry
     Harris-Foulkes estimate   =   -1189.13048335 Ry
     estimated scf accuracy    <    1833.11288883 Ry

     iteration #  3     ecut=    40.00 Ry     beta= 0.60
     Davidson diagonalization with overlap
     ethr =  1.00E-02,  avg # of iterations =  8.3

     total cpu time spent up to now is      290.6 secs

     total energy              =    -934.89289450 Ry
     Harris-Foulkes estimate   =    -963.54596640 Ry
     estimated scf accuracy    <     104.61408253 Ry

     iteration #  4     ecut=    40.00 Ry     beta= 0.60
     Davidson diagonalization with overlap
     ethr =  1.00E-02,  avg # of iterations =  6.6

     total cpu time spent up to now is      353.1 secs

     total energy              =    -941.93488386 Ry
     Harris-Foulkes estimate   =    -948.08348547 Ry
     estimated scf accuracy    <     139.28793811 Ry

     iteration #  5     ecut=    40.00 Ry     beta= 0.60
     Davidson diagonalization with overlap
     ethr =  1.00E-02,  avg # of iterations =  3.4

     total cpu time spent up to now is      389.5 secs

     total energy              =    -940.20942040 Ry
     Harris-Foulkes estimate   =    -944.73392223 Ry
     estimated scf accuracy    <     101.43793348 Ry

     iteration #  6     ecut=    40.00 Ry     beta= 0.60
     Davidson diagonalization with overlap
     ethr =  1.00E-02,  avg # of iterations =  2.6

     total cpu time spent up to now is      422.9 secs

     total energy              =    -940.51605261 Ry
     Harris-Foulkes estimate   =    -941.31148074 Ry
     estimated scf accuracy    <      31.05196529 Ry

     iteration #  7     ecut=    40.00 Ry     beta= 0.60
     Davidson diagonalization with overlap
     ethr =  1.00E-02,  avg # of iterations =  1.1

     total cpu time spent up to now is      452.6 secs

     total energy              =    -940.84084317 Ry
     Harris-Foulkes estimate   =    -940.74272031 Ry
     estimated scf accuracy    <      35.14847506 Ry

     iteration #  8     ecut=    40.00 Ry     beta= 0.60
     Davidson diagonalization with overlap
     ethr =  1.00E-02,  avg # of iterations =  1.0

     total cpu time spent up to now is      482.1 secs

     total energy              =    -941.30748749 Ry
     Harris-Foulkes estimate   =    -940.86787561 Ry
     estimated scf accuracy    <      35.49123229 Ry

     iteration #  9     ecut=    40.00 Ry     beta= 0.60
     Davidson diagonalization with overlap
     ethr =  1.00E-02,  avg # of iterations =  1.0

     total cpu time spent up to now is      511.7 secs

     total energy              =    -940.02903890 Ry
     Harris-Foulkes estimate   =    -941.33648995 Ry
     estimated scf accuracy    <      41.47117927 Ry

     iteration # 10     ecut=    40.00 Ry     beta= 0.60
     Davidson diagonalization with overlap
     ethr =  1.00E-02,  avg # of iterations =  1.0

     total cpu time spent up to now is      541.2 secs

     total energy              =    -930.51046227 Ry
     Harris-Foulkes estimate   =    -940.11812834 Ry
     estimated scf accuracy    <      31.98315856 Ry

     iteration # 11     ecut=    40.00 Ry     beta= 0.60
     Davidson diagonalization with overlap
     ethr =  1.00E-02,  avg # of iterations =  5.5

     total cpu time spent up to now is      607.2 secs

     total energy              =    -945.44733718 Ry
     Harris-Foulkes estimate   =    -960.01374959 Ry
     estimated scf accuracy    <     262.58942856 Ry

     iteration # 12     ecut=    40.00 Ry     beta= 0.60
     Davidson diagonalization with overlap
     ethr =  1.00E-02,  avg # of iterations =  3.6

     total cpu time spent up to now is      645.1 secs

     total energy              =    -936.86138910 Ry
     Harris-Foulkes estimate   =    -946.99803329 Ry
     estimated scf accuracy    <     160.41119913 Ry

     iteration # 13     ecut=    40.00 Ry     beta= 0.60
     Davidson diagonalization with overlap
     ethr =  1.00E-02,  avg # of iterations =  4.4

     total cpu time spent up to now is      686.4 secs

     total energy              =    -938.02245719 Ry
     Harris-Foulkes estimate   =    -939.35971886 Ry
     estimated scf accuracy    <      44.26710587 Ry

     iteration # 14     ecut=    40.00 Ry     beta= 0.60
     Davidson diagonalization with overlap
     ethr =  1.00E-02,  avg # of iterations =  1.7

     total cpu time spent up to now is      717.5 secs

     total energy              =    -939.09233272 Ry
     Harris-Foulkes estimate   =    -938.53392435 Ry
     estimated scf accuracy    <      21.03530024 Ry

     iteration # 15     ecut=    40.00 Ry     beta= 0.60
     Davidson diagonalization with overlap
     ethr =  1.00E-02,  avg # of iterations =  1.0

     total cpu time spent up to now is      747.1 secs

     total energy              =    -936.70546986 Ry
     Harris-Foulkes estimate   =    -939.35003763 Ry
     estimated scf accuracy    <      37.83571283 Ry

     iteration # 16     ecut=    40.00 Ry     beta= 0.60
     Davidson diagonalization with overlap
     ethr =  1.00E-02,  avg # of iterations =  3.3

     total cpu time spent up to now is      782.0 secs

     total energy              =    -938.38014610 Ry
     Harris-Foulkes estimate   =    -938.36789002 Ry
     estimated scf accuracy    <       5.66651804 Ry

     iteration # 17     ecut=    40.00 Ry     beta= 0.60
     Davidson diagonalization with overlap
     ethr =  5.67E-03,  avg # of iterations =  5.2

     total cpu time spent up to now is      838.6 secs

     total energy              =    -938.15149877 Ry
     Harris-Foulkes estimate   =    -940.37370298 Ry
     estimated scf accuracy    <      25.26020997 Ry

     iteration # 18     ecut=    40.00 Ry     beta= 0.60
     Davidson diagonalization with overlap
     ethr =  5.67E-03,  avg # of iterations =  1.9

     total cpu time spent up to now is      870.3 secs

     total energy              =    -938.19252121 Ry
     Harris-Foulkes estimate   =    -938.77877628 Ry
     estimated scf accuracy    <       6.24319848 Ry

     iteration # 19     ecut=    40.00 Ry     beta= 0.60
     Davidson diagonalization with overlap
     ethr =  5.67E-03,  avg # of iterations =  2.5

     total cpu time spent up to now is      903.4 secs

     total energy              =    -938.15014665 Ry
     Harris-Foulkes estimate   =    -938.44230862 Ry
     estimated scf accuracy    <       3.89760934 Ry

     iteration # 20     ecut=    40.00 Ry     beta= 0.60
     Davidson diagonalization with overlap
     ethr =  3.90E-03,  avg # of iterations =  4.7

     total cpu time spent up to now is      943.3 secs

     total energy              =    -938.11053961 Ry
     Harris-Foulkes estimate   =    -938.49178267 Ry
     estimated scf accuracy    <       6.14027888 Ry

     iteration # 21     ecut=    40.00 Ry     beta= 0.60
     Davidson diagonalization with overlap
     ethr =  3.90E-03,  avg # of iterations =  1.7

     total cpu time spent up to now is      974.3 secs

     total energy              =    -938.14262452 Ry
     Harris-Foulkes estimate   =    -938.29778119 Ry
     estimated scf accuracy    <       1.53381712 Ry

     iteration # 22     ecut=    40.00 Ry     beta= 0.60
     Davidson diagonalization with overlap
     ethr =  1.53E-03,  avg # of iterations =  5.5

     total cpu time spent up to now is     1018.7 secs

     total energy              =    -937.97990557 Ry
     Harris-Foulkes estimate   =    -938.31958791 Ry
     estimated scf accuracy    <       2.52827421 Ry

     iteration # 23     ecut=    40.00 Ry     beta= 0.60
     Davidson diagonalization with overlap
     ethr =  1.53E-03,  avg # of iterations =  5.4

     total cpu time spent up to now is     1077.1 secs

     total energy              =    -937.10465540 Ry
     Harris-Foulkes estimate   =    -939.27546068 Ry
     estimated scf accuracy    <      27.40486823 Ry

     iteration # 24     ecut=    40.00 Ry     beta= 0.60
     Davidson diagonalization with overlap
     ethr =  1.53E-03,  avg # of iterations =  5.1

     total cpu time spent up to now is     1126.5 secs

     total energy              =    -937.92449755 Ry
     Harris-Foulkes estimate   =    -938.27409882 Ry
     estimated scf accuracy    <       1.20606614 Ry

     iteration # 25     ecut=    40.00 Ry     beta= 0.60
     Davidson diagonalization with overlap
     ethr =  1.21E-03,  avg # of iterations =  6.0

     total cpu time spent up to now is     1186.2 secs

     total energy              =    -937.37800430 Ry
     Harris-Foulkes estimate   =    -938.78164973 Ry
     estimated scf accuracy    <      18.43905112 Ry

     iteration # 26     ecut=    40.00 Ry     beta= 0.60
     Davidson diagonalization with overlap
     ethr =  1.21E-03,  avg # of iterations =  5.6

     total cpu time spent up to now is     1240.0 secs

     total energy              =    -938.18240323 Ry
     Harris-Foulkes estimate   =    -938.26299070 Ry
     estimated scf accuracy    <       1.03791137 Ry

     iteration # 27     ecut=    40.00 Ry     beta= 0.60
     Davidson diagonalization with overlap
     ethr =  1.04E-03,  avg # of iterations =  1.0

     total cpu time spent up to now is     1269.7 secs

     total energy              =    -938.18355195 Ry
     Harris-Foulkes estimate   =    -938.19983734 Ry
     estimated scf accuracy    <       0.36912263 Ry

     iteration # 28     ecut=    40.00 Ry     beta= 0.60
     Davidson diagonalization with overlap
     ethr =  3.69E-04,  avg # of iterations =  2.6

     total cpu time spent up to now is     1302.9 secs

     total energy              =    -938.17863047 Ry
     Harris-Foulkes estimate   =    -938.19278502 Ry
     estimated scf accuracy    <       0.15567707 Ry

     iteration # 29     ecut=    40.00 Ry     beta= 0.60
     Davidson diagonalization with overlap
     ethr =  1.56E-04,  avg # of iterations =  5.0

     total cpu time spent up to now is     1347.5 secs

     total energy              =    -938.19319257 Ry
     Harris-Foulkes estimate   =    -938.19837800 Ry
     estimated scf accuracy    <       0.05263367 Ry

     iteration # 30     ecut=    40.00 Ry     beta= 0.60
     Davidson diagonalization with overlap
     ethr =  5.26E-05,  avg # of iterations =  4.6

     total cpu time spent up to now is     1389.8 secs

     total energy              =    -938.19540400 Ry
     Harris-Foulkes estimate   =    -938.20069993 Ry
     estimated scf accuracy    <       0.08342053 Ry

     iteration # 31     ecut=    40.00 Ry     beta= 0.60
     Davidson diagonalization with overlap
     ethr =  5.26E-05,  avg # of iterations =  1.4

     total cpu time spent up to now is     1420.2 secs

     total energy              =    -938.19394638 Ry
     Harris-Foulkes estimate   =    -938.19928104 Ry
     estimated scf accuracy    <       0.06034019 Ry

     iteration # 32     ecut=    40.00 Ry     beta= 0.60
     Davidson diagonalization with overlap
     ethr =  5.26E-05,  avg # of iterations =  1.7

     total cpu time spent up to now is     1451.4 secs

     total energy              =    -938.19452320 Ry
     Harris-Foulkes estimate   =    -938.19641471 Ry
     estimated scf accuracy    <       0.01184985 Ry

     iteration # 33     ecut=    40.00 Ry     beta= 0.60
     Davidson diagonalization with overlap
     c_bands:  1 eigenvalues not converged
     ethr =  1.18E-05,  avg # of iterations =  5.1

     total cpu time spent up to now is     1498.8 secs

     total energy              =    -938.19570894 Ry
     Harris-Foulkes estimate   =    -938.19710348 Ry
     estimated scf accuracy    <       0.01761328 Ry

     iteration # 34     ecut=    40.00 Ry     beta= 0.60
     Davidson diagonalization with overlap
     ethr =  1.18E-05,  avg # of iterations =  1.1

     total cpu time spent up to now is     1528.7 secs

     total energy              =    -938.19623798 Ry
     Harris-Foulkes estimate   =    -938.19634412 Ry
     estimated scf accuracy    <       0.00128748 Ry

     iteration # 35     ecut=    40.00 Ry     beta= 0.60
     Davidson diagonalization with overlap
     ethr =  1.29E-06,  avg # of iterations =  5.5

     total cpu time spent up to now is     1578.4 secs

     total energy              =    -938.19631390 Ry
     Harris-Foulkes estimate   =    -938.19653725 Ry
     estimated scf accuracy    <       0.00236161 Ry

     iteration # 36     ecut=    40.00 Ry     beta= 0.60
     Davidson diagonalization with overlap
     ethr =  1.29E-06,  avg # of iterations =  1.2

     total cpu time spent up to now is     1608.5 secs

     total energy              =    -938.19638611 Ry
     Harris-Foulkes estimate   =    -938.19640754 Ry
     estimated scf accuracy    <       0.00016618 Ry

     iteration # 37     ecut=    40.00 Ry     beta= 0.60
     Davidson diagonalization with overlap
     ethr =  1.66E-07,  avg # of iterations =  4.6

     total cpu time spent up to now is     1656.5 secs

     total energy              =    -938.19642559 Ry
     Harris-Foulkes estimate   =    -938.19643918 Ry
     estimated scf accuracy    <       0.00014835 Ry

     iteration # 38     ecut=    40.00 Ry     beta= 0.60
     Davidson diagonalization with overlap
     c_bands:  1 eigenvalues not converged
     ethr =  1.48E-07,  avg # of iterations =  1.2

     total cpu time spent up to now is     1686.6 secs

     total energy              =    -938.19642443 Ry
     Harris-Foulkes estimate   =    -938.19643226 Ry
     estimated scf accuracy    <       0.00007985 Ry

     iteration # 39     ecut=    40.00 Ry     beta= 0.60
     Davidson diagonalization with overlap
     ethr =  7.98E-08,  avg # of iterations =  2.7

     total cpu time spent up to now is     1720.9 secs

     total energy              =    -938.19642653 Ry
     Harris-Foulkes estimate   =    -938.19643010 Ry
     estimated scf accuracy    <       0.00002900 Ry

     iteration # 40     ecut=    40.00 Ry     beta= 0.60
     Davidson diagonalization with overlap
     ethr =  2.90E-08,  avg # of iterations =  3.9

     total cpu time spent up to now is     1760.0 secs

     total energy              =    -938.19642882 Ry
     Harris-Foulkes estimate   =    -938.19643085 Ry
     estimated scf accuracy    <       0.00002903 Ry

     iteration # 41     ecut=    40.00 Ry     beta= 0.60
     Davidson diagonalization with overlap
     ethr =  2.90E-08,  avg # of iterations =  1.0

     total cpu time spent up to now is     1789.7 secs

     total energy              =    -938.19642982 Ry
     Harris-Foulkes estimate   =    -938.19643013 Ry
     estimated scf accuracy    <       0.00000206 Ry

     iteration # 42     ecut=    40.00 Ry     beta= 0.60
     Davidson diagonalization with overlap
     ethr =  2.06E-09,  avg # of iterations =  4.5

     total cpu time spent up to now is     1835.0 secs

     total energy              =    -938.19643011 Ry
     Harris-Foulkes estimate   =    -938.19643032 Ry
     estimated scf accuracy    <       0.00000165 Ry

     iteration # 43     ecut=    40.00 Ry     beta= 0.60
     Davidson diagonalization with overlap
     ethr =  1.65E-09,  avg # of iterations =  1.1

     total cpu time spent up to now is     1864.8 secs

     total energy              =    -938.19643017 Ry
     Harris-Foulkes estimate   =    -938.19643022 Ry
     estimated scf accuracy    <       0.00000028 Ry

     iteration # 44     ecut=    40.00 Ry     beta= 0.60
     Davidson diagonalization with overlap
     ethr =  2.76E-10,  avg # of iterations =  4.1

     total cpu time spent up to now is     1909.3 secs

     total energy              =    -938.19643019 Ry
     Harris-Foulkes estimate   =    -938.19643025 Ry
     estimated scf accuracy    <       0.00000043 Ry

     iteration # 45     ecut=    40.00 Ry     beta= 0.60
     Davidson diagonalization with overlap
     ethr =  2.76E-10,  avg # of iterations =  3.6

     total cpu time spent up to now is     1946.9 secs

     total energy              =    -938.19643018 Ry
     Harris-Foulkes estimate   =    -938.19643024 Ry
     estimated scf accuracy    <       0.00000067 Ry

     iteration # 46     ecut=    40.00 Ry     beta= 0.60
     Davidson diagonalization with overlap
     ethr =  2.76E-10,  avg # of iterations =  3.5

     total cpu time spent up to now is     1985.1 secs

     total energy              =    -938.19643019 Ry
     Harris-Foulkes estimate   =    -938.19643025 Ry
     estimated scf accuracy    <       0.00000068 Ry

     iteration # 47     ecut=    40.00 Ry     beta= 0.60
     Davidson diagonalization with overlap
     ethr =  2.76E-10,  avg # of iterations =  3.4

     total cpu time spent up to now is     2021.3 secs

     total energy              =    -938.19643021 Ry
     Harris-Foulkes estimate   =    -938.19643023 Ry
     estimated scf accuracy    <       0.00000021 Ry

     iteration # 48     ecut=    40.00 Ry     beta= 0.60
     Davidson diagonalization with overlap
     ethr =  2.07E-10,  avg # of iterations =  1.3

     total cpu time spent up to now is     2051.6 secs

     total energy              =    -938.19643022 Ry
     Harris-Foulkes estimate   =    -938.19643022 Ry
     estimated scf accuracy    <       0.00000002 Ry

     iteration # 49     ecut=    40.00 Ry     beta= 0.60
     Davidson diagonalization with overlap
     ethr =  2.02E-11,  avg # of iterations =  4.3

     total cpu time spent up to now is     2096.9 secs

     total energy              =    -938.19643022 Ry
     Harris-Foulkes estimate   =    -938.19643022 Ry
     estimated scf accuracy    <          4.4E-09 Ry

     iteration # 50     ecut=    40.00 Ry     beta= 0.60
     Davidson diagonalization with overlap
     ethr =  4.41E-12,  avg # of iterations =  3.7

     total cpu time spent up to now is     2136.8 secs

     total energy              =    -938.19643022 Ry
     Harris-Foulkes estimate   =    -938.19643022 Ry
     estimated scf accuracy    <       0.00000001 Ry

     iteration # 51     ecut=    40.00 Ry     beta= 0.60
     Davidson diagonalization with overlap
     ethr =  4.41E-12,  avg # of iterations =  2.5

     total cpu time spent up to now is     2170.1 secs

     total energy              =    -938.19643022 Ry
     Harris-Foulkes estimate   =    -938.19643022 Ry
     estimated scf accuracy    <          2.1E-09 Ry

     iteration # 52     ecut=    40.00 Ry     beta= 0.60
     Davidson diagonalization with overlap
     ethr =  2.09E-12,  avg # of iterations =  2.9

     total cpu time spent up to now is     2204.6 secs

     total energy              =    -938.19643022 Ry
     Harris-Foulkes estimate   =    -938.19643022 Ry
     estimated scf accuracy    <          3.8E-10 Ry

     iteration # 53     ecut=    40.00 Ry     beta= 0.60
     Davidson diagonalization with overlap
     ethr =  3.79E-13,  avg # of iterations =  4.1

     total cpu time spent up to now is     2247.8 secs

     End of self-consistent calculation

     Number of k-points >= 100: set verbosity='high' to print the bands.

     the Fermi energy is    13.8221 ev

!    total energy              =    -938.19643022 Ry
     Harris-Foulkes estimate   =    -938.19643022 Ry
     estimated scf accuracy    <          9.1E-11 Ry

     The total energy is the sum of the following terms:

     one-electron contribution =    -272.62528589 Ry
     hartree contribution      =     170.11566282 Ry
     xc contribution           =    -130.98527531 Ry
     ewald contribution        =    -704.69421416 Ry
     smearing contrib. (-TS)   =      -0.00731769 Ry

     convergence has been achieved in  53 iterations

     Forces acting on atoms (cartesian axes, Ry/au):

     atom    1 type  1   force =     0.00005537    0.00003197    0.00000000
     atom    2 type  2   force =    -0.00095314   -0.00055030    0.00000000
     atom    3 type  2   force =    -0.00322552   -0.00186226    0.00000000
     atom    4 type  1   force =    -0.00026557   -0.00015333    0.00000000
     atom    5 type  2   force =     0.00182282    0.00105240    0.00000000
     atom    6 type  1   force =     0.00247788    0.00143060    0.00000000
     atom    7 type  2   force =     0.00255104    0.00147284    0.00000000
     atom    8 type  1   force =    -0.00246287   -0.00142194    0.00000000

     Total force =     0.006676     Total SCF correction =     0.000041


     Computing stress (Cartesian axis) and pressure

          total   stress  (Ry/bohr**3)                   (kbar)     P= -126.58
  -0.00089255   0.00002783   0.00000000       -131.30      4.09      0.00
   0.00002783  -0.00092468   0.00000000          4.09   -136.03      0.00
   0.00000000   0.00000000  -0.00076425          0.00      0.00   -112.42


     BFGS Geometry Optimization

     number of scf cycles    =   1
     number of bfgs steps    =   0

     enthalpy new            =    -938.1964302232 Ry

     new trust radius        =       0.1518540735 bohr
     new conv_thr            =            1.0E-10 Ry

     new unit-cell volume =   1009.71341 a.u.^3 (   149.62409 Ang^3 )
     density =      6.24925 g/cm^3

CELL_PARAMETERS (alat=  1.88972599)
   1.486694654  -2.575030862   0.000000000
   0.000000000   0.000000000  -4.877456428
   8.934845398   5.158535767   0.000000000

ATOMIC_POSITIONS (angstrom)
Nb       2.977087334   0.002135056  -4.877456428
Ti       2.975343712  -1.715560583  -2.438728214
Ti       5.952447882   0.003273152  -4.877456428
Nb       4.466063610   0.861794254  -2.438728214
Ti       7.445424833   2.581931099  -4.877456428
Nb       7.444542247   0.864732580  -2.438728214
Ti      10.422860424   2.584267222  -4.877456428
Nb       8.932349029   3.440405529  -2.438728214


     NEW-OLD atomic charge density approx. for the potential

     Check: negative/imaginary core charge=   -0.000001    0.000000
     extrapolated charge   93.52824, renormalised to  100.00000

     total cpu time spent up to now is     2271.3 secs

     Self-consistent Calculation

     iteration #  1     ecut=    40.00 Ry     beta= 0.60
     Davidson diagonalization with overlap
     c_bands:  3 eigenvalues not converged
     c_bands:  1 eigenvalues not converged
     c_bands:  3 eigenvalues not converged
     c_bands:  2 eigenvalues not converged
     c_bands:  5 eigenvalues not converged
     c_bands:  2 eigenvalues not converged
     c_bands:  2 eigenvalues not converged
     c_bands:  1 eigenvalues not converged
     c_bands:  2 eigenvalues not converged
     c_bands:  2 eigenvalues not converged
     c_bands:  2 eigenvalues not converged
     c_bands:  3 eigenvalues not converged
     c_bands:  1 eigenvalues not converged
     c_bands:  4 eigenvalues not converged
     c_bands:  2 eigenvalues not converged
     c_bands:  1 eigenvalues not converged
     c_bands:  5 eigenvalues not converged
     c_bands:  1 eigenvalues not converged
     c_bands:  2 eigenvalues not converged
     c_bands:  5 eigenvalues not converged
     c_bands:  1 eigenvalues not converged
     c_bands:  2 eigenvalues not converged
     c_bands:  1 eigenvalues not converged
     c_bands:  1 eigenvalues not converged
     c_bands:  1 eigenvalues not converged
     c_bands:  1 eigenvalues not converged
     c_bands:  1 eigenvalues not converged
     c_bands:  1 eigenvalues not converged
     c_bands:  1 eigenvalues not converged
     c_bands:  1 eigenvalues not converged
     c_bands:  1 eigenvalues not converged
     c_bands:  1 eigenvalues not converged
     c_bands:  2 eigenvalues not converged
     c_bands:  1 eigenvalues not converged
     c_bands:  1 eigenvalues not converged
     c_bands:  1 eigenvalues not converged
     c_bands:  1 eigenvalues not converged
     c_bands:  1 eigenvalues not converged
     c_bands:  2 eigenvalues not converged
     c_bands:  2 eigenvalues not converged
     c_bands:  2 eigenvalues not converged
     c_bands:  1 eigenvalues not converged
     c_bands:  1 eigenvalues not converged
     c_bands:  1 eigenvalues not converged
     c_bands:  2 eigenvalues not converged
     c_bands:  1 eigenvalues not converged
     c_bands:  2 eigenvalues not converged
     c_bands:  1 eigenvalues not converged
     c_bands:  1 eigenvalues not converged
     c_bands:  1 eigenvalues not converged
     c_bands:  1 eigenvalues not converged
     c_bands:  1 eigenvalues not converged
     c_bands:  2 eigenvalues not converged
     c_bands:  1 eigenvalues not converged
     c_bands:  1 eigenvalues not converged
     c_bands:  2 eigenvalues not converged
     c_bands:  1 eigenvalues not converged
     c_bands:  1 eigenvalues not converged
     c_bands:  1 eigenvalues not converged
     c_bands:  2 eigenvalues not converged
     c_bands:  2 eigenvalues not converged
     c_bands:  1 eigenvalues not converged
     c_bands:  1 eigenvalues not converged
     c_bands:  2 eigenvalues not converged
     c_bands:  1 eigenvalues not converged
     c_bands:  1 eigenvalues not converged
     c_bands:  1 eigenvalues not converged
     c_bands:  1 eigenvalues not converged
     c_bands:  2 eigenvalues not converged
     c_bands:  2 eigenvalues not converged
     c_bands:  2 eigenvalues not converged
     c_bands:  1 eigenvalues not converged
     c_bands:  2 eigenvalues not converged
     c_bands:  1 eigenvalues not converged
     c_bands:  2 eigenvalues not converged
     c_bands:  1 eigenvalues not converged
     c_bands:  2 eigenvalues not converged
     c_bands:  1 eigenvalues not converged
     c_bands:  1 eigenvalues not converged
     c_bands:  1 eigenvalues not converged
     c_bands:  1 eigenvalues not converged
     c_bands:  2 eigenvalues not converged
     c_bands:  1 eigenvalues not converged
     c_bands:  3 eigenvalues not converged
     c_bands:  3 eigenvalues not converged
     c_bands:  2 eigenvalues not converged
     c_bands:  3 eigenvalues not converged
     c_bands:  3 eigenvalues not converged
     c_bands:  3 eigenvalues not converged
     c_bands:  1 eigenvalues not converged
     c_bands:  2 eigenvalues not converged
     c_bands:  2 eigenvalues not converged
     c_bands:  2 eigenvalues not converged
     c_bands:  2 eigenvalues not converged
     c_bands:  1 eigenvalues not converged
     c_bands:  2 eigenvalues not converged
     c_bands:  1 eigenvalues not converged
     c_bands:  2 eigenvalues not converged
     c_bands:  1 eigenvalues not converged
     c_bands:  1 eigenvalues not converged
     c_bands:  1 eigenvalues not converged
     c_bands:  1 eigenvalues not converged
     c_bands:  1 eigenvalues not converged
     c_bands:  3 eigenvalues not converged
     c_bands:  2 eigenvalues not converged
     c_bands:  2 eigenvalues not converged
     c_bands:  3 eigenvalues not converged
     c_bands:  1 eigenvalues not converged
     c_bands:  3 eigenvalues not converged
     c_bands:  3 eigenvalues not converged
     c_bands:  2 eigenvalues not converged
     c_bands:  1 eigenvalues not converged
     c_bands:  1 eigenvalues not converged
     c_bands:  2 eigenvalues not converged
     c_bands:  2 eigenvalues not converged
     c_bands:  2 eigenvalues not converged
     c_bands:  2 eigenvalues not converged
     c_bands:  2 eigenvalues not converged
     c_bands:  2 eigenvalues not converged
     c_bands:  2 eigenvalues not converged
     c_bands:  1 eigenvalues not converged
     c_bands:  1 eigenvalues not converged
     c_bands:  1 eigenvalues not converged
     c_bands:  1 eigenvalues not converged
     c_bands:  1 eigenvalues not converged
     c_bands:  1 eigenvalues not converged
     c_bands:  1 eigenvalues not converged
     c_bands:  1 eigenvalues not converged
     c_bands:  1 eigenvalues not converged
     c_bands:  1 eigenvalues not converged
     c_bands:  1 eigenvalues not converged
     c_bands:  1 eigenvalues not converged
     c_bands:  1 eigenvalues not converged
     c_bands:  1 eigenvalues not converged
     c_bands:  1 eigenvalues not converged
     c_bands:  1 eigenvalues not converged
     ethr =  1.00E-06,  avg # of iterations = 19.1

     total cpu time spent up to now is     2430.3 secs

     total energy              =    -926.56877485 Ry
     Harris-Foulkes estimate   =    -950.47857458 Ry
     estimated scf accuracy    <      12.69448322 Ry

     iteration #  2     ecut=    40.00 Ry     beta= 0.60
     Davidson diagonalization with overlap
     ethr =  1.00E-02,  avg # of iterations =  5.0

     total cpu time spent up to now is     2500.1 secs

     total energy              =    -929.90636868 Ry
     Harris-Foulkes estimate   =    -959.13731135 Ry
     estimated scf accuracy    <     125.34432386 Ry

     iteration #  3     ecut=    40.00 Ry     beta= 0.60
     Davidson diagonalization with overlap
     ethr =  1.00E-02,  avg # of iterations =  5.2

     total cpu time spent up to now is     2565.3 secs

     total energy              =    -934.38914123 Ry
     Harris-Foulkes estimate   =    -951.95222751 Ry
     estimated scf accuracy    <     137.99046286 Ry

     iteration #  4     ecut=    40.00 Ry     beta= 0.60
     Davidson diagonalization with overlap
     ethr =  1.00E-02,  avg # of iterations =  5.5

     total cpu time spent up to now is     2620.3 secs

     total energy              =    -938.82770206 Ry
     Harris-Foulkes estimate   =    -940.89496688 Ry
     estimated scf accuracy    <      14.28403371 Ry

     iteration #  5     ecut=    40.00 Ry     beta= 0.60
     Davidson diagonalization with overlap
     ethr =  1.00E-02,  avg # of iterations =  2.6

     total cpu time spent up to now is     2655.6 secs

     total energy              =    -938.36985882 Ry
     Harris-Foulkes estimate   =    -940.57705979 Ry
     estimated scf accuracy    <      26.58138493 Ry

     iteration #  6     ecut=    40.00 Ry     beta= 0.60
     Davidson diagonalization with overlap
     ethr =  1.00E-02,  avg # of iterations =  1.3

     total cpu time spent up to now is     2686.5 secs

     total energy              =    -938.57139792 Ry
     Harris-Foulkes estimate   =    -939.46529599 Ry
     estimated scf accuracy    <       7.23378998 Ry

     iteration #  7     ecut=    40.00 Ry     beta= 0.60
     Davidson diagonalization with overlap
     ethr =  7.23E-03,  avg # of iterations =  1.0

     total cpu time spent up to now is     2716.7 secs

     total energy              =    -938.32679195 Ry
     Harris-Foulkes estimate   =    -938.77401933 Ry
     estimated scf accuracy    <       4.18166987 Ry

     iteration #  8     ecut=    40.00 Ry     beta= 0.60
     Davidson diagonalization with overlap
     ethr =  4.18E-03,  avg # of iterations =  1.2

     total cpu time spent up to now is     2747.4 secs

     total energy              =    -938.19066424 Ry
     Harris-Foulkes estimate   =    -938.42534366 Ry
     estimated scf accuracy    <       2.30265164 Ry

     iteration #  9     ecut=    40.00 Ry     beta= 0.60
     Davidson diagonalization with overlap
     ethr =  2.30E-03,  avg # of iterations =  3.1

     total cpu time spent up to now is     2783.1 secs

     total energy              =    -938.29330726 Ry
     Harris-Foulkes estimate   =    -938.27806252 Ry
     estimated scf accuracy    <       0.96125683 Ry

     iteration # 10     ecut=    40.00 Ry     beta= 0.60
     Davidson diagonalization with overlap
     ethr =  9.61E-04,  avg # of iterations =  3.5

     total cpu time spent up to now is     2819.8 secs

     total energy              =    -938.07233000 Ry
     Harris-Foulkes estimate   =    -938.32540664 Ry
     estimated scf accuracy    <       0.91030775 Ry

     iteration # 11     ecut=    40.00 Ry     beta= 0.60
     Davidson diagonalization with overlap
     ethr =  9.10E-04,  avg # of iterations =  5.2

     total cpu time spent up to now is     2872.5 secs

     total energy              =    -938.17096342 Ry
     Harris-Foulkes estimate   =    -938.28522653 Ry
     estimated scf accuracy    <       1.06035647 Ry

     iteration # 12     ecut=    40.00 Ry     beta= 0.60
     Davidson diagonalization with overlap
     ethr =  9.10E-04,  avg # of iterations =  2.2

     total cpu time spent up to now is     2905.6 secs

     total energy              =    -938.23618081 Ry
     Harris-Foulkes estimate   =    -938.26075771 Ry
     estimated scf accuracy    <       0.55565465 Ry

     iteration # 13     ecut=    40.00 Ry     beta= 0.60
     Davidson diagonalization with overlap
     ethr =  5.56E-04,  avg # of iterations =  3.2

     total cpu time spent up to now is     2941.3 secs

     total energy              =    -938.20797995 Ry
     Harris-Foulkes estimate   =    -938.26377497 Ry
     estimated scf accuracy    <       0.57879736 Ry

     iteration # 14     ecut=    40.00 Ry     beta= 0.60
     Davidson diagonalization with overlap
     ethr =  5.56E-04,  avg # of iterations =  1.1

     total cpu time spent up to now is     2971.9 secs

     total energy              =    -938.23269938 Ry
     Harris-Foulkes estimate   =    -938.23604953 Ry
     estimated scf accuracy    <       0.02632991 Ry

     iteration # 15     ecut=    40.00 Ry     beta= 0.60
     Davidson diagonalization with overlap
     ethr =  2.63E-05,  avg # of iterations =  6.0

     total cpu time spent up to now is     3032.3 secs

     total energy              =    -938.24010609 Ry
     Harris-Foulkes estimate   =    -938.24138549 Ry
     estimated scf accuracy    <       0.01478373 Ry

     iteration # 16     ecut=    40.00 Ry     beta= 0.60
     Davidson diagonalization with overlap
     ethr =  1.48E-05,  avg # of iterations =  1.0

     total cpu time spent up to now is     3062.6 secs

     total energy              =    -938.24011313 Ry
     Harris-Foulkes estimate   =    -938.24057661 Ry
     estimated scf accuracy    <       0.00492374 Ry

     iteration # 17     ecut=    40.00 Ry     beta= 0.60
     Davidson diagonalization with overlap
     ethr =  4.92E-06,  avg # of iterations =  2.7

     total cpu time spent up to now is     3097.7 secs

     total energy              =    -938.24020516 Ry
     Harris-Foulkes estimate   =    -938.24038633 Ry
     estimated scf accuracy    <       0.00157561 Ry

     iteration # 18     ecut=    40.00 Ry     beta= 0.60
     Davidson diagonalization with overlap
     c_bands:  1 eigenvalues not converged
     ethr =  1.58E-06,  avg # of iterations =  4.6

     total cpu time spent up to now is     3142.9 secs

     total energy              =    -938.24034255 Ry
     Harris-Foulkes estimate   =    -938.24047416 Ry
     estimated scf accuracy    <       0.00136906 Ry

     iteration # 19     ecut=    40.00 Ry     beta= 0.60
     Davidson diagonalization with overlap
     ethr =  1.37E-06,  avg # of iterations =  1.1

     total cpu time spent up to now is     3173.3 secs

     total energy              =    -938.24038389 Ry
     Harris-Foulkes estimate   =    -938.24040491 Ry
     estimated scf accuracy    <       0.00040138 Ry

     iteration # 20     ecut=    40.00 Ry     beta= 0.60
     Davidson diagonalization with overlap
     ethr =  4.01E-07,  avg # of iterations =  3.2

     total cpu time spent up to now is     3209.5 secs

     total energy              =    -938.24037218 Ry
     Harris-Foulkes estimate   =    -938.24041628 Ry
     estimated scf accuracy    <       0.00069525 Ry

     iteration # 21     ecut=    40.00 Ry     beta= 0.60
     Davidson diagonalization with overlap
     ethr =  4.01E-07,  avg # of iterations =  1.1

     total cpu time spent up to now is     3239.8 secs

     total energy              =    -938.24036676 Ry
     Harris-Foulkes estimate   =    -938.24039189 Ry
     estimated scf accuracy    <       0.00016951 Ry

     iteration # 22     ecut=    40.00 Ry     beta= 0.60
     Davidson diagonalization with overlap
     ethr =  1.70E-07,  avg # of iterations =  3.7

     total cpu time spent up to now is     3281.7 secs

     total energy              =    -938.24038041 Ry
     Harris-Foulkes estimate   =    -938.24039465 Ry
     estimated scf accuracy    <       0.00010428 Ry

     iteration # 23     ecut=    40.00 Ry     beta= 0.60
     Davidson diagonalization with overlap
     ethr =  1.04E-07,  avg # of iterations =  1.7

     total cpu time spent up to now is     3313.4 secs

     total energy              =    -938.24038549 Ry
     Harris-Foulkes estimate   =    -938.24038747 Ry
     estimated scf accuracy    <       0.00001938 Ry

     iteration # 24     ecut=    40.00 Ry     beta= 0.60
     Davidson diagonalization with overlap
     ethr =  1.94E-08,  avg # of iterations =  4.0

     total cpu time spent up to now is     3357.4 secs

     total energy              =    -938.24038835 Ry
     Harris-Foulkes estimate   =    -938.24038889 Ry
     estimated scf accuracy    <       0.00000383 Ry

     iteration # 25     ecut=    40.00 Ry     beta= 0.60
     Davidson diagonalization with overlap
     ethr =  3.83E-09,  avg # of iterations =  2.3

     total cpu time spent up to now is     3390.9 secs

     total energy              =    -938.24038847 Ry
     Harris-Foulkes estimate   =    -938.24038856 Ry
     estimated scf accuracy    <       0.00000064 Ry

     iteration # 26     ecut=    40.00 Ry     beta= 0.60
     Davidson diagonalization with overlap
     ethr =  6.44E-10,  avg # of iterations =  4.3

     total cpu time spent up to now is     3438.6 secs

     total energy              =    -938.24038862 Ry
     Harris-Foulkes estimate   =    -938.24038865 Ry
     estimated scf accuracy    <       0.00000028 Ry

     iteration # 27     ecut=    40.00 Ry     beta= 0.60
     Davidson diagonalization with overlap
     ethr =  2.77E-10,  avg # of iterations =  1.0

     total cpu time spent up to now is     3468.8 secs

     total energy              =    -938.24038862 Ry
     Harris-Foulkes estimate   =    -938.24038863 Ry
     estimated scf accuracy    <       0.00000007 Ry

     iteration # 28     ecut=    40.00 Ry     beta= 0.60
     Davidson diagonalization with overlap
     ethr =  7.02E-11,  avg # of iterations =  4.0

     total cpu time spent up to now is     3514.6 secs

     total energy              =    -938.24038863 Ry
     Harris-Foulkes estimate   =    -938.24038864 Ry
     estimated scf accuracy    <       0.00000005 Ry

     iteration # 29     ecut=    40.00 Ry     beta= 0.60
     Davidson diagonalization with overlap
     ethr =  4.71E-11,  avg # of iterations =  1.0

     total cpu time spent up to now is     3544.8 secs

     total energy              =    -938.24038863 Ry
     Harris-Foulkes estimate   =    -938.24038864 Ry
     estimated scf accuracy    <       0.00000002 Ry

     iteration # 30     ecut=    40.00 Ry     beta= 0.60
     Davidson diagonalization with overlap
     ethr =  2.10E-11,  avg # of iterations =  2.8

     total cpu time spent up to now is     3580.4 secs

     total energy              =    -938.24038863 Ry
     Harris-Foulkes estimate   =    -938.24038863 Ry
     estimated scf accuracy    <          8.2E-09 Ry

     iteration # 31     ecut=    40.00 Ry     beta= 0.60
     Davidson diagonalization with overlap
     ethr =  8.17E-12,  avg # of iterations =  3.7

     total cpu time spent up to now is     3622.1 secs

     total energy              =    -938.24038863 Ry
     Harris-Foulkes estimate   =    -938.24038864 Ry
     estimated scf accuracy    <       0.00000003 Ry

     iteration # 32     ecut=    40.00 Ry     beta= 0.60
     Davidson diagonalization with overlap
     ethr =  8.17E-12,  avg # of iterations =  4.0

     total cpu time spent up to now is     3662.3 secs

     total energy              =    -938.24038863 Ry
     Harris-Foulkes estimate   =    -938.24038864 Ry
     estimated scf accuracy    <       0.00000003 Ry

     iteration # 33     ecut=    40.00 Ry     beta= 0.60
     Davidson diagonalization with overlap
     ethr =  8.17E-12,  avg # of iterations =  2.7

     total cpu time spent up to now is     3696.6 secs

     total energy              =    -938.24038863 Ry
     Harris-Foulkes estimate   =    -938.24038864 Ry
     estimated scf accuracy    <          6.9E-09 Ry

     iteration # 34     ecut=    40.00 Ry     beta= 0.60
     Davidson diagonalization with overlap
     ethr =  6.89E-12,  avg # of iterations =  1.7

     total cpu time spent up to now is     3728.4 secs

     total energy              =    -938.24038863 Ry
     Harris-Foulkes estimate   =    -938.24038864 Ry
     estimated scf accuracy    <          1.4E-09 Ry

     iteration # 35     ecut=    40.00 Ry     beta= 0.60
     Davidson diagonalization with overlap
     ethr =  1.43E-12,  avg # of iterations =  3.9

     total cpu time spent up to now is     3768.8 secs

     total energy              =    -938.24038864 Ry
     Harris-Foulkes estimate   =    -938.24038864 Ry
     estimated scf accuracy    <          1.1E-10 Ry

     iteration # 36     ecut=    40.00 Ry     beta= 0.60
     Davidson diagonalization with overlap
     ethr =  1.13E-13,  avg # of iterations =  4.2

     total cpu time spent up to now is     3813.8 secs

     End of self-consistent calculation

     Number of k-points >= 100: set verbosity='high' to print the bands.

     the Fermi energy is    14.9302 ev

!    total energy              =    -938.24038864 Ry
     Harris-Foulkes estimate   =    -938.24038864 Ry
     estimated scf accuracy    <          2.0E-11 Ry

     The total energy is the sum of the following terms:

     one-electron contribution =    -249.96284064 Ry
     hartree contribution      =     163.34919949 Ry
     xc contribution           =    -131.43654586 Ry
     ewald contribution        =    -720.18403138 Ry
     smearing contrib. (-TS)   =      -0.00617023 Ry

     convergence has been achieved in  36 iterations

     Forces acting on atoms (cartesian axes, Ry/au):

     atom    1 type  1   force =    -0.00250463   -0.00144605    0.00000000
     atom    2 type  2   force =    -0.00300000   -0.00173205    0.00000000
     atom    3 type  2   force =    -0.00074629   -0.00043087    0.00000000
     atom    4 type  1   force =    -0.00102513   -0.00059186    0.00000000
     atom    5 type  2   force =     0.00199621    0.00115251    0.00000000
     atom    6 type  1   force =     0.00228193    0.00131748    0.00000000
     atom    7 type  2   force =     0.00247637    0.00142973    0.00000000
     atom    8 type  1   force =     0.00052153    0.00030111    0.00000000

     Total force =     0.006581     Total SCF correction =     0.000018


     Computing stress (Cartesian axis) and pressure

          total   stress  (Ry/bohr**3)                   (kbar)     P=  -57.67
  -0.00042874   0.00003005   0.00000000        -63.07      4.42      0.00
   0.00003005  -0.00046344   0.00000000          4.42    -68.17      0.00
   0.00000000   0.00000000  -0.00028391          0.00      0.00    -41.76


     number of scf cycles    =   2
     number of bfgs steps    =   1

     enthalpy old            =    -938.1964302232 Ry
     enthalpy new            =    -938.2403886351 Ry

     CASE: enthalpy_new < enthalpy_old

     new trust radius        =       0.1312408605 bohr
     new conv_thr            =            1.0E-10 Ry

     new unit-cell volume =    957.87498 a.u.^3 (   141.94242 Ang^3 )
     density =      6.58745 g/cm^3

CELL_PARAMETERS (alat=  1.88972599)
   1.454896698  -2.519955191   0.000000000
   0.000000000   0.000000000  -4.816123902
   8.771686741   5.064336080   0.000000000

ATOMIC_POSITIONS (angstrom)
Nb       2.918171468   0.004837082  -4.816123902
Ti       2.913688918  -1.677722727  -2.408061951
Ti       5.838419791   0.010873236  -4.816123902
Nb       4.381271376   0.849556591  -2.408061951
Ti       7.308924593   2.539839769  -4.816123902
Nb       7.305991019   0.858174263  -2.408061951
Ti      10.230095602   2.546408637  -4.816123902
Nb       8.767361383   3.381867025  -2.408061951


     NEW-OLD atomic charge density approx. for the potential

     Check: negative/imaginary core charge=   -0.000001    0.000000
     extrapolated charge   94.80526, renormalised to  100.00000

     total cpu time spent up to now is     3837.7 secs

     Self-consistent Calculation

     iteration #  1     ecut=    40.00 Ry     beta= 0.60
     Davidson diagonalization with overlap
     c_bands:  1 eigenvalues not converged
     c_bands:  1 eigenvalues not converged
     c_bands:  4 eigenvalues not converged
     c_bands:  4 eigenvalues not converged
     c_bands:  1 eigenvalues not converged
     c_bands:  1 eigenvalues not converged
     c_bands:  1 eigenvalues not converged
     c_bands:  1 eigenvalues not converged
     c_bands:  1 eigenvalues not converged
     c_bands:  2 eigenvalues not converged
     c_bands:  1 eigenvalues not converged
     c_bands:  3 eigenvalues not converged
     c_bands:  1 eigenvalues not converged
     c_bands:  3 eigenvalues not converged
     c_bands:  2 eigenvalues not converged
     c_bands:  1 eigenvalues not converged
     c_bands:  2 eigenvalues not converged
     c_bands:  1 eigenvalues not converged
     c_bands:  1 eigenvalues not converged
     c_bands:  2 eigenvalues not converged
     c_bands:  1 eigenvalues not converged
     c_bands:  1 eigenvalues not converged
     c_bands:  2 eigenvalues not converged
     c_bands:  2 eigenvalues not converged
     c_bands:  1 eigenvalues not converged
     c_bands:  1 eigenvalues not converged
     c_bands:  3 eigenvalues not converged
     c_bands:  1 eigenvalues not converged
     c_bands:  2 eigenvalues not converged
     c_bands:  1 eigenvalues not converged
     c_bands:  1 eigenvalues not converged
     c_bands:  2 eigenvalues not converged
     c_bands:  2 eigenvalues not converged
     c_bands:  2 eigenvalues not converged
     c_bands:  1 eigenvalues not converged
     c_bands:  1 eigenvalues not converged
     c_bands:  1 eigenvalues not converged
     c_bands:  3 eigenvalues not converged
     c_bands:  1 eigenvalues not converged
     c_bands:  1 eigenvalues not converged
     c_bands:  2 eigenvalues not converged
     c_bands:  1 eigenvalues not converged
     c_bands:  2 eigenvalues not converged
     c_bands:  1 eigenvalues not converged
     c_bands:  1 eigenvalues not converged
     c_bands:  1 eigenvalues not converged
     c_bands:  2 eigenvalues not converged
     c_bands:  1 eigenvalues not converged
     c_bands:  1 eigenvalues not converged
     c_bands:  1 eigenvalues not converged
     c_bands:  2 eigenvalues not converged
     c_bands:  2 eigenvalues not converged
     c_bands:  1 eigenvalues not converged
     c_bands:  1 eigenvalues not converged
     c_bands:  1 eigenvalues not converged
     c_bands:  2 eigenvalues not converged
     c_bands:  2 eigenvalues not converged
     c_bands:  2 eigenvalues not converged
     c_bands:  1 eigenvalues not converged
     c_bands:  1 eigenvalues not converged
     c_bands:  1 eigenvalues not converged
     c_bands:  1 eigenvalues not converged
     c_bands:  1 eigenvalues not converged
     c_bands:  1 eigenvalues not converged
     c_bands:  1 eigenvalues not converged
     c_bands:  1 eigenvalues not converged
     c_bands:  1 eigenvalues not converged
     c_bands:  1 eigenvalues not converged
     c_bands:  1 eigenvalues not converged
     c_bands:  2 eigenvalues not converged
     c_bands:  2 eigenvalues not converged
     c_bands:  1 eigenvalues not converged
     c_bands:  1 eigenvalues not converged
     c_bands:  1 eigenvalues not converged
     c_bands:  1 eigenvalues not converged
     c_bands:  2 eigenvalues not converged
     c_bands:  3 eigenvalues not converged
     c_bands:  2 eigenvalues not converged
     c_bands:  2 eigenvalues not converged
     c_bands:  2 eigenvalues not converged
     c_bands:  2 eigenvalues not converged
     c_bands:  3 eigenvalues not converged
     c_bands:  4 eigenvalues not converged
     c_bands:  1 eigenvalues not converged
     c_bands:  2 eigenvalues not converged
     c_bands:  1 eigenvalues not converged
     c_bands:  2 eigenvalues not converged
     c_bands:  2 eigenvalues not converged
     c_bands:  2 eigenvalues not converged
     c_bands:  1 eigenvalues not converged
     c_bands:  2 eigenvalues not converged
     c_bands:  1 eigenvalues not converged
     c_bands:  2 eigenvalues not converged
     c_bands:  2 eigenvalues not converged
     c_bands:  3 eigenvalues not converged
     c_bands:  2 eigenvalues not converged
     c_bands:  1 eigenvalues not converged
     c_bands:  1 eigenvalues not converged
     c_bands:  2 eigenvalues not converged
     c_bands:  2 eigenvalues not converged
     c_bands:  2 eigenvalues not converged
     c_bands:  2 eigenvalues not converged
     c_bands:  1 eigenvalues not converged
     c_bands:  1 eigenvalues not converged
     c_bands:  1 eigenvalues not converged
     c_bands:  1 eigenvalues not converged
     c_bands:  1 eigenvalues not converged
     c_bands:  1 eigenvalues not converged
     ethr =  1.00E-06,  avg # of iterations = 17.9

     total cpu time spent up to now is     3984.7 secs

     total energy              =    -933.19425787 Ry
     Harris-Foulkes estimate   =    -947.24866926 Ry
     estimated scf accuracy    <       5.31099908 Ry

     iteration #  2     ecut=    40.00 Ry     beta= 0.60
     Davidson diagonalization with overlap
     ethr =  5.31E-03,  avg # of iterations =  5.4

     total cpu time spent up to now is     4056.1 secs

     total energy              =    -933.48554033 Ry
     Harris-Foulkes estimate   =    -948.55934742 Ry
     estimated scf accuracy    <      78.23786598 Ry

     iteration #  3     ecut=    40.00 Ry     beta= 0.60
     Davidson diagonalization with overlap
     ethr =  5.31E-03,  avg # of iterations =  5.5

     total cpu time spent up to now is     4118.7 secs

     total energy              =    -935.33116063 Ry
     Harris-Foulkes estimate   =    -945.14108965 Ry
     estimated scf accuracy    <      90.26829951 Ry

     iteration #  4     ecut=    40.00 Ry     beta= 0.60
     Davidson diagonalization with overlap
     ethr =  5.31E-03,  avg # of iterations =  5.4

     total cpu time spent up to now is     4173.5 secs

     total energy              =    -938.25195276 Ry
     Harris-Foulkes estimate   =    -939.48257246 Ry
     estimated scf accuracy    <       8.29333273 Ry

     iteration #  5     ecut=    40.00 Ry     beta= 0.60
     Davidson diagonalization with overlap
     ethr =  5.31E-03,  avg # of iterations =  3.2

     total cpu time spent up to now is     4209.8 secs

     total energy              =    -938.10021564 Ry
     Harris-Foulkes estimate   =    -939.24049521 Ry
     estimated scf accuracy    <      14.55390497 Ry

     iteration #  6     ecut=    40.00 Ry     beta= 0.60
     Davidson diagonalization with overlap
     ethr =  5.31E-03,  avg # of iterations =  1.9

     total cpu time spent up to now is     4242.2 secs

     total energy              =    -938.32611314 Ry
     Harris-Foulkes estimate   =    -938.76255461 Ry
     estimated scf accuracy    <       3.56392250 Ry

     iteration #  7     ecut=    40.00 Ry     beta= 0.60
     Davidson diagonalization with overlap
     ethr =  3.56E-03,  avg # of iterations =  1.0

     total cpu time spent up to now is     4272.6 secs

     total energy              =    -938.30194614 Ry
     Harris-Foulkes estimate   =    -938.43107708 Ry
     estimated scf accuracy    <       1.81288023 Ry

     iteration #  8     ecut=    40.00 Ry     beta= 0.60
     Davidson diagonalization with overlap
     ethr =  1.81E-03,  avg # of iterations =  1.3

     total cpu time spent up to now is     4303.5 secs

     total energy              =    -938.21575972 Ry
     Harris-Foulkes estimate   =    -938.33812582 Ry
     estimated scf accuracy    <       1.13609679 Ry

     iteration #  9     ecut=    40.00 Ry     beta= 0.60
     Davidson diagonalization with overlap
     ethr =  1.14E-03,  avg # of iterations =  3.4

     total cpu time spent up to now is     4339.5 secs

     total energy              =    -938.27495228 Ry
     Harris-Foulkes estimate   =    -938.25929122 Ry
     estimated scf accuracy    <       0.42138552 Ry

     iteration # 10     ecut=    40.00 Ry     beta= 0.60
     Davidson diagonalization with overlap
     ethr =  4.21E-04,  avg # of iterations =  3.9

     total cpu time spent up to now is     4377.7 secs

     total energy              =    -938.16658853 Ry
     Harris-Foulkes estimate   =    -938.29318429 Ry
     estimated scf accuracy    <       0.40654443 Ry

     iteration # 11     ecut=    40.00 Ry     beta= 0.60
     Davidson diagonalization with overlap
     ethr =  4.07E-04,  avg # of iterations =  5.1

     total cpu time spent up to now is     4429.2 secs

     total energy              =    -938.23804082 Ry
     Harris-Foulkes estimate   =    -938.26488913 Ry
     estimated scf accuracy    <       0.22336100 Ry

     iteration # 12     ecut=    40.00 Ry     beta= 0.60
     Davidson diagonalization with overlap
     ethr =  2.23E-04,  avg # of iterations =  1.9

     total cpu time spent up to now is     4461.6 secs

     total energy              =    -938.24377031 Ry
     Harris-Foulkes estimate   =    -938.25185235 Ry
     estimated scf accuracy    <       0.07291399 Ry

     iteration # 13     ecut=    40.00 Ry     beta= 0.60
     Davidson diagonalization with overlap
     ethr =  7.29E-05,  avg # of iterations =  4.2

     total cpu time spent up to now is     4502.8 secs

     total energy              =    -938.24791027 Ry
     Harris-Foulkes estimate   =    -938.25116861 Ry
     estimated scf accuracy    <       0.01697809 Ry

     iteration # 14     ecut=    40.00 Ry     beta= 0.60
     Davidson diagonalization with overlap
     ethr =  1.70E-05,  avg # of iterations =  5.9

     total cpu time spent up to now is     4556.8 secs

     total energy              =    -938.24701096 Ry
     Harris-Foulkes estimate   =    -938.25339089 Ry
     estimated scf accuracy    <       0.11484146 Ry

     iteration # 15     ecut=    40.00 Ry     beta= 0.60
     Davidson diagonalization with overlap
     ethr =  1.70E-05,  avg # of iterations =  3.4

     total cpu time spent up to now is     4593.8 secs

     total energy              =    -938.24939324 Ry
     Harris-Foulkes estimate   =    -938.25044381 Ry
     estimated scf accuracy    <       0.01372954 Ry

     iteration # 16     ecut=    40.00 Ry     beta= 0.60
     Davidson diagonalization with overlap
     ethr =  1.37E-05,  avg # of iterations =  1.6

     total cpu time spent up to now is     4625.4 secs

     total energy              =    -938.24974946 Ry
     Harris-Foulkes estimate   =    -938.24990650 Ry
     estimated scf accuracy    <       0.00176449 Ry

     iteration # 17     ecut=    40.00 Ry     beta= 0.60
     Davidson diagonalization with overlap
     ethr =  1.76E-06,  avg # of iterations =  5.9

     total cpu time spent up to now is     4678.7 secs

     total energy              =    -938.24995343 Ry
     Harris-Foulkes estimate   =    -938.25002186 Ry
     estimated scf accuracy    <       0.00107164 Ry

     iteration # 18     ecut=    40.00 Ry     beta= 0.60
     Davidson diagonalization with overlap
     ethr =  1.07E-06,  avg # of iterations =  1.0

     total cpu time spent up to now is     4709.0 secs

     total energy              =    -938.24996778 Ry
     Harris-Foulkes estimate   =    -938.24999413 Ry
     estimated scf accuracy    <       0.00021858 Ry

     iteration # 19     ecut=    40.00 Ry     beta= 0.60
     Davidson diagonalization with overlap
     ethr =  2.19E-07,  avg # of iterations =  3.6

     total cpu time spent up to now is     4748.8 secs

     total energy              =    -938.24998036 Ry
     Harris-Foulkes estimate   =    -938.24999384 Ry
     estimated scf accuracy    <       0.00009954 Ry

     iteration # 20     ecut=    40.00 Ry     beta= 0.60
     Davidson diagonalization with overlap
     ethr =  9.95E-08,  avg # of iterations =  2.1

     total cpu time spent up to now is     4781.7 secs

     total energy              =    -938.24998624 Ry
     Harris-Foulkes estimate   =    -938.24998820 Ry
     estimated scf accuracy    <       0.00002028 Ry

     iteration # 21     ecut=    40.00 Ry     beta= 0.60
     Davidson diagonalization with overlap
     ethr =  2.03E-08,  avg # of iterations =  3.4

     total cpu time spent up to now is     4821.2 secs

     total energy              =    -938.24998813 Ry
     Harris-Foulkes estimate   =    -938.24998845 Ry
     estimated scf accuracy    <       0.00000169 Ry

     iteration # 22     ecut=    40.00 Ry     beta= 0.60
     Davidson diagonalization with overlap
     ethr =  1.69E-09,  avg # of iterations =  4.5

     total cpu time spent up to now is     4869.3 secs

     total energy              =    -938.24998811 Ry
     Harris-Foulkes estimate   =    -938.24998885 Ry
     estimated scf accuracy    <       0.00000728 Ry

     iteration # 23     ecut=    40.00 Ry     beta= 0.60
     Davidson diagonalization with overlap
     ethr =  1.69E-09,  avg # of iterations =  3.9

     total cpu time spent up to now is     4909.4 secs

     total energy              =    -938.24998839 Ry
     Harris-Foulkes estimate   =    -938.24998856 Ry
     estimated scf accuracy    <       0.00000114 Ry

     iteration # 24     ecut=    40.00 Ry     beta= 0.60
     Davidson diagonalization with overlap
     ethr =  1.14E-09,  avg # of iterations =  3.0

     total cpu time spent up to now is     4945.6 secs

     total energy              =    -938.24998847 Ry
     Harris-Foulkes estimate   =    -938.24998851 Ry
     estimated scf accuracy    <       0.00000018 Ry

     iteration # 25     ecut=    40.00 Ry     beta= 0.60
     Davidson diagonalization with overlap
     ethr =  1.81E-10,  avg # of iterations =  3.9

     total cpu time spent up to now is     4988.7 secs

     total energy              =    -938.24998849 Ry
     Harris-Foulkes estimate   =    -938.24998852 Ry
     estimated scf accuracy    <       0.00000047 Ry

     iteration # 26     ecut=    40.00 Ry     beta= 0.60
     Davidson diagonalization with overlap
     ethr =  1.81E-10,  avg # of iterations =  2.7

     total cpu time spent up to now is     5023.2 secs

     total energy              =    -938.24998849 Ry
     Harris-Foulkes estimate   =    -938.24998851 Ry
     estimated scf accuracy    <       0.00000016 Ry

     iteration # 27     ecut=    40.00 Ry     beta= 0.60
     Davidson diagonalization with overlap
     ethr =  1.57E-10,  avg # of iterations =  3.3

     total cpu time spent up to now is     5062.1 secs

     total energy              =    -938.24998849 Ry
     Harris-Foulkes estimate   =    -938.24998853 Ry
     estimated scf accuracy    <       0.00000040 Ry

     iteration # 28     ecut=    40.00 Ry     beta= 0.60
     Davidson diagonalization with overlap
     ethr =  1.57E-10,  avg # of iterations =  2.7

     total cpu time spent up to now is     5097.1 secs

     total energy              =    -938.24998850 Ry
     Harris-Foulkes estimate   =    -938.24998851 Ry
     estimated scf accuracy    <       0.00000005 Ry

     iteration # 29     ecut=    40.00 Ry     beta= 0.60
     Davidson diagonalization with overlap
     ethr =  5.17E-11,  avg # of iterations =  2.4

     total cpu time spent up to now is     5131.4 secs

     total energy              =    -938.24998851 Ry
     Harris-Foulkes estimate   =    -938.24998851 Ry
     estimated scf accuracy    <          7.2E-09 Ry

     iteration # 30     ecut=    40.00 Ry     beta= 0.60
     Davidson diagonalization with overlap
     ethr =  7.18E-12,  avg # of iterations =  4.1

     total cpu time spent up to now is     5175.2 secs

     total energy              =    -938.24998851 Ry
     Harris-Foulkes estimate   =    -938.24998851 Ry
     estimated scf accuracy    <       0.00000001 Ry

     iteration # 31     ecut=    40.00 Ry     beta= 0.60
     Davidson diagonalization with overlap
     ethr =  7.18E-12,  avg # of iterations =  2.3

     total cpu time spent up to now is     5208.4 secs

     total energy              =    -938.24998851 Ry
     Harris-Foulkes estimate   =    -938.24998851 Ry
     estimated scf accuracy    <          8.4E-10 Ry

     iteration # 32     ecut=    40.00 Ry     beta= 0.60
     Davidson diagonalization with overlap
     ethr =  8.42E-13,  avg # of iterations =  4.1

     total cpu time spent up to now is     5254.2 secs

     total energy              =    -938.24998851 Ry
     Harris-Foulkes estimate   =    -938.24998851 Ry
     estimated scf accuracy    <          1.5E-09 Ry

     iteration # 33     ecut=    40.00 Ry     beta= 0.60
     Davidson diagonalization with overlap
     ethr =  8.42E-13,  avg # of iterations =  1.7

     total cpu time spent up to now is     5286.0 secs

     total energy              =    -938.24998851 Ry
     Harris-Foulkes estimate   =    -938.24998851 Ry
     estimated scf accuracy    <          4.0E-10 Ry

     iteration # 34     ecut=    40.00 Ry     beta= 0.60
     Davidson diagonalization with overlap
     ethr =  4.02E-13,  avg # of iterations =  3.9

     total cpu time spent up to now is     5330.1 secs

     total energy              =    -938.24998851 Ry
     Harris-Foulkes estimate   =    -938.24998851 Ry
     estimated scf accuracy    <          5.7E-10 Ry

     iteration # 35     ecut=    40.00 Ry     beta= 0.60
     Davidson diagonalization with overlap
     ethr =  4.02E-13,  avg # of iterations =  2.0

     total cpu time spent up to now is     5362.6 secs

     total energy              =    -938.24998851 Ry
     Harris-Foulkes estimate   =    -938.24998851 Ry
     estimated scf accuracy    <          1.1E-10 Ry

     iteration # 36     ecut=    40.00 Ry     beta= 0.60
     Davidson diagonalization with overlap
     ethr =  1.06E-13,  avg # of iterations =  4.0

     total cpu time spent up to now is     5407.5 secs

     total energy              =    -938.24998851 Ry
     Harris-Foulkes estimate   =    -938.24998851 Ry
     estimated scf accuracy    <          3.0E-10 Ry

     iteration # 37     ecut=    40.00 Ry     beta= 0.60
     Davidson diagonalization with overlap
     ethr =  1.06E-13,  avg # of iterations =  2.0

     total cpu time spent up to now is     5439.8 secs

     End of self-consistent calculation

     Number of k-points >= 100: set verbosity='high' to print the bands.

     the Fermi energy is    15.8701 ev

!    total energy              =    -938.24998851 Ry
     Harris-Foulkes estimate   =    -938.24998851 Ry
     estimated scf accuracy    <          4.1E-11 Ry

     The total energy is the sum of the following terms:

     one-electron contribution =    -231.42704721 Ry
     hartree contribution      =     157.95754053 Ry
     xc contribution           =    -131.82894552 Ry
     ewald contribution        =    -732.94635525 Ry
     smearing contrib. (-TS)   =      -0.00518107 Ry

     convergence has been achieved in  37 iterations

     Forces acting on atoms (cartesian axes, Ry/au):

     atom    1 type  1   force =    -0.00419029   -0.00241927    0.00000000
     atom    2 type  2   force =    -0.00462552   -0.00267054    0.00000000
     atom    3 type  2   force =     0.00160139    0.00092456    0.00000000
     atom    4 type  1   force =    -0.00211129   -0.00121895    0.00000000
     atom    5 type  2   force =     0.00230725    0.00133209    0.00000000
     atom    6 type  1   force =     0.00158338    0.00091417    0.00000000
     atom    7 type  2   force =     0.00229566    0.00132540    0.00000000
     atom    8 type  1   force =     0.00313940    0.00181254    0.00000000

     Total force =     0.009587     Total SCF correction =     0.000021


     Computing stress (Cartesian axis) and pressure

          total   stress  (Ry/bohr**3)                   (kbar)     P=   11.42
   0.00004295   0.00003011   0.00000000          6.32      4.43      0.00
   0.00003011   0.00000819   0.00000000          4.43      1.20      0.00
   0.00000000   0.00000000   0.00018184          0.00      0.00     26.75


     number of scf cycles    =   3
     number of bfgs steps    =   2

     enthalpy old            =    -938.2403886351 Ry
     enthalpy new            =    -938.2499885086 Ry

     CASE: enthalpy_new < enthalpy_old

     new trust radius        =       0.0255945777 bohr
     new conv_thr            =            1.0E-10 Ry

     new unit-cell volume =    964.08724 a.u.^3 (   142.86299 Ang^3 )
     density =      6.54500 g/cm^3

CELL_PARAMETERS (alat=  1.88972599)
   1.455614416  -2.521198315   0.000000000
   0.000000000   0.000000000  -4.836038027
   8.787885221   5.073688275   0.000000000

ATOMIC_POSITIONS (angstrom)
Nb       2.920870681   0.005566724  -4.836038027
Ti       2.915222574  -1.678494770  -2.418019013
Ti       5.847933452   0.014708452  -4.836038027
Nb       4.387508443   0.852328812  -2.418019013
Ti       7.322361367   2.546768745  -4.836038027
Nb       7.318119447   0.863519114  -2.418019013
Ti      10.247922703   2.555043619  -4.836038027
Nb       8.783884701   3.390578017  -2.418019013


     NEW-OLD atomic charge density approx. for the potential

     Check: negative/imaginary core charge=   -0.000001    0.000000
     extrapolated charge  100.61852, renormalised to  100.00000

     total cpu time spent up to now is     5463.7 secs

     Self-consistent Calculation

     iteration #  1     ecut=    40.00 Ry     beta= 0.60
     Davidson diagonalization with overlap
     c_bands:  1 eigenvalues not converged
     c_bands:  1 eigenvalues not converged
     ethr =  1.00E-06,  avg # of iterations =  7.7

     total cpu time spent up to now is     5542.8 secs

     total energy              =    -938.21753365 Ry
     Harris-Foulkes estimate   =    -937.22342901 Ry
     estimated scf accuracy    <       0.03175625 Ry

     iteration #  2     ecut=    40.00 Ry     beta= 0.60
     Davidson diagonalization with overlap
     c_bands:  1 eigenvalues not converged
     c_bands:  1 eigenvalues not converged
     ethr =  3.18E-05,  avg # of iterations =  8.4

     total cpu time spent up to now is     5619.2 secs

     total energy              =    -938.05159436 Ry
     Harris-Foulkes estimate   =    -938.44099987 Ry
     estimated scf accuracy    <       6.63653434 Ry

     iteration #  3     ecut=    40.00 Ry     beta= 0.60
     Davidson diagonalization with overlap
     ethr =  3.18E-05,  avg # of iterations =  6.1

     total cpu time spent up to now is     5687.9 secs

     total energy              =    -938.22169481 Ry
     Harris-Foulkes estimate   =    -938.28417259 Ry
     estimated scf accuracy    <       0.75286475 Ry

     iteration #  4     ecut=    40.00 Ry     beta= 0.60
     Davidson diagonalization with overlap
     ethr =  3.18E-05,  avg # of iterations =  5.3

     total cpu time spent up to now is     5746.1 secs

     total energy              =    -938.24178368 Ry
     Harris-Foulkes estimate   =    -938.25774574 Ry
     estimated scf accuracy    <       0.11766260 Ry

     iteration #  5     ecut=    40.00 Ry     beta= 0.60
     Davidson diagonalization with overlap
     ethr =  3.18E-05,  avg # of iterations =  5.3

     total cpu time spent up to now is     5796.0 secs

     total energy              =    -938.24160044 Ry
     Harris-Foulkes estimate   =    -938.26220257 Ry
     estimated scf accuracy    <       0.35642282 Ry

     iteration #  6     ecut=    40.00 Ry     beta= 0.60
     Davidson diagonalization with overlap
     ethr =  3.18E-05,  avg # of iterations =  4.7

     total cpu time spent up to now is     5839.0 secs

     total energy              =    -938.25056373 Ry
     Harris-Foulkes estimate   =    -938.25262002 Ry
     estimated scf accuracy    <       0.02116459 Ry

     iteration #  7     ecut=    40.00 Ry     beta= 0.60
     Davidson diagonalization with overlap
     ethr =  2.12E-05,  avg # of iterations =  1.8

     total cpu time spent up to now is     5871.0 secs

     total energy              =    -938.25126159 Ry
     Harris-Foulkes estimate   =    -938.25151238 Ry
     estimated scf accuracy    <       0.00668143 Ry

     iteration #  8     ecut=    40.00 Ry     beta= 0.60
     Davidson diagonalization with overlap
     ethr =  6.68E-06,  avg # of iterations =  3.4

     total cpu time spent up to now is     5907.4 secs

     total energy              =    -938.25101278 Ry
     Harris-Foulkes estimate   =    -938.25144343 Ry
     estimated scf accuracy    <       0.00560610 Ry

     iteration #  9     ecut=    40.00 Ry     beta= 0.60
     Davidson diagonalization with overlap
     ethr =  5.61E-06,  avg # of iterations =  1.0

     total cpu time spent up to now is     5937.7 secs

     total energy              =    -938.25087823 Ry
     Harris-Foulkes estimate   =    -938.25110100 Ry
     estimated scf accuracy    <       0.00373391 Ry

     iteration # 10     ecut=    40.00 Ry     beta= 0.60
     Davidson diagonalization with overlap
     c_bands:  1 eigenvalues not converged
     ethr =  3.73E-06,  avg # of iterations =  2.0

     total cpu time spent up to now is     5970.2 secs

     total energy              =    -938.25030349 Ry
     Harris-Foulkes estimate   =    -938.25094981 Ry
     estimated scf accuracy    <       0.00257345 Ry

     iteration # 11     ecut=    40.00 Ry     beta= 0.60
     Davidson diagonalization with overlap
     ethr =  2.57E-06,  avg # of iterations =  4.7

     total cpu time spent up to now is     6015.3 secs

     total energy              =    -938.25060686 Ry
     Harris-Foulkes estimate   =    -938.25063676 Ry
     estimated scf accuracy    <       0.00010439 Ry

     iteration # 12     ecut=    40.00 Ry     beta= 0.60
     Davidson diagonalization with overlap
     ethr =  1.04E-07,  avg # of iterations =  5.0

     total cpu time spent up to now is     6071.4 secs

     total energy              =    -938.25062419 Ry
     Harris-Foulkes estimate   =    -938.25067837 Ry
     estimated scf accuracy    <       0.00027450 Ry

     iteration # 13     ecut=    40.00 Ry     beta= 0.60
     Davidson diagonalization with overlap
     ethr =  1.04E-07,  avg # of iterations =  4.6

     total cpu time spent up to now is     6120.5 secs

     total energy              =    -938.25057006 Ry
     Harris-Foulkes estimate   =    -938.25073928 Ry
     estimated scf accuracy    <       0.00329966 Ry

     iteration # 14     ecut=    40.00 Ry     beta= 0.60
     Davidson diagonalization with overlap
     ethr =  1.04E-07,  avg # of iterations =  4.4

     total cpu time spent up to now is     6165.7 secs

     total energy              =    -938.25065401 Ry
     Harris-Foulkes estimate   =    -938.25065539 Ry
     estimated scf accuracy    <       0.00000758 Ry

     iteration # 15     ecut=    40.00 Ry     beta= 0.60
     Davidson diagonalization with overlap
     ethr =  7.58E-09,  avg # of iterations =  4.0

     total cpu time spent up to now is     6209.4 secs

     total energy              =    -938.25065483 Ry
     Harris-Foulkes estimate   =    -938.25065538 Ry
     estimated scf accuracy    <       0.00000373 Ry

     iteration # 16     ecut=    40.00 Ry     beta= 0.60
     Davidson diagonalization with overlap
     ethr =  3.73E-09,  avg # of iterations =  3.8

     total cpu time spent up to now is     6248.0 secs

     total energy              =    -938.25065443 Ry
     Harris-Foulkes estimate   =    -938.25065573 Ry
     estimated scf accuracy    <       0.00002234 Ry

     iteration # 17     ecut=    40.00 Ry     beta= 0.60
     Davidson diagonalization with overlap
     ethr =  3.73E-09,  avg # of iterations =  3.4

     total cpu time spent up to now is     6285.0 secs

     total energy              =    -938.25065482 Ry
     Harris-Foulkes estimate   =    -938.25065521 Ry
     estimated scf accuracy    <       0.00000155 Ry

     iteration # 18     ecut=    40.00 Ry     beta= 0.60
     Davidson diagonalization with overlap
     ethr =  1.55E-09,  avg # of iterations =  4.2

     total cpu time spent up to now is     6330.2 secs

     total energy              =    -938.25065486 Ry
     Harris-Foulkes estimate   =    -938.25065540 Ry
     estimated scf accuracy    <       0.00000471 Ry

     iteration # 19     ecut=    40.00 Ry     beta= 0.60
     Davidson diagonalization with overlap
     ethr =  1.55E-09,  avg # of iterations =  3.1

     total cpu time spent up to now is     6365.6 secs

     total energy              =    -938.25065505 Ry
     Harris-Foulkes estimate   =    -938.25065508 Ry
     estimated scf accuracy    <       0.00000022 Ry

     iteration # 20     ecut=    40.00 Ry     beta= 0.60
     Davidson diagonalization with overlap
     ethr =  2.18E-10,  avg # of iterations =  4.5

     total cpu time spent up to now is     6414.2 secs

     total energy              =    -938.25065511 Ry
     Harris-Foulkes estimate   =    -938.25065513 Ry
     estimated scf accuracy    <       0.00000017 Ry

     iteration # 21     ecut=    40.00 Ry     beta= 0.60
     Davidson diagonalization with overlap
     ethr =  1.68E-10,  avg # of iterations =  1.0

     total cpu time spent up to now is     6444.5 secs

     total energy              =    -938.25065511 Ry
     Harris-Foulkes estimate   =    -938.25065512 Ry
     estimated scf accuracy    <       0.00000005 Ry

     iteration # 22     ecut=    40.00 Ry     beta= 0.60
     Davidson diagonalization with overlap
     ethr =  4.75E-11,  avg # of iterations =  4.0

     total cpu time spent up to now is     6487.2 secs

     total energy              =    -938.25065512 Ry
     Harris-Foulkes estimate   =    -938.25065512 Ry
     estimated scf accuracy    <       0.00000002 Ry

     iteration # 23     ecut=    40.00 Ry     beta= 0.60
     Davidson diagonalization with overlap
     ethr =  1.55E-11,  avg # of iterations =  2.4

     total cpu time spent up to now is     6521.3 secs

     total energy              =    -938.25065512 Ry
     Harris-Foulkes estimate   =    -938.25065512 Ry
[...]

     total cpu time spent up to now is    38586.1 secs

     total energy              =    -942.50005539 Ry
     Harris-Foulkes estimate   =    -945.76762998 Ry
     estimated scf accuracy    <     121.98044298 Ry

     iteration #  6     ecut=    40.00 Ry     beta= 0.60
     Davidson diagonalization with overlap
     ethr =  1.00E-02,  avg # of iterations =  1.6

     total cpu time spent up to now is    38614.2 secs

     total energy              =    -939.69048085 Ry
     Harris-Foulkes estimate   =    -943.15282117 Ry
     estimated scf accuracy    <      65.84497374 Ry

     iteration #  7     ecut=    40.00 Ry     beta= 0.60
     Davidson diagonalization with overlap
     ethr =  1.00E-02,  avg # of iterations =  2.1

     total cpu time spent up to now is    38643.4 secs

     total energy              =    -940.06721043 Ry
     Harris-Foulkes estimate   =    -940.47367627 Ry
     estimated scf accuracy    <      41.91268290 Ry

     iteration #  8     ecut=    40.00 Ry     beta= 0.60
     Davidson diagonalization with overlap
     ethr =  1.00E-02,  avg # of iterations =  1.1

     total cpu time spent up to now is    38670.5 secs

     total energy              =    -940.01728580 Ry
     Harris-Foulkes estimate   =    -940.15802495 Ry
     estimated scf accuracy    <      38.42150079 Ry

     iteration #  9     ecut=    40.00 Ry     beta= 0.60
     Davidson diagonalization with overlap
     ethr =  1.00E-02,  avg # of iterations =  1.1

     total cpu time spent up to now is    38697.4 secs

     total energy              =    -939.99244244 Ry
     Harris-Foulkes estimate   =    -940.05163174 Ry
     estimated scf accuracy    <      34.72194609 Ry

     iteration # 10     ecut=    40.00 Ry     beta= 0.60
     Davidson diagonalization with overlap
     ethr =  1.00E-02,  avg # of iterations =  1.0

     total cpu time spent up to now is    38724.4 secs

     total energy              =    -934.25539787 Ry
     Harris-Foulkes estimate   =    -940.04427390 Ry
     estimated scf accuracy    <      35.83475636 Ry

     iteration # 11     ecut=    40.00 Ry     beta= 0.60
     Davidson diagonalization with overlap
     ethr =  1.00E-02,  avg # of iterations =  5.3

     total cpu time spent up to now is    38781.2 secs

     total energy              =    -934.26764545 Ry
     Harris-Foulkes estimate   =    -941.77818456 Ry
     estimated scf accuracy    <     107.78276338 Ry

     iteration # 12     ecut=    40.00 Ry     beta= 0.60
     Davidson diagonalization with overlap
     ethr =  1.00E-02,  avg # of iterations =  4.0

     total cpu time spent up to now is    38817.9 secs

     total energy              =    -937.69035478 Ry
     Harris-Foulkes estimate   =    -938.76201783 Ry
     estimated scf accuracy    <       8.81999756 Ry

     iteration # 13     ecut=    40.00 Ry     beta= 0.60
     Davidson diagonalization with overlap
     ethr =  8.82E-03,  avg # of iterations =  2.6

     total cpu time spent up to now is    38848.6 secs

     total energy              =    -938.16921513 Ry
     Harris-Foulkes estimate   =    -938.25633833 Ry
     estimated scf accuracy    <       0.95036010 Ry

     iteration # 14     ecut=    40.00 Ry     beta= 0.60
     Davidson diagonalization with overlap
     ethr =  9.50E-04,  avg # of iterations =  6.1

     total cpu time spent up to now is    38905.0 secs

     total energy              =    -937.98477746 Ry
     Harris-Foulkes estimate   =    -938.66416106 Ry
     estimated scf accuracy    <      10.08853809 Ry

     iteration # 15     ecut=    40.00 Ry     beta= 0.60
     Davidson diagonalization with overlap
     ethr =  9.50E-04,  avg # of iterations =  5.3

     total cpu time spent up to now is    38948.3 secs

     total energy              =    -938.30013664 Ry
     Harris-Foulkes estimate   =    -938.44952555 Ry
     estimated scf accuracy    <       3.81573708 Ry

     iteration # 16     ecut=    40.00 Ry     beta= 0.60
     Davidson diagonalization with overlap
     ethr =  9.50E-04,  avg # of iterations =  1.1

     total cpu time spent up to now is    38975.5 secs

     total energy              =    -938.25948219 Ry
     Harris-Foulkes estimate   =    -938.34742354 Ry
     estimated scf accuracy    <       1.22029129 Ry

     iteration # 17     ecut=    40.00 Ry     beta= 0.60
     Davidson diagonalization with overlap
     ethr =  9.50E-04,  avg # of iterations =  4.2

     total cpu time spent up to now is    39013.9 secs

     total energy              =    -938.36478179 Ry
     Harris-Foulkes estimate   =    -938.42941807 Ry
     estimated scf accuracy    <       2.55303434 Ry

     iteration # 18     ecut=    40.00 Ry     beta= 0.60
     Davidson diagonalization with overlap
     ethr =  9.50E-04,  avg # of iterations =  1.1

     total cpu time spent up to now is    39041.5 secs

     total energy              =    -938.36397125 Ry
     Harris-Foulkes estimate   =    -938.38188014 Ry
     estimated scf accuracy    <       1.60042152 Ry

     iteration # 19     ecut=    40.00 Ry     beta= 0.60
     Davidson diagonalization with overlap
     ethr =  9.50E-04,  avg # of iterations =  1.0

     total cpu time spent up to now is    39068.6 secs

     total energy              =    -938.20594537 Ry
     Harris-Foulkes estimate   =    -938.39352391 Ry
     estimated scf accuracy    <       1.83717661 Ry

     iteration # 20     ecut=    40.00 Ry     beta= 0.60
     Davidson diagonalization with overlap
     ethr =  9.50E-04,  avg # of iterations =  3.9

     total cpu time spent up to now is    39107.2 secs

     total energy              =    -937.97887717 Ry
     Harris-Foulkes estimate   =    -938.43709920 Ry
     estimated scf accuracy    <       2.34168281 Ry

     iteration # 21     ecut=    40.00 Ry     beta= 0.60
     Davidson diagonalization with overlap
     ethr =  9.50E-04,  avg # of iterations =  4.2

     total cpu time spent up to now is    39147.9 secs

     total energy              =    -938.19181627 Ry
     Harris-Foulkes estimate   =    -938.33838516 Ry
     estimated scf accuracy    <       1.15409146 Ry

     iteration # 22     ecut=    40.00 Ry     beta= 0.60
     Davidson diagonalization with overlap
     ethr =  9.50E-04,  avg # of iterations =  1.1

     total cpu time spent up to now is    39175.2 secs

     total energy              =    -938.25127429 Ry
     Harris-Foulkes estimate   =    -938.26313879 Ry
     estimated scf accuracy    <       0.12733403 Ry

     iteration # 23     ecut=    40.00 Ry     beta= 0.60
     Davidson diagonalization with overlap
     ethr =  1.27E-04,  avg # of iterations =  4.8

     total cpu time spent up to now is    39217.3 secs

     total energy              =    -938.27065977 Ry
     Harris-Foulkes estimate   =    -938.27293746 Ry
     estimated scf accuracy    <       0.01702511 Ry

     iteration # 24     ecut=    40.00 Ry     beta= 0.60
     Davidson diagonalization with overlap
     c_bands:  1 eigenvalues not converged
     c_bands:  1 eigenvalues not converged
     c_bands:  2 eigenvalues not converged
     c_bands:  1 eigenvalues not converged
     c_bands:  1 eigenvalues not converged
     c_bands:  1 eigenvalues not converged
     c_bands:  1 eigenvalues not converged
     c_bands:  1 eigenvalues not converged
     ethr =  1.70E-05,  avg # of iterations =  5.8

     total cpu time spent up to now is    39258.4 secs

     total energy              =    -938.27109901 Ry
     Harris-Foulkes estimate   =    -938.27203991 Ry
     estimated scf accuracy    <       0.00797607 Ry

     iteration # 25     ecut=    40.00 Ry     beta= 0.60
     Davidson diagonalization with overlap
     c_bands:  3 eigenvalues not converged
     c_bands:  1 eigenvalues not converged
     c_bands:  2 eigenvalues not converged
     c_bands:  1 eigenvalues not converged
     c_bands:  1 eigenvalues not converged
     c_bands:  1 eigenvalues not converged
     ethr =  7.98E-06,  avg # of iterations =  4.0

     total cpu time spent up to now is    39292.6 secs

     total energy              =    -938.27116727 Ry
     Harris-Foulkes estimate   =    -938.27190855 Ry
     estimated scf accuracy    <       0.01070169 Ry

     iteration # 26     ecut=    40.00 Ry     beta= 0.60
     Davidson diagonalization with overlap
     c_bands:  1 eigenvalues not converged
     ethr =  7.98E-06,  avg # of iterations =  1.3

     total cpu time spent up to now is    39320.3 secs

     total energy              =    -938.27154753 Ry
     Harris-Foulkes estimate   =    -938.27164584 Ry
     estimated scf accuracy    <       0.00100938 Ry

     iteration # 27     ecut=    40.00 Ry     beta= 0.60
     Davidson diagonalization with overlap
     c_bands:  2 eigenvalues not converged
     c_bands:  1 eigenvalues not converged
     ethr =  1.01E-06,  avg # of iterations =  6.5

     total cpu time spent up to now is    39368.9 secs

     total energy              =    -938.27166133 Ry
     Harris-Foulkes estimate   =    -938.27173942 Ry
     estimated scf accuracy    <       0.00061984 Ry

     iteration # 28     ecut=    40.00 Ry     beta= 0.60
     Davidson diagonalization with overlap
     ethr =  6.20E-07,  avg # of iterations =  1.1

     total cpu time spent up to now is    39396.2 secs

     total energy              =    -938.27167639 Ry
     Harris-Foulkes estimate   =    -938.27169427 Ry
     estimated scf accuracy    <       0.00020614 Ry

     iteration # 29     ecut=    40.00 Ry     beta= 0.60
     Davidson diagonalization with overlap
     ethr =  2.06E-07,  avg # of iterations =  3.2

     total cpu time spent up to now is    39430.4 secs

     total energy              =    -938.27168619 Ry
     Harris-Foulkes estimate   =    -938.27169651 Ry
     estimated scf accuracy    <       0.00004069 Ry

     iteration # 30     ecut=    40.00 Ry     beta= 0.60
     Davidson diagonalization with overlap
     ethr =  4.07E-08,  avg # of iterations =  4.0

     total cpu time spent up to now is    39471.2 secs

     total energy              =    -938.27169064 Ry
     Harris-Foulkes estimate   =    -938.27169928 Ry
     estimated scf accuracy    <       0.00010368 Ry

     iteration # 31     ecut=    40.00 Ry     beta= 0.60
     Davidson diagonalization with overlap
     ethr =  4.07E-08,  avg # of iterations =  1.7

     total cpu time spent up to now is    39499.8 secs

     total energy              =    -938.27169358 Ry
     Harris-Foulkes estimate   =    -938.27169466 Ry
     estimated scf accuracy    <       0.00000785 Ry

     iteration # 32     ecut=    40.00 Ry     beta= 0.60
     Davidson diagonalization with overlap
     ethr =  7.85E-09,  avg # of iterations =  3.8

     total cpu time spent up to now is    39539.1 secs

     total energy              =    -938.27169451 Ry
     Harris-Foulkes estimate   =    -938.27169543 Ry
     estimated scf accuracy    <       0.00000807 Ry

     iteration # 33     ecut=    40.00 Ry     beta= 0.60
     Davidson diagonalization with overlap
     ethr =  7.85E-09,  avg # of iterations =  1.1

     total cpu time spent up to now is    39566.4 secs

     total energy              =    -938.27169482 Ry
     Harris-Foulkes estimate   =    -938.27169500 Ry
     estimated scf accuracy    <       0.00000198 Ry

     iteration # 34     ecut=    40.00 Ry     beta= 0.60
     Davidson diagonalization with overlap
     ethr =  1.98E-09,  avg # of iterations =  2.8

     total cpu time spent up to now is    39598.7 secs

     total energy              =    -938.27169486 Ry
     Harris-Foulkes estimate   =    -938.27169497 Ry
     estimated scf accuracy    <       0.00000082 Ry

     iteration # 35     ecut=    40.00 Ry     beta= 0.60
     Davidson diagonalization with overlap
     ethr =  8.15E-10,  avg # of iterations =  2.9

     total cpu time spent up to now is    39631.4 secs

     total energy              =    -938.27169492 Ry
     Harris-Foulkes estimate   =    -938.27169494 Ry
     estimated scf accuracy    <       0.00000022 Ry

     iteration # 36     ecut=    40.00 Ry     beta= 0.60
     Davidson diagonalization with overlap
     ethr =  2.22E-10,  avg # of iterations =  3.4

     total cpu time spent up to now is    39666.4 secs

     total energy              =    -938.27169493 Ry
     Harris-Foulkes estimate   =    -938.27169494 Ry
     estimated scf accuracy    <       0.00000008 Ry

     iteration # 37     ecut=    40.00 Ry     beta= 0.60
     Davidson diagonalization with overlap
     ethr =  8.28E-11,  avg # of iterations =  2.8

     total cpu time spent up to now is    39698.3 secs

     total energy              =    -938.27169494 Ry
     Harris-Foulkes estimate   =    -938.27169494 Ry
     estimated scf accuracy    <       0.00000013 Ry

     iteration # 38     ecut=    40.00 Ry     beta= 0.60
     Davidson diagonalization with overlap
     ethr =  8.28E-11,  avg # of iterations =  1.0

     total cpu time spent up to now is    39725.4 secs

     total energy              =    -938.27169494 Ry
     Harris-Foulkes estimate   =    -938.27169494 Ry
     estimated scf accuracy    <          6.8E-09 Ry

     iteration # 39     ecut=    40.00 Ry     beta= 0.60
     Davidson diagonalization with overlap
     ethr =  6.84E-12,  avg # of iterations =  3.9

     total cpu time spent up to now is    39763.5 secs

     total energy              =    -938.27169494 Ry
     Harris-Foulkes estimate   =    -938.27169494 Ry
     estimated scf accuracy    <          5.2E-10 Ry

     iteration # 40     ecut=    40.00 Ry     beta= 0.60
     Davidson diagonalization with overlap
     ethr =  5.16E-13,  avg # of iterations =  4.0

     total cpu time spent up to now is    39805.0 secs

     total energy              =    -938.27169494 Ry
     Harris-Foulkes estimate   =    -938.27169494 Ry
     estimated scf accuracy    <          5.3E-10 Ry

     iteration # 41     ecut=    40.00 Ry     beta= 0.60
     Davidson diagonalization with overlap
     ethr =  5.16E-13,  avg # of iterations =  1.1

     total cpu time spent up to now is    39832.3 secs

     total energy              =    -938.27169494 Ry
     Harris-Foulkes estimate   =    -938.27169494 Ry
     estimated scf accuracy    <          1.4E-10 Ry

     iteration # 42     ecut=    40.00 Ry     beta= 0.60
     Davidson diagonalization with overlap
     ethr =  1.35E-13,  avg # of iterations =  3.5

     total cpu time spent up to now is    39866.8 secs

     total energy              =    -938.27169494 Ry
     Harris-Foulkes estimate   =    -938.27169494 Ry
     estimated scf accuracy    <          1.2E-11 Ry

     iteration # 43     ecut=    40.00 Ry     beta= 0.60
     Davidson diagonalization with overlap
     ethr =  1.00E-13,  avg # of iterations =  1.0

     total cpu time spent up to now is    39893.9 secs

     total energy              =    -938.27169494 Ry
     Harris-Foulkes estimate   =    -938.27169494 Ry
     estimated scf accuracy    <          1.2E-12 Ry

     iteration # 44     ecut=    40.00 Ry     beta= 0.60
     Davidson diagonalization with overlap
     ethr =  1.00E-13,  avg # of iterations =  1.0

     total cpu time spent up to now is    39921.0 secs

     total energy              =    -938.27169494 Ry
     Harris-Foulkes estimate   =    -938.27169494 Ry
     estimated scf accuracy    <          1.0E-11 Ry

     iteration # 45     ecut=    40.00 Ry     beta= 0.60
     Davidson diagonalization with overlap
     ethr =  1.00E-13,  avg # of iterations =  1.0

     total cpu time spent up to now is    39948.0 secs

     End of self-consistent calculation

     Number of k-points >= 100: set verbosity='high' to print the bands.

     the Fermi energy is    15.7038 ev

!    total energy              =    -938.27169494 Ry
     Harris-Foulkes estimate   =    -938.27169494 Ry
     estimated scf accuracy    <          3.3E-13 Ry

     The total energy is the sum of the following terms:

     one-electron contribution =    -232.85016607 Ry
     hartree contribution      =     158.48931176 Ry
     xc contribution           =    -131.84379691 Ry
     ewald contribution        =    -732.06710021 Ry
     smearing contrib. (-TS)   =       0.00005648 Ry

     convergence has been achieved in  45 iterations

     Forces acting on atoms (cartesian axes, Ry/au):

     atom    1 type  1   force =    -0.00000535   -0.00000309    0.00000000
     atom    2 type  2   force =     0.00010287    0.00005939    0.00000000
     atom    3 type  2   force =     0.00003948    0.00002279    0.00000000
     atom    4 type  1   force =    -0.00001780   -0.00001028    0.00000000
     atom    5 type  2   force =     0.00003906    0.00002255    0.00000000
     atom    6 type  1   force =    -0.00004801   -0.00002772    0.00000000
     atom    7 type  2   force =    -0.00007079   -0.00004087    0.00000000
     atom    8 type  1   force =    -0.00003946   -0.00002278    0.00000000

     Total force =     0.000175     Total SCF correction =     0.000002


     Computing stress (Cartesian axis) and pressure

          total   stress  (Ry/bohr**3)                   (kbar)     P=   -2.77
  -0.00001199   0.00001124   0.00000000         -1.76      1.65      0.00
   0.00001124  -0.00002496   0.00000000          1.65     -3.67      0.00
   0.00000000   0.00000000  -0.00001956          0.00      0.00     -2.88

 
     init_run     :     35.07s CPU     35.86s WALL (       2 calls)
     electrons    :  38498.96s CPU  39098.66s WALL (      35 calls)
     update_pot   :     59.41s CPU     59.50s WALL (      33 calls)
     forces       :    191.33s CPU    195.83s WALL (      35 calls)
     stress       :    548.70s CPU    561.17s WALL (      35 calls)

     Called by init_run:
     wfcinit      :     32.05s CPU     32.59s WALL (       2 calls)
     potinit      :      0.92s CPU      0.93s WALL (       2 calls)
     hinit0       :      1.64s CPU      1.66s WALL (       2 calls)

     Called by electrons:
     c_bands      :  33798.17s CPU  34140.27s WALL (     940 calls)
     sum_band     :   4432.09s CPU   4584.43s WALL (     940 calls)
     v_of_rho     :     38.05s CPU     38.26s WALL (     968 calls)
     newd         :    232.04s CPU    336.61s WALL (     968 calls)
     mix_rho      :      5.63s CPU      5.64s WALL (     940 calls)

     Called by c_bands:
     init_us_2    :    414.37s CPU    416.35s WALL (  468480 calls)
     cegterg      :  30675.96s CPU  30984.58s WALL (  225604 calls)

     Called by sum_band:
     sum_band:bec :     14.96s CPU     15.42s WALL (  225600 calls)
     addusdens    :    271.54s CPU    364.84s WALL (     940 calls)

     Called by *egterg:
     h_psi        :  17301.00s CPU  17576.78s WALL (  984495 calls)
     s_psi        :   1355.18s CPU   1356.75s WALL (  984495 calls)
     g_psi        :    183.37s CPU    184.09s WALL (  758411 calls)
     cdiaghg      :   6913.18s CPU   6922.92s WALL (  974411 calls)

     Called by h_psi:
     h_psi:pot    :  17215.58s CPU  17489.25s WALL (  984495 calls)
     h_psi:calbec :   1614.79s CPU   1624.16s WALL (  984495 calls)
     vloc_psi     :  14229.23s CPU  14486.68s WALL (  984495 calls)
     add_vuspsi   :   1367.55s CPU   1373.20s WALL (  984495 calls)

     General routines
     calbec       :   2355.28s CPU   2369.90s WALL ( 1252095 calls)
     fft          :     23.46s CPU     23.63s WALL (   13464 calls)
     ffts         :      0.78s CPU      0.81s WALL (    1908 calls)
     fftw         :  15351.94s CPU  15587.03s WALL (80516362 calls)
     interpolate  :      2.10s CPU      2.10s WALL (     968 calls)
 
     Parallel routines
     fft_scatt_xy :   2802.57s CPU   2881.98s WALL (80531734 calls)
     fft_scatt_yz :   3754.86s CPU   3687.35s WALL (80531734 calls)
 
     PWSCF        :    10h55m CPU       55h11m WALL

       6h
 
   This run was terminated on:   2:40:21  31Jan2020            

=------------------------------------------------------------------------------=
   JOB DONE.
=------------------------------------------------------------------------------=
