
     Program PWSCF v.6.3MaX starts on 23Jan2020 at 15:35:45 

     This program is part of the open-source Quantum ESPRESSO suite
     for quantum simulation of materials; please cite
         "P. Giannozzi et al., J. Phys.:Condens. Matter 21 395502 (2009);
         "P. Giannozzi et al., J. Phys.:Condens. Matter 29 465901 (2017);
          URL http://www.quantum-espresso.org", 
     in publications or presentations arising from this work. More details at
     http://www.quantum-espresso.org/quote

     Parallel version (MPI), running on     4 processors

     MPI processes distributed on     1 nodes
     R & G space division:  proc/nbgrp/npool/nimage =       4
     Waiting for input...
     Reading input from standard input

     Current dimensions of program PWSCF are:
     Max number of different atomic species (ntypx) = 10
     Max number of k-points (npk) =  40000
     Max angular momentum in pseudopotentials (lmaxx) =  3
     Message from routine iosys:
     minimal I/O required, wf_collect reset to FALSE

     Subspace diagonalization in iterative solution of the eigenvalue problem:
     a serial algorithm will be used

 
     Parallelization info
     --------------------
     sticks:   dense  smooth     PW     G-vecs:    dense   smooth      PW
     Min         684     273     94                27323     6899    1409
     Max         686     274     95                27324     6902    1410
     Sum        2741    1095    377               109295    27603    5639
 


     bravais-lattice index     =            0
     lattice parameter (alat)  =       1.8897  a.u.
     unit-cell volume          =     808.3427 (a.u.)^3
     number of atoms/cell      =            6
     number of atomic types    =            2
     number of electrons       =        76.00
     number of Kohn-Sham states=           46
     kinetic-energy cutoff     =      40.0000  Ry
     charge density cutoff     =     400.0000  Ry
     convergence threshold     =      1.0E-10
     mixing beta               =       0.6000
     number of iterations used =            8  plain     mixing
     Exchange-correlation      = SLA PW PBE PBE ( 1  4  3  4 0 0)
     nstep                     =           50


     celldm(1)=   1.889726  celldm(2)=   0.000000  celldm(3)=   0.000000
     celldm(4)=   0.000000  celldm(5)=   0.000000  celldm(6)=   0.000000

     crystal axes: (cart. coord. in units of alat)
               a(1) = (   6.090008   5.274102   0.000000 )  
               a(2) = (  -7.612510  -2.637051   0.000000 )  
               a(3) = (   0.000000   0.000000   4.972461 )  

     reciprocal axes: (cart. coord. in units 2 pi/alat)
               b(1) = ( -0.109469  0.316010  0.000000 )  
               b(2) = ( -0.218938  0.252808  0.000000 )  
               b(3) = (  0.000000  0.000000  0.201108 )  


     PseudoPot. # 1 for Nb read from file:
     ./Nb.pbe-nsp-van.UPF
     MD5 check sum: 0a22fc7fb0ba19a08ca5db297a5d2854
     Pseudo is Ultrasoft + core correction, Zval = 13.0
     Generated by new atomic code, or converted to UPF format
     Using radial grid of  887 points,  6 beta functions with: 
                l(1) =   0
                l(2) =   0
                l(3) =   1
                l(4) =   1
                l(5) =   2
                l(6) =   2
     Q(r) pseudized with  6 coefficients,  rinner =    1.000   1.000   1.000
                                                       1.000   1.000

     PseudoPot. # 2 for Ti read from file:
     ./Ti.pbe-sp-van_ak.UPF
     MD5 check sum: f98fea3e8887528921fefa5636a534ca
     Pseudo is Ultrasoft, Zval = 12.0
     Generated by new atomic code, or converted to UPF format
     Using radial grid of  851 points,  6 beta functions with: 
                l(1) =   0
                l(2) =   0
                l(3) =   1
                l(4) =   1
                l(5) =   2
                l(6) =   2
     Q(r) pseudized with  8 coefficients,  rinner =    1.000   1.000   1.000
                                                       1.000   1.000

     atomic species   valence    mass     pseudopotential
        Nb            13.00    92.90638     Nb( 1.00)
        Ti            12.00    47.86700     Ti( 1.00)

      4 Sym. Ops. (no inversion) found



   Cartesian axes

     site n.     atom                  positions (alat units)
         1           Ti  tau(   1) = (  -1.5225021   2.6370512   4.9724614  )
         2           Nb  tau(   2) = (  -1.5225006   0.8790162   2.4862307  )
         3           Nb  tau(   3) = (   1.5225021   2.6370512   4.9724614  )
         4           Ti  tau(   4) = (  -6.0900069  -1.7580350   2.4862307  )
         5           Nb  tau(   5) = (  -3.0450042   0.0000000   4.9724614  )
         6           Nb  tau(   6) = (   3.0450058   3.5160674   2.4862307  )

     number of k points=   248  Marzari-Vanderbilt smearing, width (Ry)=  0.0200

     Number of k-points >= 100: set verbosity='high' to print them.

     Dense  grid:   109295 G-vectors     FFT dimensions: ( 100, 100,  60)

     Smooth grid:    27603 G-vectors     FFT dimensions: (  64,  64,  40)

     Estimated max dynamical RAM per process >     260.98 MB

     Estimated total dynamical RAM >       1.02 GB

     Initial potential from superposition of free atoms

     starting charge   73.98898, renormalised to   76.00000
     Starting wfcs are   72 randomized atomic wfcs

     total cpu time spent up to now is       23.6 secs

     Self-consistent Calculation

     iteration #  1     ecut=    40.00 Ry     beta= 0.60
     Davidson diagonalization with overlap
     ethr =  1.00E-02,  avg # of iterations =  3.0

     total cpu time spent up to now is       66.0 secs

     total energy              =    -630.32430826 Ry
     Harris-Foulkes estimate   =    -712.34931571 Ry
     estimated scf accuracy    <     100.91270399 Ry

     iteration #  2     ecut=    40.00 Ry     beta= 0.60
     Davidson diagonalization with overlap
     ethr =  1.00E-02,  avg # of iterations =  8.9

     total cpu time spent up to now is      171.1 secs

     total energy              =    -660.91957912 Ry
     Harris-Foulkes estimate   =    -882.12403054 Ry
     estimated scf accuracy    <     801.90275347 Ry

     iteration #  3     ecut=    40.00 Ry     beta= 0.60
     Davidson diagonalization with overlap
     ethr =  1.00E-02,  avg # of iterations =  7.1

     total cpu time spent up to now is      256.8 secs

     total energy              =    -707.37511144 Ry
     Harris-Foulkes estimate   =    -721.23230032 Ry
     estimated scf accuracy    <      60.01784605 Ry

     iteration #  4     ecut=    40.00 Ry     beta= 0.60
     Davidson diagonalization with overlap
     ethr =  1.00E-02,  avg # of iterations =  3.2

     total cpu time spent up to now is      299.5 secs

     total energy              =    -708.54138922 Ry
     Harris-Foulkes estimate   =    -712.54133333 Ry
     estimated scf accuracy    <      50.63022419 Ry

     iteration #  5     ecut=    40.00 Ry     beta= 0.60
     Davidson diagonalization with overlap
     ethr =  1.00E-02,  avg # of iterations =  1.3

     total cpu time spent up to now is      332.8 secs

     total energy              =    -707.12479682 Ry
     Harris-Foulkes estimate   =    -708.96041960 Ry
     estimated scf accuracy    <      27.21185958 Ry

     iteration #  6     ecut=    40.00 Ry     beta= 0.60
     Davidson diagonalization with overlap
     ethr =  1.00E-02,  avg # of iterations =  1.2

     total cpu time spent up to now is      365.3 secs

     total energy              =    -706.01777186 Ry
     Harris-Foulkes estimate   =    -707.26677458 Ry
     estimated scf accuracy    <      18.24407452 Ry

     iteration #  7     ecut=    40.00 Ry     beta= 0.60
     Davidson diagonalization with overlap
     ethr =  1.00E-02,  avg # of iterations =  1.2

     total cpu time spent up to now is      398.4 secs

     total energy              =    -705.25353330 Ry
     Harris-Foulkes estimate   =    -706.12035448 Ry
     estimated scf accuracy    <      13.70129696 Ry

     iteration #  8     ecut=    40.00 Ry     beta= 0.60
     Davidson diagonalization with overlap
     ethr =  1.00E-02,  avg # of iterations =  1.2

     total cpu time spent up to now is      430.8 secs

     total energy              =    -705.25150740 Ry
     Harris-Foulkes estimate   =    -705.37839256 Ry
     estimated scf accuracy    <       9.00609793 Ry

     iteration #  9     ecut=    40.00 Ry     beta= 0.60
     Davidson diagonalization with overlap
     ethr =  1.00E-02,  avg # of iterations =  1.0

     total cpu time spent up to now is      463.4 secs

     total energy              =    -705.10425702 Ry
     Harris-Foulkes estimate   =    -705.30791939 Ry
     estimated scf accuracy    <       7.52774104 Ry

     iteration # 10     ecut=    40.00 Ry     beta= 0.60
     Davidson diagonalization with overlap
     ethr =  9.90E-03,  avg # of iterations =  1.0

     total cpu time spent up to now is      495.7 secs

     total energy              =    -703.39207766 Ry
     Harris-Foulkes estimate   =    -705.18586619 Ry
     estimated scf accuracy    <       4.83910977 Ry

     iteration # 11     ecut=    40.00 Ry     beta= 0.60
     Davidson diagonalization with overlap
     ethr =  6.37E-03,  avg # of iterations =  4.4

     total cpu time spent up to now is      551.2 secs

     total energy              =    -704.50107933 Ry
     Harris-Foulkes estimate   =    -709.47580193 Ry
     estimated scf accuracy    <      82.47813737 Ry

     iteration # 12     ecut=    40.00 Ry     beta= 0.60
     Davidson diagonalization with overlap
     ethr =  6.37E-03,  avg # of iterations =  2.9

     total cpu time spent up to now is      588.9 secs

     total energy              =    -705.09790231 Ry
     Harris-Foulkes estimate   =    -705.52596880 Ry
     estimated scf accuracy    <      17.64189320 Ry

     iteration # 13     ecut=    40.00 Ry     beta= 0.60
     Davidson diagonalization with overlap
     ethr =  6.37E-03,  avg # of iterations =  1.0

     total cpu time spent up to now is      621.1 secs

     total energy              =    -704.71890727 Ry
     Harris-Foulkes estimate   =    -705.18837854 Ry
     estimated scf accuracy    <       9.45954637 Ry

     iteration # 14     ecut=    40.00 Ry     beta= 0.60
     Davidson diagonalization with overlap
     ethr =  6.37E-03,  avg # of iterations =  1.5

     total cpu time spent up to now is      654.1 secs

     total energy              =    -704.98248065 Ry
     Harris-Foulkes estimate   =    -704.89273813 Ry
     estimated scf accuracy    <       1.70140457 Ry

     iteration # 15     ecut=    40.00 Ry     beta= 0.60
     Davidson diagonalization with overlap
     ethr =  2.24E-03,  avg # of iterations =  2.5

     total cpu time spent up to now is      690.7 secs

     total energy              =    -705.42179953 Ry
     Harris-Foulkes estimate   =    -705.12883532 Ry
     estimated scf accuracy    <       5.06089581 Ry

     iteration # 16     ecut=    40.00 Ry     beta= 0.60
     Davidson diagonalization with overlap
     ethr =  2.24E-03,  avg # of iterations =  1.2

     total cpu time spent up to now is      723.2 secs

     total energy              =    -704.18004403 Ry
     Harris-Foulkes estimate   =    -705.53970125 Ry
     estimated scf accuracy    <      14.43842471 Ry

     iteration # 17     ecut=    40.00 Ry     beta= 0.60
     Davidson diagonalization with overlap
     ethr =  2.24E-03,  avg # of iterations =  5.1

     total cpu time spent up to now is      766.3 secs

     total energy              =    -704.89082316 Ry
     Harris-Foulkes estimate   =    -704.90092020 Ry
     estimated scf accuracy    <       0.08026968 Ry

     iteration # 18     ecut=    40.00 Ry     beta= 0.60
     Davidson diagonalization with overlap
     ethr =  1.06E-04,  avg # of iterations =  7.6

     total cpu time spent up to now is      824.9 secs

     total energy              =    -704.90158534 Ry
     Harris-Foulkes estimate   =    -704.90478551 Ry
     estimated scf accuracy    <       0.03814735 Ry

     iteration # 19     ecut=    40.00 Ry     beta= 0.60
     Davidson diagonalization with overlap
     ethr =  5.02E-05,  avg # of iterations =  1.2

     total cpu time spent up to now is      857.4 secs

     total energy              =    -704.90093153 Ry
     Harris-Foulkes estimate   =    -704.90316843 Ry
     estimated scf accuracy    <       0.01754219 Ry

     iteration # 20     ecut=    40.00 Ry     beta= 0.60
     Davidson diagonalization with overlap
     ethr =  2.31E-05,  avg # of iterations =  3.1

     total cpu time spent up to now is      894.2 secs

     total energy              =    -704.90151887 Ry
     Harris-Foulkes estimate   =    -704.90207891 Ry
     estimated scf accuracy    <       0.00313743 Ry

     iteration # 21     ecut=    40.00 Ry     beta= 0.60
     Davidson diagonalization with overlap
     ethr =  4.13E-06,  avg # of iterations =  5.8

     total cpu time spent up to now is      945.8 secs

     total energy              =    -704.90179903 Ry
     Harris-Foulkes estimate   =    -704.90242577 Ry
     estimated scf accuracy    <       0.00479910 Ry

     iteration # 22     ecut=    40.00 Ry     beta= 0.60
     Davidson diagonalization with overlap
     ethr =  4.13E-06,  avg # of iterations =  2.5

     total cpu time spent up to now is      981.4 secs

     total energy              =    -704.90211502 Ry
     Harris-Foulkes estimate   =    -704.90215331 Ry
     estimated scf accuracy    <       0.00016681 Ry

     iteration # 23     ecut=    40.00 Ry     beta= 0.60
     Davidson diagonalization with overlap
     ethr =  2.19E-07,  avg # of iterations =  4.4

     total cpu time spent up to now is     1028.6 secs

     total energy              =    -704.90214467 Ry
     Harris-Foulkes estimate   =    -704.90217753 Ry
     estimated scf accuracy    <       0.00026187 Ry

     iteration # 24     ecut=    40.00 Ry     beta= 0.60
     Davidson diagonalization with overlap
     ethr =  2.19E-07,  avg # of iterations =  1.6

     total cpu time spent up to now is     1062.2 secs

     total energy              =    -704.90215342 Ry
     Harris-Foulkes estimate   =    -704.90216764 Ry
     estimated scf accuracy    <       0.00010028 Ry

     iteration # 25     ecut=    40.00 Ry     beta= 0.60
     Davidson diagonalization with overlap
     ethr =  1.32E-07,  avg # of iterations =  2.2

     total cpu time spent up to now is     1096.9 secs

     total energy              =    -704.90215759 Ry
     Harris-Foulkes estimate   =    -704.90216358 Ry
     estimated scf accuracy    <       0.00003123 Ry

     iteration # 26     ecut=    40.00 Ry     beta= 0.60
     Davidson diagonalization with overlap
     ethr =  4.11E-08,  avg # of iterations =  3.5

     total cpu time spent up to now is     1138.0 secs

     total energy              =    -704.90216160 Ry
     Harris-Foulkes estimate   =    -704.90216427 Ry
     estimated scf accuracy    <       0.00001965 Ry

     iteration # 27     ecut=    40.00 Ry     beta= 0.60
     Davidson diagonalization with overlap
     ethr =  2.59E-08,  avg # of iterations =  1.5

     total cpu time spent up to now is     1171.1 secs

     total energy              =    -704.90216245 Ry
     Harris-Foulkes estimate   =    -704.90216281 Ry
     estimated scf accuracy    <       0.00000344 Ry

     iteration # 28     ecut=    40.00 Ry     beta= 0.60
     Davidson diagonalization with overlap
     ethr =  4.53E-09,  avg # of iterations =  3.5

     total cpu time spent up to now is     1211.1 secs

     total energy              =    -704.90216277 Ry
     Harris-Foulkes estimate   =    -704.90216284 Ry
     estimated scf accuracy    <       0.00000044 Ry

     iteration # 29     ecut=    40.00 Ry     beta= 0.60
     Davidson diagonalization with overlap
     ethr =  5.78E-10,  avg # of iterations =  3.5

     total cpu time spent up to now is     1252.4 secs

     total energy              =    -704.90216278 Ry
     Harris-Foulkes estimate   =    -704.90216283 Ry
     estimated scf accuracy    <       0.00000021 Ry

     iteration # 30     ecut=    40.00 Ry     beta= 0.60
     Davidson diagonalization with overlap
     ethr =  2.76E-10,  avg # of iterations =  4.4

     total cpu time spent up to now is     1299.4 secs

     total energy              =    -704.90216273 Ry
     Harris-Foulkes estimate   =    -704.90216291 Ry
     estimated scf accuracy    <       0.00000189 Ry

     iteration # 31     ecut=    40.00 Ry     beta= 0.60
     Davidson diagonalization with overlap
     ethr =  2.76E-10,  avg # of iterations =  4.0

     total cpu time spent up to now is     1343.4 secs

     total energy              =    -704.90216282 Ry
     Harris-Foulkes estimate   =    -704.90216282 Ry
     estimated scf accuracy    <          7.5E-09 Ry

     iteration # 32     ecut=    40.00 Ry     beta= 0.60
     Davidson diagonalization with overlap
     ethr =  9.90E-12,  avg # of iterations =  3.9

     total cpu time spent up to now is     1385.6 secs

     total energy              =    -704.90216282 Ry
     Harris-Foulkes estimate   =    -704.90216282 Ry
     estimated scf accuracy    <          1.5E-09 Ry

     iteration # 33     ecut=    40.00 Ry     beta= 0.60
     Davidson diagonalization with overlap
     ethr =  1.93E-12,  avg # of iterations =  4.2

     total cpu time spent up to now is     1429.7 secs

     total energy              =    -704.90216282 Ry
     Harris-Foulkes estimate   =    -704.90216282 Ry
     estimated scf accuracy    <          2.8E-09 Ry

     iteration # 34     ecut=    40.00 Ry     beta= 0.60
     Davidson diagonalization with overlap
     ethr =  1.93E-12,  avg # of iterations =  1.5

     total cpu time spent up to now is     1462.9 secs

     End of self-consistent calculation

     Number of k-points >= 100: set verbosity='high' to print the bands.

     the Fermi energy is    14.6599 ev

!    total energy              =    -704.90216282 Ry
     Harris-Foulkes estimate   =    -704.90216282 Ry
     estimated scf accuracy    <          9.4E-11 Ry

     The total energy is the sum of the following terms:

     one-electron contribution =    -177.89099665 Ry
     hartree contribution      =     117.66384844 Ry
     xc contribution           =    -102.16222418 Ry
     ewald contribution        =    -542.50816471 Ry
     smearing contrib. (-TS)   =      -0.00462573 Ry

     convergence has been achieved in  34 iterations

     Forces acting on atoms (cartesian axes, Ry/au):

     atom    1 type  2   force =     0.00066519    0.00038405    0.00000000
     atom    2 type  1   force =     0.00451294    0.00260555    0.00000000
     atom    3 type  1   force =    -0.00449996   -0.00259805    0.00000000
     atom    4 type  2   force =    -0.00068511   -0.00039555    0.00000000
     atom    5 type  1   force =     0.00411917    0.00237821    0.00000000
     atom    6 type  1   force =    -0.00411223   -0.00237420    0.00000000

     Total force =     0.010027     Total SCF correction =     0.000031


     Computing stress (Cartesian axis) and pressure

          total   stress  (Ry/bohr**3)                   (kbar)     P= -118.29
  -0.00086820   0.00003853   0.00000000       -127.72      5.67      0.00
   0.00003853  -0.00091269   0.00000000          5.67   -134.26      0.00
   0.00000000   0.00000000  -0.00063151          0.00      0.00    -92.90


     BFGS Geometry Optimization

     number of scf cycles    =   1
     number of bfgs steps    =   0

     enthalpy new            =    -704.9021628182 Ry

     new trust radius        =       0.1298612134 bohr
     new conv_thr            =            1.0E-10 Ry

     new unit-cell volume =    760.55285 a.u.^3 (   112.70230 Ang^3 )
     density =      6.88601 g/cm^3

CELL_PARAMETERS (alat=  1.88972599)
   5.962903949   5.159627101   0.000000000
  -7.449819797  -2.584213120   0.000000000
   0.000000000   0.000000000   4.893956677

ATOMIC_POSITIONS (angstrom)
Ti      -1.486571290   2.575612912   4.893956677
Nb      -1.486270115   0.858842424   2.446978338
Nb       1.489665118   2.577001273   4.893956677
Ti      -5.959870545  -1.723992174   2.446978338
Nb      -2.976778209  -0.001701170   4.893956677
Nb       2.980170083   3.437543060   2.446978338


     NEW-OLD atomic charge density approx. for the potential

     Check: negative/imaginary core charge=   -0.000001    0.000000
     extrapolated charge   71.35085, renormalised to   76.00000

     total cpu time spent up to now is     1476.5 secs

     Self-consistent Calculation

     iteration #  1     ecut=    40.00 Ry     beta= 0.60
     Davidson diagonalization with overlap
     c_bands:  1 eigenvalues not converged
     c_bands:  1 eigenvalues not converged
     c_bands:  1 eigenvalues not converged
     c_bands:  1 eigenvalues not converged
     c_bands:  1 eigenvalues not converged
     c_bands:  1 eigenvalues not converged
     c_bands:  1 eigenvalues not converged
     c_bands:  1 eigenvalues not converged
     c_bands:  1 eigenvalues not converged
     c_bands:  1 eigenvalues not converged
     c_bands:  1 eigenvalues not converged
     c_bands:  1 eigenvalues not converged
     c_bands:  1 eigenvalues not converged
     c_bands:  1 eigenvalues not converged
     c_bands:  1 eigenvalues not converged
     c_bands:  1 eigenvalues not converged
     c_bands:  1 eigenvalues not converged
     c_bands:  1 eigenvalues not converged
     c_bands:  1 eigenvalues not converged
     c_bands:  1 eigenvalues not converged
     c_bands:  1 eigenvalues not converged
     c_bands:  1 eigenvalues not converged
     c_bands:  1 eigenvalues not converged
     c_bands:  1 eigenvalues not converged
     c_bands:  1 eigenvalues not converged
     c_bands:  1 eigenvalues not converged
     c_bands:  1 eigenvalues not converged
     c_bands:  2 eigenvalues not converged
     c_bands:  1 eigenvalues not converged
     c_bands:  1 eigenvalues not converged
     c_bands:  1 eigenvalues not converged
     c_bands:  1 eigenvalues not converged
     c_bands:  1 eigenvalues not converged
     c_bands:  1 eigenvalues not converged
     c_bands:  2 eigenvalues not converged
     c_bands:  1 eigenvalues not converged
     c_bands:  2 eigenvalues not converged
     c_bands:  1 eigenvalues not converged
     c_bands:  1 eigenvalues not converged
     c_bands:  1 eigenvalues not converged
     c_bands:  1 eigenvalues not converged
     c_bands:  1 eigenvalues not converged
     c_bands:  2 eigenvalues not converged
     c_bands:  1 eigenvalues not converged
     c_bands:  1 eigenvalues not converged
     c_bands:  1 eigenvalues not converged
     c_bands:  1 eigenvalues not converged
     c_bands:  1 eigenvalues not converged
     c_bands:  1 eigenvalues not converged
     c_bands:  1 eigenvalues not converged
     c_bands:  1 eigenvalues not converged
     c_bands:  1 eigenvalues not converged
     c_bands:  1 eigenvalues not converged
     c_bands:  1 eigenvalues not converged
     c_bands:  1 eigenvalues not converged
     c_bands:  1 eigenvalues not converged
     c_bands:  1 eigenvalues not converged
     c_bands:  1 eigenvalues not converged
     c_bands:  1 eigenvalues not converged
     c_bands:  1 eigenvalues not converged
     c_bands:  2 eigenvalues not converged
     c_bands:  1 eigenvalues not converged
     c_bands:  4 eigenvalues not converged
     c_bands:  2 eigenvalues not converged
     c_bands:  1 eigenvalues not converged
     c_bands:  2 eigenvalues not converged
     c_bands:  1 eigenvalues not converged
     c_bands:  2 eigenvalues not converged
     c_bands:  1 eigenvalues not converged
     ethr =  1.00E-06,  avg # of iterations = 15.8

     total cpu time spent up to now is     1604.1 secs

     total energy              =    -701.46178700 Ry
     Harris-Foulkes estimate   =    -712.20961136 Ry
     estimated scf accuracy    <       3.47979199 Ry

     iteration #  2     ecut=    40.00 Ry     beta= 0.60
     Davidson diagonalization with overlap
     ethr =  4.58E-03,  avg # of iterations =  5.3

     total cpu time spent up to now is     1668.9 secs

     total energy              =    -703.90432421 Ry
     Harris-Foulkes estimate   =    -709.95079742 Ry
     estimated scf accuracy    <      21.91199017 Ry

     iteration #  3     ecut=    40.00 Ry     beta= 0.60
     Davidson diagonalization with overlap
     ethr =  4.58E-03,  avg # of iterations =  4.2

     total cpu time spent up to now is     1715.9 secs

     total energy              =    -704.94631070 Ry
     Harris-Foulkes estimate   =    -705.80547852 Ry
     estimated scf accuracy    <       3.51123801 Ry

     iteration #  4     ecut=    40.00 Ry     beta= 0.60
     Davidson diagonalization with overlap
     ethr =  4.58E-03,  avg # of iterations =  3.9

     total cpu time spent up to now is     1754.5 secs

     total energy              =    -704.77385633 Ry
     Harris-Foulkes estimate   =    -705.58031101 Ry
     estimated scf accuracy    <       6.42143724 Ry

     iteration #  5     ecut=    40.00 Ry     beta= 0.60
     Davidson diagonalization with overlap
     ethr =  4.58E-03,  avg # of iterations =  1.9

     total cpu time spent up to now is     1787.9 secs

     total energy              =    -704.86836932 Ry
     Harris-Foulkes estimate   =    -705.17932409 Ry
     estimated scf accuracy    <       1.64420842 Ry

     iteration #  6     ecut=    40.00 Ry     beta= 0.60
     Davidson diagonalization with overlap
     ethr =  2.16E-03,  avg # of iterations =  2.2

     total cpu time spent up to now is     1821.8 secs

     total energy              =    -704.87607093 Ry
     Harris-Foulkes estimate   =    -704.93624488 Ry
     estimated scf accuracy    <       0.47216604 Ry

     iteration #  7     ecut=    40.00 Ry     beta= 0.60
     Davidson diagonalization with overlap
     ethr =  6.21E-04,  avg # of iterations =  5.0

     total cpu time spent up to now is     1868.3 secs

     total energy              =    -704.95451276 Ry
     Harris-Foulkes estimate   =    -704.94091148 Ry
     estimated scf accuracy    <       0.03257550 Ry

     iteration #  8     ecut=    40.00 Ry     beta= 0.60
     Davidson diagonalization with overlap
     ethr =  4.29E-05,  avg # of iterations =  5.7

     total cpu time spent up to now is     1926.4 secs

     total energy              =    -704.97662580 Ry
     Harris-Foulkes estimate   =    -704.98059122 Ry
     estimated scf accuracy    <       0.38053017 Ry

     iteration #  9     ecut=    40.00 Ry     beta= 0.60
     Davidson diagonalization with overlap
     ethr =  4.29E-05,  avg # of iterations =  1.0

     total cpu time spent up to now is     1958.2 secs

     total energy              =    -704.98753213 Ry
     Harris-Foulkes estimate   =    -704.97673392 Ry
     estimated scf accuracy    <       0.35635802 Ry

     iteration # 10     ecut=    40.00 Ry     beta= 0.60
     Davidson diagonalization with overlap
     ethr =  4.29E-05,  avg # of iterations =  1.0

     total cpu time spent up to now is     1990.1 secs

     total energy              =    -704.87312758 Ry
     Harris-Foulkes estimate   =    -704.98782543 Ry
     estimated scf accuracy    <       0.41950961 Ry

     iteration # 11     ecut=    40.00 Ry     beta= 0.60
     Davidson diagonalization with overlap
     ethr =  4.29E-05,  avg # of iterations =  6.0

     total cpu time spent up to now is     2058.1 secs

     total energy              =    -704.92638736 Ry
     Harris-Foulkes estimate   =    -704.93967242 Ry
     estimated scf accuracy    <       0.17655274 Ry

     iteration # 12     ecut=    40.00 Ry     beta= 0.60
     Davidson diagonalization with overlap
     ethr =  4.29E-05,  avg # of iterations =  3.2

     total cpu time spent up to now is     2093.8 secs

     total energy              =    -704.92981264 Ry
     Harris-Foulkes estimate   =    -704.93079362 Ry
     estimated scf accuracy    <       0.02599924 Ry

     iteration # 13     ecut=    40.00 Ry     beta= 0.60
     Davidson diagonalization with overlap
     ethr =  3.42E-05,  avg # of iterations =  3.3

     total cpu time spent up to now is     2130.7 secs

     total energy              =    -704.93098269 Ry
     Harris-Foulkes estimate   =    -704.93120620 Ry
     estimated scf accuracy    <       0.00827503 Ry

     iteration # 14     ecut=    40.00 Ry     beta= 0.60
     Davidson diagonalization with overlap
     c_bands:  1 eigenvalues not converged
     ethr =  1.09E-05,  avg # of iterations =  5.9

     total cpu time spent up to now is     2173.0 secs

     total energy              =    -704.93093939 Ry
     Harris-Foulkes estimate   =    -704.93132755 Ry
     estimated scf accuracy    <       0.00490538 Ry

     iteration # 15     ecut=    40.00 Ry     beta= 0.60
     Davidson diagonalization with overlap
     ethr =  6.45E-06,  avg # of iterations =  4.4

     total cpu time spent up to now is     2213.6 secs

     total energy              =    -704.93072490 Ry
     Harris-Foulkes estimate   =    -704.93145507 Ry
     estimated scf accuracy    <       0.00610057 Ry

     iteration # 16     ecut=    40.00 Ry     beta= 0.60
     Davidson diagonalization with overlap
     ethr =  6.45E-06,  avg # of iterations =  1.1

     total cpu time spent up to now is     2246.9 secs

     total energy              =    -704.93087130 Ry
     Harris-Foulkes estimate   =    -704.93093386 Ry
     estimated scf accuracy    <       0.00116954 Ry

     iteration # 17     ecut=    40.00 Ry     beta= 0.60
     Davidson diagonalization with overlap
     c_bands:  1 eigenvalues not converged
     ethr =  1.54E-06,  avg # of iterations =  4.2

     total cpu time spent up to now is     2290.7 secs

     total energy              =    -704.93096580 Ry
     Harris-Foulkes estimate   =    -704.93098412 Ry
     estimated scf accuracy    <       0.00024143 Ry

     iteration # 18     ecut=    40.00 Ry     beta= 0.60
     Davidson diagonalization with overlap
     ethr =  3.18E-07,  avg # of iterations =  2.4

     total cpu time spent up to now is     2325.7 secs

     total energy              =    -704.93097245 Ry
     Harris-Foulkes estimate   =    -704.93097619 Ry
     estimated scf accuracy    <       0.00004757 Ry

     iteration # 19     ecut=    40.00 Ry     beta= 0.60
     Davidson diagonalization with overlap
     ethr =  6.26E-08,  avg # of iterations =  3.9

     total cpu time spent up to now is     2366.9 secs

     total energy              =    -704.93097723 Ry
     Harris-Foulkes estimate   =    -704.93097770 Ry
     estimated scf accuracy    <       0.00000323 Ry

     iteration # 20     ecut=    40.00 Ry     beta= 0.60
     Davidson diagonalization with overlap
     ethr =  4.25E-09,  avg # of iterations =  4.3

     total cpu time spent up to now is     2411.1 secs

     total energy              =    -704.93097773 Ry
     Harris-Foulkes estimate   =    -704.93097794 Ry
     estimated scf accuracy    <       0.00000242 Ry

     iteration # 21     ecut=    40.00 Ry     beta= 0.60
     Davidson diagonalization with overlap
     ethr =  3.19E-09,  avg # of iterations =  1.1

     total cpu time spent up to now is     2443.3 secs

     total energy              =    -704.93097782 Ry
     Harris-Foulkes estimate   =    -704.93097784 Ry
     estimated scf accuracy    <       0.00000013 Ry

     iteration # 22     ecut=    40.00 Ry     beta= 0.60
     Davidson diagonalization with overlap
     ethr =  1.70E-10,  avg # of iterations =  4.2

     total cpu time spent up to now is     2488.9 secs

     total energy              =    -704.93097785 Ry
     Harris-Foulkes estimate   =    -704.93097785 Ry
     estimated scf accuracy    <       0.00000003 Ry

     iteration # 23     ecut=    40.00 Ry     beta= 0.60
     Davidson diagonalization with overlap
     ethr =  4.48E-11,  avg # of iterations =  1.2

     total cpu time spent up to now is     2521.3 secs

     total energy              =    -704.93097785 Ry
     Harris-Foulkes estimate   =    -704.93097785 Ry
     estimated scf accuracy    <          7.0E-09 Ry

     iteration # 24     ecut=    40.00 Ry     beta= 0.60
     Davidson diagonalization with overlap
     ethr =  9.20E-12,  avg # of iterations =  3.3

     total cpu time spent up to now is     2561.0 secs

     total energy              =    -704.93097785 Ry
     Harris-Foulkes estimate   =    -704.93097785 Ry
     estimated scf accuracy    <          6.2E-09 Ry

     iteration # 25     ecut=    40.00 Ry     beta= 0.60
     Davidson diagonalization with overlap
     ethr =  8.11E-12,  avg # of iterations =  1.2

     total cpu time spent up to now is     2593.3 secs

     total energy              =    -704.93097785 Ry
     Harris-Foulkes estimate   =    -704.93097785 Ry
     estimated scf accuracy    <          1.6E-09 Ry

     iteration # 26     ecut=    40.00 Ry     beta= 0.60
     Davidson diagonalization with overlap
     ethr =  2.07E-12,  avg # of iterations =  3.4

     total cpu time spent up to now is     2631.5 secs

     total energy              =    -704.93097785 Ry
     Harris-Foulkes estimate   =    -704.93097785 Ry
     estimated scf accuracy    <          3.0E-10 Ry

     iteration # 27     ecut=    40.00 Ry     beta= 0.60
     Davidson diagonalization with overlap
     ethr =  3.89E-13,  avg # of iterations =  2.7

     total cpu time spent up to now is     2667.1 secs

     total energy              =    -704.93097785 Ry
     Harris-Foulkes estimate   =    -704.93097785 Ry
     estimated scf accuracy    <          2.0E-10 Ry

     iteration # 28     ecut=    40.00 Ry     beta= 0.60
     Davidson diagonalization with overlap
     ethr =  2.64E-13,  avg # of iterations =  2.5

     total cpu time spent up to now is     2702.2 secs

     End of self-consistent calculation

     Number of k-points >= 100: set verbosity='high' to print the bands.

     the Fermi energy is    15.7456 ev

!    total energy              =    -704.93097785 Ry
     Harris-Foulkes estimate   =    -704.93097785 Ry
     estimated scf accuracy    <          2.9E-12 Ry

     The total energy is the sum of the following terms:

     one-electron contribution =    -161.71313598 Ry
     hartree contribution      =     112.95569948 Ry
     xc contribution           =    -102.50005864 Ry
     ewald contribution        =    -553.66980889 Ry
     smearing contrib. (-TS)   =      -0.00367382 Ry

     convergence has been achieved in  28 iterations

     Forces acting on atoms (cartesian axes, Ry/au):

     atom    1 type  2   force =     0.00234009    0.00135105    0.00000000
     atom    2 type  1   force =     0.00927640    0.00535573    0.00000000
     atom    3 type  1   force =    -0.00927510   -0.00535498    0.00000000
     atom    4 type  2   force =    -0.00234300   -0.00135273    0.00000000
     atom    5 type  1   force =     0.00750252    0.00433158    0.00000000
     atom    6 type  1   force =    -0.00750091   -0.00433065    0.00000000

     Total force =     0.019853     Total SCF correction =     0.000006


     Computing stress (Cartesian axis) and pressure

          total   stress  (Ry/bohr**3)                   (kbar)     P=  -48.29
  -0.00039981   0.00004593   0.00000000        -58.81      6.76      0.00
   0.00004593  -0.00045285   0.00000000          6.76    -66.62      0.00
   0.00000000   0.00000000  -0.00013225          0.00      0.00    -19.45


     number of scf cycles    =   2
     number of bfgs steps    =   1

     enthalpy old            =    -704.9021628182 Ry
     enthalpy new            =    -704.9309778473 Ry

     CASE: enthalpy_new < enthalpy_old

     new trust radius        =       0.1121871133 bohr
     new conv_thr            =            1.0E-10 Ry

     new unit-cell volume =    727.19187 a.u.^3 (   107.75872 Ang^3 )
     density =      7.20191 g/cm^3

CELL_PARAMETERS (alat=  1.88972599)
   5.866487140   5.067212760   0.000000000
  -7.321578219  -2.546920891   0.000000000
   0.000000000   0.000000000   4.863084726

ATOMIC_POSITIONS (angstrom)
Ti      -1.452744913   2.521646429   4.863084726
Nb      -1.449908900   0.843087542   2.431542363
Nb       1.460167938   2.523222995   4.863084726
Ti      -5.858595481  -1.702269031   2.431542363
Nb      -2.916970266  -0.003919115   4.863084726
Nb       2.927226332   3.370227936   2.431542363


     NEW-OLD atomic charge density approx. for the potential

     Check: negative/imaginary core charge=   -0.000001    0.000000
     extrapolated charge   72.60565, renormalised to   76.00000

     total cpu time spent up to now is     2716.0 secs

     Self-consistent Calculation

     iteration #  1     ecut=    40.00 Ry     beta= 0.60
     Davidson diagonalization with overlap
     c_bands:  1 eigenvalues not converged
     c_bands:  1 eigenvalues not converged
     c_bands:  1 eigenvalues not converged
     c_bands:  1 eigenvalues not converged
     c_bands:  1 eigenvalues not converged
     c_bands:  1 eigenvalues not converged
     c_bands:  1 eigenvalues not converged
     c_bands:  1 eigenvalues not converged
     c_bands:  2 eigenvalues not converged
     c_bands:  1 eigenvalues not converged
     c_bands:  1 eigenvalues not converged
     c_bands:  1 eigenvalues not converged
     c_bands:  2 eigenvalues not converged
     c_bands:  1 eigenvalues not converged
     c_bands:  1 eigenvalues not converged
     c_bands:  1 eigenvalues not converged
     c_bands:  1 eigenvalues not converged
     c_bands:  1 eigenvalues not converged
     c_bands:  1 eigenvalues not converged
     c_bands:  1 eigenvalues not converged
     c_bands:  1 eigenvalues not converged
     c_bands:  1 eigenvalues not converged
     c_bands:  1 eigenvalues not converged
     c_bands:  1 eigenvalues not converged
     c_bands:  1 eigenvalues not converged
     c_bands:  2 eigenvalues not converged
     c_bands:  1 eigenvalues not converged
     c_bands:  1 eigenvalues not converged
     c_bands:  2 eigenvalues not converged
     c_bands:  1 eigenvalues not converged
     c_bands:  1 eigenvalues not converged
     c_bands:  1 eigenvalues not converged
     c_bands:  2 eigenvalues not converged
     c_bands:  1 eigenvalues not converged
     c_bands:  1 eigenvalues not converged
     c_bands:  1 eigenvalues not converged
     c_bands:  1 eigenvalues not converged
     c_bands:  1 eigenvalues not converged
     ethr =  1.00E-06,  avg # of iterations = 13.9

     total cpu time spent up to now is     2836.6 secs

     total energy              =    -703.63677368 Ry
     Harris-Foulkes estimate   =    -709.82573721 Ry
     estimated scf accuracy    <       1.24129365 Ry

     iteration #  2     ecut=    40.00 Ry     beta= 0.60
     Davidson diagonalization with overlap
     ethr =  1.63E-03,  avg # of iterations =  5.5

     total cpu time spent up to now is     2904.4 secs

     total energy              =    -704.33080017 Ry
     Harris-Foulkes estimate   =    -706.87802659 Ry
     estimated scf accuracy    <      10.33047029 Ry

     iteration #  3     ecut=    40.00 Ry     beta= 0.60
     Davidson diagonalization with overlap
     ethr =  1.63E-03,  avg # of iterations =  5.0

     total cpu time spent up to now is     2960.4 secs

     total energy              =    -704.96994399 Ry
     Harris-Foulkes estimate   =    -705.22735140 Ry
     estimated scf accuracy    <       0.88730267 Ry

     iteration #  4     ecut=    40.00 Ry     beta= 0.60
     Davidson diagonalization with overlap
     ethr =  1.17E-03,  avg # of iterations =  2.0

     total cpu time spent up to now is     2995.1 secs

     total energy              =    -705.01700860 Ry
     Harris-Foulkes estimate   =    -705.06866168 Ry
     estimated scf accuracy    <       1.16235839 Ry

     iteration #  5     ecut=    40.00 Ry     beta= 0.60
     Davidson diagonalization with overlap
     ethr =  1.17E-03,  avg # of iterations =  1.0

     total cpu time spent up to now is     3027.1 secs

     total energy              =    -704.92188314 Ry
     Harris-Foulkes estimate   =    -705.03231653 Ry
     estimated scf accuracy    <       0.64908642 Ry

     iteration #  6     ecut=    40.00 Ry     beta= 0.60
     Davidson diagonalization with overlap
     ethr =  8.54E-04,  avg # of iterations =  1.0

     total cpu time spent up to now is     3059.7 secs

     total energy              =    -704.92096228 Ry
     Harris-Foulkes estimate   =    -704.94167763 Ry
     estimated scf accuracy    <       0.17920025 Ry

     iteration #  7     ecut=    40.00 Ry     beta= 0.60
     Davidson diagonalization with overlap
     ethr =  2.36E-04,  avg # of iterations =  4.1

     total cpu time spent up to now is     3102.1 secs

     total energy              =    -704.94559173 Ry
     Harris-Foulkes estimate   =    -704.94255132 Ry
     estimated scf accuracy    <       0.02150859 Ry

     iteration #  8     ecut=    40.00 Ry     beta= 0.60
     Davidson diagonalization with overlap
     ethr =  2.83E-05,  avg # of iterations =  4.9

     total cpu time spent up to now is     3146.8 secs

     total energy              =    -704.95006196 Ry
     Harris-Foulkes estimate   =    -704.95021529 Ry
     estimated scf accuracy    <       0.07660887 Ry

     iteration #  9     ecut=    40.00 Ry     beta= 0.60
     Davidson diagonalization with overlap
     ethr =  2.83E-05,  avg # of iterations =  1.1

     total cpu time spent up to now is     3179.2 secs

     total energy              =    -704.93466698 Ry
     Harris-Foulkes estimate   =    -704.95031291 Ry
     estimated scf accuracy    <       0.07774170 Ry

     iteration # 10     ecut=    40.00 Ry     beta= 0.60
     Davidson diagonalization with overlap
     ethr =  2.83E-05,  avg # of iterations =  4.0

     total cpu time spent up to now is     3221.0 secs

     total energy              =    -704.93644963 Ry
     Harris-Foulkes estimate   =    -704.93897752 Ry
     estimated scf accuracy    <       0.00544348 Ry

     iteration # 11     ecut=    40.00 Ry     beta= 0.60
     Davidson diagonalization with overlap
     ethr =  7.16E-06,  avg # of iterations =  5.9

     total cpu time spent up to now is     3280.0 secs

     total energy              =    -704.93724768 Ry
     Harris-Foulkes estimate   =    -704.93878783 Ry
     estimated scf accuracy    <       0.01303316 Ry

     iteration # 12     ecut=    40.00 Ry     beta= 0.60
     Davidson diagonalization with overlap
     ethr =  7.16E-06,  avg # of iterations =  3.1

     total cpu time spent up to now is     3316.0 secs

     total energy              =    -704.93789156 Ry
     Harris-Foulkes estimate   =    -704.93791894 Ry
     estimated scf accuracy    <       0.00017327 Ry

     iteration # 13     ecut=    40.00 Ry     beta= 0.60
     Davidson diagonalization with overlap
     ethr =  2.28E-07,  avg # of iterations =  5.3

     total cpu time spent up to now is     3370.7 secs

     total energy              =    -704.93803749 Ry
     Harris-Foulkes estimate   =    -704.93812297 Ry
     estimated scf accuracy    <       0.00060372 Ry

     iteration # 14     ecut=    40.00 Ry     beta= 0.60
     Davidson diagonalization with overlap
     ethr =  2.28E-07,  avg # of iterations =  3.1

     total cpu time spent up to now is     3410.1 secs

     total energy              =    -704.93807871 Ry
     Harris-Foulkes estimate   =    -704.93807776 Ry
     estimated scf accuracy    <       0.00005210 Ry

     iteration # 15     ecut=    40.00 Ry     beta= 0.60
     Davidson diagonalization with overlap
     ethr =  6.86E-08,  avg # of iterations =  1.4

     total cpu time spent up to now is     3443.0 secs

     total energy              =    -704.93807541 Ry
     Harris-Foulkes estimate   =    -704.93808030 Ry
     estimated scf accuracy    <       0.00007315 Ry

     iteration # 16     ecut=    40.00 Ry     beta= 0.60
     Davidson diagonalization with overlap
     ethr =  6.86E-08,  avg # of iterations =  1.0

     total cpu time spent up to now is     3475.3 secs

     total energy              =    -704.93807038 Ry
     Harris-Foulkes estimate   =    -704.93807629 Ry
     estimated scf accuracy    <       0.00003338 Ry

     iteration # 17     ecut=    40.00 Ry     beta= 0.60
     Davidson diagonalization with overlap
     ethr =  4.39E-08,  avg # of iterations =  3.5

     total cpu time spent up to now is     3515.2 secs

     total energy              =    -704.93807451 Ry
     Harris-Foulkes estimate   =    -704.93807502 Ry
     estimated scf accuracy    <       0.00000396 Ry

     iteration # 18     ecut=    40.00 Ry     beta= 0.60
     Davidson diagonalization with overlap
     ethr =  5.21E-09,  avg # of iterations =  2.2

     total cpu time spent up to now is     3550.0 secs

     total energy              =    -704.93807448 Ry
     Harris-Foulkes estimate   =    -704.93807473 Ry
     estimated scf accuracy    <       0.00000185 Ry

     iteration # 19     ecut=    40.00 Ry     beta= 0.60
     Davidson diagonalization with overlap
     ethr =  2.43E-09,  avg # of iterations =  3.3

     total cpu time spent up to now is     3589.0 secs

     total energy              =    -704.93807467 Ry
     Harris-Foulkes estimate   =    -704.93807471 Ry
     estimated scf accuracy    <       0.00000036 Ry

     iteration # 20     ecut=    40.00 Ry     beta= 0.60
     Davidson diagonalization with overlap
     ethr =  4.67E-10,  avg # of iterations =  2.0

     total cpu time spent up to now is     3623.8 secs

     total energy              =    -704.93807469 Ry
     Harris-Foulkes estimate   =    -704.93807470 Ry
     estimated scf accuracy    <       0.00000004 Ry

     iteration # 21     ecut=    40.00 Ry     beta= 0.60
     Davidson diagonalization with overlap
     ethr =  5.43E-11,  avg # of iterations =  3.9

     total cpu time spent up to now is     3669.1 secs

     total energy              =    -704.93807469 Ry
     Harris-Foulkes estimate   =    -704.93807470 Ry
     estimated scf accuracy    <       0.00000009 Ry

     iteration # 22     ecut=    40.00 Ry     beta= 0.60
     Davidson diagonalization with overlap
     ethr =  5.43E-11,  avg # of iterations =  2.8

     total cpu time spent up to now is     3705.3 secs

     total energy              =    -704.93807470 Ry
     Harris-Foulkes estimate   =    -704.93807470 Ry
     estimated scf accuracy    <          2.9E-09 Ry

     iteration # 23     ecut=    40.00 Ry     beta= 0.60
     Davidson diagonalization with overlap
     ethr =  3.83E-12,  avg # of iterations =  4.3

     total cpu time spent up to now is     3753.4 secs

     total energy              =    -704.93807470 Ry
     Harris-Foulkes estimate   =    -704.93807470 Ry
     estimated scf accuracy    <          6.2E-09 Ry

     iteration # 24     ecut=    40.00 Ry     beta= 0.60
     Davidson diagonalization with overlap
     c_bands:  1 eigenvalues not converged
     ethr =  3.83E-12,  avg # of iterations =  2.8

     total cpu time spent up to now is     3790.5 secs

     total energy              =    -704.93807470 Ry
     Harris-Foulkes estimate   =    -704.93807470 Ry
     estimated scf accuracy    <          5.1E-10 Ry

     iteration # 25     ecut=    40.00 Ry     beta= 0.60
     Davidson diagonalization with overlap
     ethr =  6.73E-13,  avg # of iterations =  3.2

     total cpu time spent up to now is     3829.8 secs

     End of self-consistent calculation

     Number of k-points >= 100: set verbosity='high' to print the bands.

     the Fermi energy is    16.5759 ev

!    total energy              =    -704.93807470 Ry
     Harris-Foulkes estimate   =    -704.93807470 Ry
     estimated scf accuracy    <          8.6E-11 Ry

     The total energy is the sum of the following terms:

     one-electron contribution =    -149.59103886 Ry
     hartree contribution      =     109.49548705 Ry
     xc contribution           =    -102.76423842 Ry
     ewald contribution        =    -562.07536824 Ry
     smearing contrib. (-TS)   =      -0.00291623 Ry

     convergence has been achieved in  25 iterations

     Forces acting on atoms (cartesian axes, Ry/au):

     atom    1 type  2   force =     0.00374652    0.00216306    0.00000000
     atom    2 type  1   force =     0.01158653    0.00668949    0.00000000
     atom    3 type  1   force =    -0.01159278   -0.00669309    0.00000000
     atom    4 type  2   force =    -0.00373494   -0.00215637    0.00000000
     atom    5 type  1   force =     0.00998136    0.00576274    0.00000000
     atom    6 type  1   force =    -0.00998670   -0.00576583    0.00000000

     Total force =     0.025716     Total SCF correction =     0.000039


     Computing stress (Cartesian axis) and pressure

          total   stress  (Ry/bohr**3)                   (kbar)     P=   13.25
   0.00002411   0.00006054   0.00000000          3.55      8.91      0.00
   0.00006054  -0.00004579   0.00000000          8.91     -6.74      0.00
   0.00000000   0.00000000   0.00029195          0.00      0.00     42.95


     number of scf cycles    =   3
     number of bfgs steps    =   2

     enthalpy old            =    -704.9309778473 Ry
     enthalpy new            =    -704.9380746995 Ry

     CASE: enthalpy_new < enthalpy_old

     new trust radius        =       0.0296816864 bohr
     new conv_thr            =            1.0E-10 Ry

     new unit-cell volume =    726.59171 a.u.^3 (   107.66978 Ang^3 )
     density =      7.20786 g/cm^3

CELL_PARAMETERS (alat=  1.88972599)
   5.862560627   5.056313376   0.000000000
  -7.310175818  -2.548970123   0.000000000
   0.000000000   0.000000000   4.889848412

ATOMIC_POSITIONS (angstrom)
Ti      -1.443242484   2.509867836   4.889848412
Nb      -1.438836480   0.840847804   2.444924206
Nb       1.454865579   2.511529265   4.889848412
Ti      -5.850917916  -1.706468790   2.444924206
Nb      -2.905121538  -0.005710661   4.889848412
Nb       2.921147963   3.358086185   2.444924206


     NEW-OLD atomic charge density approx. for the potential

     Check: negative/imaginary core charge=   -0.000001    0.000000
     extrapolated charge   75.93889, renormalised to   76.00000

     total cpu time spent up to now is     3843.1 secs

     Self-consistent Calculation

     iteration #  1     ecut=    40.00 Ry     beta= 0.60
     Davidson diagonalization with overlap
     ethr =  1.00E-06,  avg # of iterations =  5.5

     total cpu time spent up to now is     3920.6 secs

     total energy              =    -704.93786545 Ry
     Harris-Foulkes estimate   =    -705.02556660 Ry
     estimated scf accuracy    <       0.00284840 Ry

     iteration #  2     ecut=    40.00 Ry     beta= 0.60
     Davidson diagonalization with overlap
     ethr =  3.75E-06,  avg # of iterations =  5.7

     total cpu time spent up to now is     3985.5 secs

     total energy              =    -704.92516375 Ry
     Harris-Foulkes estimate   =    -704.95678324 Ry
     estimated scf accuracy    <       0.35303625 Ry

     iteration #  3     ecut=    40.00 Ry     beta= 0.60
     Davidson diagonalization with overlap
     ethr =  3.75E-06,  avg # of iterations =  5.8

     total cpu time spent up to now is     4047.8 secs

     total energy              =    -704.93984986 Ry
     Harris-Foulkes estimate   =    -704.94042674 Ry
     estimated scf accuracy    <       0.00282927 Ry

     iteration #  4     ecut=    40.00 Ry     beta= 0.60
     Davidson diagonalization with overlap
     ethr =  3.72E-06,  avg # of iterations =  1.9

     total cpu time spent up to now is     4081.3 secs

     total energy              =    -704.94004438 Ry
     Harris-Foulkes estimate   =    -704.94009339 Ry
     estimated scf accuracy    <       0.00031907 Ry

     iteration #  5     ecut=    40.00 Ry     beta= 0.60
     Davidson diagonalization with overlap
     ethr =  4.20E-07,  avg # of iterations =  4.1

     total cpu time spent up to now is     4127.4 secs

     total energy              =    -704.94011522 Ry
     Harris-Foulkes estimate   =    -704.94012406 Ry
     estimated scf accuracy    <       0.00003521 Ry

     iteration #  6     ecut=    40.00 Ry     beta= 0.60
     Davidson diagonalization with overlap
     ethr =  4.63E-08,  avg # of iterations =  2.8

     total cpu time spent up to now is     4166.1 secs

     total energy              =    -704.94011571 Ry
     Harris-Foulkes estimate   =    -704.94012099 Ry
     estimated scf accuracy    <       0.00002119 Ry

     iteration #  7     ecut=    40.00 Ry     beta= 0.60
     Davidson diagonalization with overlap
     ethr =  2.79E-08,  avg # of iterations =  4.0

     total cpu time spent up to now is     4210.4 secs

     total energy              =    -704.94010721 Ry
     Harris-Foulkes estimate   =    -704.94013197 Ry
     estimated scf accuracy    <       0.00029041 Ry

     iteration #  8     ecut=    40.00 Ry     beta= 0.60
     Davidson diagonalization with overlap
     ethr =  2.79E-08,  avg # of iterations =  4.0

     total cpu time spent up to now is     4253.9 secs

     total energy              =    -704.94011867 Ry
     Harris-Foulkes estimate   =    -704.94011982 Ry
     estimated scf accuracy    <       0.00001077 Ry

     iteration #  9     ecut=    40.00 Ry     beta= 0.60
     Davidson diagonalization with overlap
     ethr =  1.42E-08,  avg # of iterations =  1.1

     total cpu time spent up to now is     4285.9 secs

     total energy              =    -704.94011847 Ry
     Harris-Foulkes estimate   =    -704.94011927 Ry
     estimated scf accuracy    <       0.00000475 Ry

     iteration # 10     ecut=    40.00 Ry     beta= 0.60
     Davidson diagonalization with overlap
     ethr =  6.25E-09,  avg # of iterations =  2.9

     total cpu time spent up to now is     4324.3 secs

     total energy              =    -704.94011884 Ry
     Harris-Foulkes estimate   =    -704.94011893 Ry
     estimated scf accuracy    <       0.00000030 Ry

     iteration # 11     ecut=    40.00 Ry     beta= 0.60
     Davidson diagonalization with overlap
     ethr =  3.93E-10,  avg # of iterations =  4.2

     total cpu time spent up to now is     4372.9 secs

     total energy              =    -704.94011891 Ry
     Harris-Foulkes estimate   =    -704.94011901 Ry
     estimated scf accuracy    <       0.00000080 Ry

     iteration # 12     ecut=    40.00 Ry     beta= 0.60
     Davidson diagonalization with overlap
     ethr =  3.93E-10,  avg # of iterations =  3.0

     total cpu time spent up to now is     4412.4 secs

     total energy              =    -704.94011892 Ry
     Harris-Foulkes estimate   =    -704.94011896 Ry
     estimated scf accuracy    <       0.00000031 Ry

     iteration # 13     ecut=    40.00 Ry     beta= 0.60
     Davidson diagonalization with overlap
     ethr =  3.93E-10,  avg # of iterations =  1.1

     total cpu time spent up to now is     4445.8 secs

     total energy              =    -704.94011891 Ry
     Harris-Foulkes estimate   =    -704.94011894 Ry
     estimated scf accuracy    <       0.00000014 Ry

     iteration # 14     ecut=    40.00 Ry     beta= 0.60
     Davidson diagonalization with overlap
     ethr =  1.83E-10,  avg # of iterations =  3.1

     total cpu time spent up to now is     4486.4 secs

     total energy              =    -704.94011893 Ry
     Harris-Foulkes estimate   =    -704.94011893 Ry
     estimated scf accuracy    <       0.00000003 Ry

     iteration # 15     ecut=    40.00 Ry     beta= 0.60
     Davidson diagonalization with overlap
     ethr =  3.91E-11,  avg # of iterations =  1.6

     total cpu time spent up to now is     4520.7 secs

     total energy              =    -704.94011893 Ry
     Harris-Foulkes estimate   =    -704.94011893 Ry
     estimated scf accuracy    <          4.5E-09 Ry

     iteration # 16     ecut=    40.00 Ry     beta= 0.60
     Davidson diagonalization with overlap
     ethr =  5.98E-12,  avg # of iterations =  3.7

     total cpu time spent up to now is     4565.0 secs

     total energy              =    -704.94011893 Ry
     Harris-Foulkes estimate   =    -704.94011893 Ry
     estimated scf accuracy    <          6.8E-10 Ry

     iteration # 17     ecut=    40.00 Ry     beta= 0.60
     Davidson diagonalization with overlap
     ethr =  8.94E-13,  avg # of iterations =  3.1

     total cpu time spent up to now is     4602.7 secs

     total energy              =    -704.94011893 Ry
     Harris-Foulkes estimate   =    -704.94011893 Ry
     estimated scf accuracy    <          1.3E-09 Ry

     iteration # 18     ecut=    40.00 Ry     beta= 0.60
     Davidson diagonalization with overlap
     ethr =  8.94E-13,  avg # of iterations =  1.4

     total cpu time spent up to now is     4636.6 secs

     End of self-consistent calculation

     Number of k-points >= 100: set verbosity='high' to print the bands.

     the Fermi energy is    16.5830 ev

!    total energy              =    -704.94011893 Ry
     Harris-Foulkes estimate   =    -704.94011893 Ry
     estimated scf accuracy    <          9.8E-11 Ry

     The total energy is the sum of the following terms:

     one-electron contribution =    -149.33479193 Ry
     hartree contribution      =     109.41737938 Ry
     xc contribution           =    -102.76939211 Ry
     ewald contribution        =    -562.25057977 Ry
     smearing contrib. (-TS)   =      -0.00273450 Ry

     convergence has been achieved in  18 iterations

     Forces acting on atoms (cartesian axes, Ry/au):

     atom    1 type  2   force =     0.00386301    0.00223031    0.00000000
     atom    2 type  1   force =     0.00991548    0.00572470    0.00000000
     atom    3 type  1   force =    -0.00992202   -0.00572848    0.00000000
     atom    4 type  2   force =    -0.00385232   -0.00222414    0.00000000
     atom    5 type  1   force =     0.00986209    0.00569388    0.00000000
     atom    6 type  1   force =    -0.00986623   -0.00569627    0.00000000

     Total force =     0.023696     Total SCF correction =     0.000023


     Computing stress (Cartesian axis) and pressure

          total   stress  (Ry/bohr**3)                   (kbar)     P=   13.07
   0.00003654   0.00006791   0.00000000          5.38      9.99      0.00
   0.00006791  -0.00004188   0.00000000          9.99     -6.16      0.00
   0.00000000   0.00000000   0.00027184          0.00      0.00     39.99


     number of scf cycles    =   4
     number of bfgs steps    =   3

     enthalpy old            =    -704.9380746995 Ry
     enthalpy new            =    -704.9401189325 Ry

     CASE: enthalpy_new < enthalpy_old


     WARNING: bfgs curvature condition failed, Theta= 0.864
     new trust radius        =       0.0442605682 bohr
     new conv_thr            =            1.0E-10 Ry

     new unit-cell volume =    726.02107 a.u.^3 (   107.58522 Ang^3 )
     density =      7.21352 g/cm^3

CELL_PARAMETERS (alat=  1.88972599)
   5.860954555   5.042303186   0.000000000
  -7.297239601  -2.554584320   0.000000000
   0.000000000   0.000000000   4.929993939

ATOMIC_POSITIONS (angstrom)
Ti      -1.428679411   2.492109981   4.929993939
Nb      -1.423153912   0.836819227   2.464996970
Nb       1.448893032   2.494998090   4.929993939
Ti      -5.842823116  -1.714878166   2.464996970
Nb      -2.888422064  -0.009152140   4.929993939
Nb       2.914159799   3.340968656   2.464996970


     NEW-OLD atomic charge density approx. for the potential

     Check: negative/imaginary core charge=   -0.000001    0.000000
     extrapolated charge   75.94185, renormalised to   76.00000

     total cpu time spent up to now is     4650.0 secs

     Self-consistent Calculation

     iteration #  1     ecut=    40.00 Ry     beta= 0.60
     Davidson diagonalization with overlap
     ethr =  1.00E-06,  avg # of iterations =  7.4

     total cpu time spent up to now is     4735.1 secs

     total energy              =    -704.93792974 Ry
     Harris-Foulkes estimate   =    -705.02434693 Ry
     estimated scf accuracy    <       0.00644399 Ry

     iteration #  2     ecut=    40.00 Ry     beta= 0.60
     Davidson diagonalization with overlap
     ethr =  8.48E-06,  avg # of iterations =  5.6

     total cpu time spent up to now is     4799.9 secs

     total energy              =    -704.90927910 Ry
     Harris-Foulkes estimate   =    -704.98090647 Ry
     estimated scf accuracy    <       0.78306442 Ry

     iteration #  3     ecut=    40.00 Ry     beta= 0.60
     Davidson diagonalization with overlap
     ethr =  8.48E-06,  avg # of iterations =  5.9

     total cpu time spent up to now is     4862.5 secs

     total energy              =    -704.94244799 Ry
     Harris-Foulkes estimate   =    -704.94332308 Ry
     estimated scf accuracy    <       0.00423000 Ry

     iteration #  4     ecut=    40.00 Ry     beta= 0.60
     Davidson diagonalization with overlap
     ethr =  5.57E-06,  avg # of iterations =  2.1

     total cpu time spent up to now is     4896.2 secs

     total energy              =    -704.94275589 Ry
     Harris-Foulkes estimate   =    -704.94282378 Ry
     estimated scf accuracy    <       0.00044823 Ry

     iteration #  5     ecut=    40.00 Ry     beta= 0.60
     Davidson diagonalization with overlap
     ethr =  5.90E-07,  avg # of iterations =  4.5

     total cpu time spent up to now is     4947.2 secs

     total energy              =    -704.94287477 Ry
     Harris-Foulkes estimate   =    -704.94289115 Ry
     estimated scf accuracy    <       0.00006080 Ry

     iteration #  6     ecut=    40.00 Ry     beta= 0.60
     Davidson diagonalization with overlap
     ethr =  8.00E-08,  avg # of iterations =  3.7

     total cpu time spent up to now is     4990.3 secs

     total energy              =    -704.94286829 Ry
     Harris-Foulkes estimate   =    -704.94289197 Ry
     estimated scf accuracy    <       0.00016039 Ry

     iteration #  7     ecut=    40.00 Ry     beta= 0.60
     Davidson diagonalization with overlap
     ethr =  8.00E-08,  avg # of iterations =  3.7

     total cpu time spent up to now is     5030.3 secs

     total energy              =    -704.94287909 Ry
     Harris-Foulkes estimate   =    -704.94288948 Ry
     estimated scf accuracy    <       0.00010457 Ry

     iteration #  8     ecut=    40.00 Ry     beta= 0.60
     Davidson diagonalization with overlap
     ethr =  8.00E-08,  avg # of iterations =  2.8

     total cpu time spent up to now is     5066.3 secs

     total energy              =    -704.94288098 Ry
     Harris-Foulkes estimate   =    -704.94288825 Ry
     estimated scf accuracy    <       0.00004872 Ry

     iteration #  9     ecut=    40.00 Ry     beta= 0.60
     Davidson diagonalization with overlap
     ethr =  6.41E-08,  avg # of iterations =  1.2

     total cpu time spent up to now is     5102.8 secs

     total energy              =    -704.94288382 Ry
     Harris-Foulkes estimate   =    -704.94288442 Ry
     estimated scf accuracy    <       0.00000285 Ry

     iteration # 10     ecut=    40.00 Ry     beta= 0.60
     Davidson diagonalization with overlap
     ethr =  3.76E-09,  avg # of iterations =  4.3

     total cpu time spent up to now is     5149.6 secs

     total energy              =    -704.94288462 Ry
     Harris-Foulkes estimate   =    -704.94288477 Ry
     estimated scf accuracy    <       0.00000142 Ry

     iteration # 11     ecut=    40.00 Ry     beta= 0.60
     Davidson diagonalization with overlap
     ethr =  1.86E-09,  avg # of iterations =  2.0

     total cpu time spent up to now is     5184.0 secs

     total energy              =    -704.94288461 Ry
     Harris-Foulkes estimate   =    -704.94288473 Ry
     estimated scf accuracy    <       0.00000105 Ry

     iteration # 12     ecut=    40.00 Ry     beta= 0.60
     Davidson diagonalization with overlap
     ethr =  1.38E-09,  avg # of iterations =  1.1

     total cpu time spent up to now is     5216.9 secs

     total energy              =    -704.94288463 Ry
     Harris-Foulkes estimate   =    -704.94288467 Ry
     estimated scf accuracy    <       0.00000042 Ry

     iteration # 13     ecut=    40.00 Ry     beta= 0.60
     Davidson diagonalization with overlap
     ethr =  5.54E-10,  avg # of iterations =  2.4

     total cpu time spent up to now is     5252.3 secs

     total energy              =    -704.94288463 Ry
     Harris-Foulkes estimate   =    -704.94288465 Ry
     estimated scf accuracy    <       0.00000015 Ry

     iteration # 14     ecut=    40.00 Ry     beta= 0.60
     Davidson diagonalization with overlap
     ethr =  1.97E-10,  avg # of iterations =  3.6

     total cpu time spent up to now is     5294.5 secs

     total energy              =    -704.94288465 Ry
     Harris-Foulkes estimate   =    -704.94288465 Ry
     estimated scf accuracy    <       0.00000004 Ry

     iteration # 15     ecut=    40.00 Ry     beta= 0.60
     Davidson diagonalization with overlap
     ethr =  5.02E-11,  avg # of iterations =  1.3

     total cpu time spent up to now is     5327.9 secs

     total energy              =    -704.94288465 Ry
     Harris-Foulkes estimate   =    -704.94288465 Ry
     estimated scf accuracy    <          3.2E-09 Ry

     iteration # 16     ecut=    40.00 Ry     beta= 0.60
     Davidson diagonalization with overlap
     ethr =  4.26E-12,  avg # of iterations =  4.0

     total cpu time spent up to now is     5373.3 secs

     total energy              =    -704.94288465 Ry
     Harris-Foulkes estimate   =    -704.94288465 Ry
     estimated scf accuracy    <          8.7E-10 Ry

     iteration # 17     ecut=    40.00 Ry     beta= 0.60
     Davidson diagonalization with overlap
     ethr =  1.14E-12,  avg # of iterations =  3.6

     total cpu time spent up to now is     5412.0 secs

     total energy              =    -704.94288465 Ry
     Harris-Foulkes estimate   =    -704.94288465 Ry
     estimated scf accuracy    <          2.5E-09 Ry

     iteration # 18     ecut=    40.00 Ry     beta= 0.60
     Davidson diagonalization with overlap
     ethr =  1.14E-12,  avg # of iterations =  2.2

     total cpu time spent up to now is     5446.9 secs

     total energy              =    -704.94288465 Ry
     Harris-Foulkes estimate   =    -704.94288465 Ry
     estimated scf accuracy    <          1.2E-10 Ry

     iteration # 19     ecut=    40.00 Ry     beta= 0.60
     Davidson diagonalization with overlap
     ethr =  1.53E-13,  avg # of iterations =  3.9

     total cpu time spent up to now is     5490.5 secs

     End of self-consistent calculation

     Number of k-points >= 100: set verbosity='high' to print the bands.

     the Fermi energy is    16.5841 ev

!    total energy              =    -704.94288465 Ry
     Harris-Foulkes estimate   =    -704.94288465 Ry
     estimated scf accuracy    <          9.5E-12 Ry

     The total energy is the sum of the following terms:

     one-electron contribution =    -149.19529786 Ry
     hartree contribution      =     109.39727182 Ry
     xc contribution           =    -102.77657890 Ry
     ewald contribution        =    -562.36584011 Ry
     smearing contrib. (-TS)   =      -0.00243959 Ry

     convergence has been achieved in  19 iterations

     Forces acting on atoms (cartesian axes, Ry/au):

     atom    1 type  2   force =     0.00419140    0.00241991    0.00000000
     atom    2 type  1   force =     0.00725187    0.00418687    0.00000000
     atom    3 type  1   force =    -0.00725777   -0.00419028    0.00000000
     atom    4 type  2   force =    -0.00417970   -0.00241315    0.00000000
     atom    5 type  1   force =     0.00945652    0.00545972    0.00000000
     atom    6 type  1   force =    -0.00946231   -0.00546307    0.00000000

     Total force =     0.020632     Total SCF correction =     0.000012


     Computing stress (Cartesian axis) and pressure

          total   stress  (Ry/bohr**3)                   (kbar)     P=   12.29
   0.00005146   0.00007224   0.00000000          7.57     10.63      0.00
   0.00007224  -0.00003195   0.00000000         10.63     -4.70      0.00
   0.00000000   0.00000000   0.00023103          0.00      0.00     33.99


     number of scf cycles    =   5
     number of bfgs steps    =   4

     enthalpy old            =    -704.9401189325 Ry
     enthalpy new            =    -704.9428846515 Ry

     CASE: enthalpy_new < enthalpy_old

     new trust radius        =       0.0658243602 bohr
     new conv_thr            =            1.0E-10 Ry

     new unit-cell volume =    725.96508 a.u.^3 (   107.57692 Ang^3 )
     density =      7.21408 g/cm^3

CELL_PARAMETERS (alat=  1.88972599)
   5.867207311   5.026328467   0.000000000
  -7.286531465  -2.567986724   0.000000000
   0.000000000   0.000000000   4.990212231

ATOMIC_POSITIONS (angstrom)
Ti      -1.406157363   2.465943593   4.990212231
Nb      -1.401607671   0.829674225   2.495106115
Nb       1.443805914   2.472476292   4.990212231
Ti      -5.838158029  -1.731769507   2.495106115
Nb      -2.865481824  -0.015492336   4.990212231
Nb       2.907678958   3.317642212   2.495106115


     NEW-OLD atomic charge density approx. for the potential

     Check: negative/imaginary core charge=   -0.000001    0.000000
     extrapolated charge   75.99429, renormalised to   76.00000

     total cpu time spent up to now is     5503.7 secs

     Self-consistent Calculation

     iteration #  1     ecut=    40.00 Ry     beta= 0.60
     Davidson diagonalization with overlap
     c_bands:  1 eigenvalues not converged
     c_bands:  1 eigenvalues not converged
     c_bands:  1 eigenvalues not converged
     c_bands:  1 eigenvalues not converged
     c_bands:  2 eigenvalues not converged
     c_bands:  1 eigenvalues not converged
     ethr =  1.00E-06,  avg # of iterations =  9.3

     total cpu time spent up to now is     5597.8 secs

     total energy              =    -704.93494339 Ry
     Harris-Foulkes estimate   =    -704.95490672 Ry
     estimated scf accuracy    <       0.01503981 Ry

     iteration #  2     ecut=    40.00 Ry     beta= 0.60
     Davidson diagonalization with overlap
     ethr =  1.98E-05,  avg # of iterations =  5.7

     total cpu time spent up to now is     5660.7 secs

     total energy              =    -704.86914839 Ry
     Harris-Foulkes estimate   =    -705.03384641 Ry
     estimated scf accuracy    <       1.73787531 Ry

     iteration #  3     ecut=    40.00 Ry     beta= 0.60
     Davidson diagonalization with overlap
     ethr =  1.98E-05,  avg # of iterations =  6.0

     total cpu time spent up to now is     5723.3 secs

     total energy              =    -704.94560792 Ry
     Harris-Foulkes estimate   =    -704.94649085 Ry
     estimated scf accuracy    <       0.00379267 Ry

     iteration #  4     ecut=    40.00 Ry     beta= 0.60
     Davidson diagonalization with overlap
     ethr =  4.99E-06,  avg # of iterations =  3.1

     total cpu time spent up to now is     5760.4 secs

     total energy              =    -704.94608016 Ry
     Harris-Foulkes estimate   =    -704.94612273 Ry
     estimated scf accuracy    <       0.00024154 Ry

     iteration #  5     ecut=    40.00 Ry     beta= 0.60
     Davidson diagonalization with overlap
     ethr =  3.18E-07,  avg # of iterations =  4.1

     total cpu time spent up to now is     5805.5 secs

     total energy              =    -704.94614101 Ry
     Harris-Foulkes estimate   =    -704.94615083 Ry
     estimated scf accuracy    <       0.00005743 Ry

     iteration #  6     ecut=    40.00 Ry     beta= 0.60
     Davidson diagonalization with overlap
     ethr =  7.56E-08,  avg # of iterations =  2.7

     total cpu time spent up to now is     5841.5 secs

     total energy              =    -704.94614180 Ry
     Harris-Foulkes estimate   =    -704.94614631 Ry
     estimated scf accuracy    <       0.00001818 Ry

     iteration #  7     ecut=    40.00 Ry     beta= 0.60
     Davidson diagonalization with overlap
     ethr =  2.39E-08,  avg # of iterations =  3.9

     total cpu time spent up to now is     5884.8 secs

     total energy              =    -704.94613969 Ry
     Harris-Foulkes estimate   =    -704.94615262 Ry
     estimated scf accuracy    <       0.00014435 Ry

     iteration #  8     ecut=    40.00 Ry     beta= 0.60
     Davidson diagonalization with overlap
     ethr =  2.39E-08,  avg # of iterations =  3.8

     total cpu time spent up to now is     5925.9 secs

     total energy              =    -704.94614587 Ry
     Harris-Foulkes estimate   =    -704.94614664 Ry
     estimated scf accuracy    <       0.00000471 Ry

     iteration #  9     ecut=    40.00 Ry     beta= 0.60
     Davidson diagonalization with overlap
     ethr =  6.20E-09,  avg # of iterations =  2.9

     total cpu time spent up to now is     5962.6 secs

     total energy              =    -704.94614616 Ry
     Harris-Foulkes estimate   =    -704.94614652 Ry
     estimated scf accuracy    <       0.00000232 Ry

     iteration # 10     ecut=    40.00 Ry     beta= 0.60
     Davidson diagonalization with overlap
     ethr =  3.05E-09,  avg # of iterations =  1.6

     total cpu time spent up to now is     5996.7 secs

     total energy              =    -704.94614630 Ry
     Harris-Foulkes estimate   =    -704.94614632 Ry
     estimated scf accuracy    <       0.00000015 Ry

     iteration # 11     ecut=    40.00 Ry     beta= 0.60
     Davidson diagonalization with overlap
     ethr =  1.97E-10,  avg # of iterations =  4.4

     total cpu time spent up to now is     6046.5 secs

     total energy              =    -704.94614636 Ry
     Harris-Foulkes estimate   =    -704.94614637 Ry
     estimated scf accuracy    <       0.00000013 Ry

     iteration # 12     ecut=    40.00 Ry     beta= 0.60
     Davidson diagonalization with overlap
     ethr =  1.76E-10,  avg # of iterations =  1.2

     total cpu time spent up to now is     6080.0 secs

     total energy              =    -704.94614636 Ry
     Harris-Foulkes estimate   =    -704.94614636 Ry
     estimated scf accuracy    <       0.00000007 Ry

     iteration # 13     ecut=    40.00 Ry     beta= 0.60
     Davidson diagonalization with overlap
     ethr =  9.77E-11,  avg # of iterations =  1.7

     total cpu time spent up to now is     6114.5 secs

     total energy              =    -704.94614636 Ry
     Harris-Foulkes estimate   =    -704.94614636 Ry
     estimated scf accuracy    <       0.00000001 Ry

     iteration # 14     ecut=    40.00 Ry     beta= 0.60
     Davidson diagonalization with overlap
     ethr =  1.87E-11,  avg # of iterations =  3.3

     total cpu time spent up to now is     6154.9 secs

     total energy              =    -704.94614636 Ry
     Harris-Foulkes estimate   =    -704.94614636 Ry
     estimated scf accuracy    <          4.1E-09 Ry

     iteration # 15     ecut=    40.00 Ry     beta= 0.60
     Davidson diagonalization with overlap
     ethr =  5.46E-12,  avg # of iterations =  3.6

     total cpu time spent up to now is     6197.6 secs

     total energy              =    -704.94614636 Ry
     Harris-Foulkes estimate   =    -704.94614636 Ry
     estimated scf accuracy    <          1.1E-09 Ry

     iteration # 16     ecut=    40.00 Ry     beta= 0.60
     Davidson diagonalization with overlap
     ethr =  1.45E-12,  avg # of iterations =  1.3

     total cpu time spent up to now is     6231.2 secs

     total energy              =    -704.94614636 Ry
     Harris-Foulkes estimate   =    -704.94614636 Ry
     estimated scf accuracy    <          2.6E-10 Ry

     iteration # 17     ecut=    40.00 Ry     beta= 0.60
     Davidson diagonalization with overlap
     ethr =  3.36E-13,  avg # of iterations =  3.8

     total cpu time spent up to now is     6276.0 secs

     total energy              =    -704.94614636 Ry
     Harris-Foulkes estimate   =    -704.94614636 Ry
     estimated scf accuracy    <          1.2E-10 Ry

     iteration # 18     ecut=    40.00 Ry     beta= 0.60
     Davidson diagonalization with overlap
     ethr =  1.56E-13,  avg # of iterations =  1.0

     total cpu time spent up to now is     6309.1 secs

     End of self-consistent calculation

     Number of k-points >= 100: set verbosity='high' to print the bands.

     the Fermi energy is    16.5641 ev

!    total energy              =    -704.94614636 Ry
     Harris-Foulkes estimate   =    -704.94614636 Ry
     estimated scf accuracy    <          4.6E-11 Ry

     The total energy is the sum of the following terms:

     one-electron contribution =    -149.54838728 Ry
     hartree contribution      =     109.58434822 Ry
     xc contribution           =    -102.78506177 Ry
     ewald contribution        =    -562.19502612 Ry
     smearing contrib. (-TS)   =      -0.00201941 Ry

     convergence has been achieved in  18 iterations

     Forces acting on atoms (cartesian axes, Ry/au):

     atom    1 type  2   force =     0.00471690    0.00272330    0.00000000
     atom    2 type  1   force =     0.00266266    0.00153729    0.00000000
     atom    3 type  1   force =    -0.00266474   -0.00153849    0.00000000
     atom    4 type  2   force =    -0.00471176   -0.00272034    0.00000000
     atom    5 type  1   force =     0.00811817    0.00468703    0.00000000
     atom    6 type  1   force =    -0.00812122   -0.00468879    0.00000000

     Total force =     0.015937     Total SCF correction =     0.000026


     Computing stress (Cartesian axis) and pressure

          total   stress  (Ry/bohr**3)                   (kbar)     P=   10.14
   0.00006585   0.00006400   0.00000000          9.69      9.41      0.00
   0.00006400  -0.00000805   0.00000000          9.41     -1.18      0.00
   0.00000000   0.00000000   0.00014896          0.00      0.00     21.91


     number of scf cycles    =   6
     number of bfgs steps    =   5

     enthalpy old            =    -704.9428846515 Ry
     enthalpy new            =    -704.9461463582 Ry

     CASE: enthalpy_new < enthalpy_old

     new trust radius        =       0.0975412977 bohr
     new conv_thr            =            1.0E-10 Ry

     new unit-cell volume =    728.11994 a.u.^3 (   107.89624 Ang^3 )
     density =      7.19273 g/cm^3

CELL_PARAMETERS (alat=  1.88972599)
   5.893312754   5.013595079   0.000000000
  -7.288556749  -2.596961394   0.000000000
   0.000000000   0.000000000   5.080539668

ATOMIC_POSITIONS (angstrom)
Ti      -1.371719838   2.430215363   5.080539668
Nb      -1.374153886   0.817719330   2.540269834
Nb       1.443549766   2.444523033   5.080539668
Ti      -5.847398054  -1.764909581   2.540269834
Nb      -2.835690324  -0.026097578   5.080539668
Nb       2.905084394   3.288338896   2.540269834


     NEW-OLD atomic charge density approx. for the potential
     extrapolated charge   76.21897, renormalised to   76.00000

     total cpu time spent up to now is     6323.0 secs

     Self-consistent Calculation

     iteration #  1     ecut=    40.00 Ry     beta= 0.60
     Davidson diagonalization with overlap
     ethr =  1.00E-06,  avg # of iterations = 10.3

     total cpu time spent up to now is     6429.3 secs

     total energy              =    -704.92366369 Ry
     Harris-Foulkes estimate   =    -704.63923773 Ry
     estimated scf accuracy    <       0.03311445 Ry

     iteration #  2     ecut=    40.00 Ry     beta= 0.60
     Davidson diagonalization with overlap
     ethr =  4.36E-05,  avg # of iterations =  5.6

     total cpu time spent up to now is     6492.5 secs

     total energy              =    -704.78918289 Ry
     Harris-Foulkes estimate   =    -705.11910606 Ry
     estimated scf accuracy    <       3.25355753 Ry

     iteration #  3     ecut=    40.00 Ry     beta= 0.60
     Davidson diagonalization with overlap
     ethr =  4.36E-05,  avg # of iterations =  6.5

     total cpu time spent up to now is     6557.1 secs

     total energy              =    -704.94785812 Ry
     Harris-Foulkes estimate   =    -704.94914122 Ry
     estimated scf accuracy    <       0.00886864 Ry

     iteration #  4     ecut=    40.00 Ry     beta= 0.60
     Davidson diagonalization with overlap
     ethr =  1.17E-05,  avg # of iterations =  1.0

[...]
     reciprocal axes: (cart. coord. in units 2 pi/alat)
               b(1) = ( -0.131933  0.349293  0.000000 )  
               b(2) = ( -0.236530  0.288904  0.000000 )  
               b(3) = (  0.000000  0.000000  0.208110 )  


     PseudoPot. # 1 for Nb read from file:
     ./Nb.pbe-nsp-van.UPF
     MD5 check sum: 0a22fc7fb0ba19a08ca5db297a5d2854
     Pseudo is Ultrasoft + core correction, Zval = 13.0
     Generated by new atomic code, or converted to UPF format
     Using radial grid of  887 points,  6 beta functions with: 
                l(1) =   0
                l(2) =   0
                l(3) =   1
                l(4) =   1
                l(5) =   2
                l(6) =   2
     Q(r) pseudized with  6 coefficients,  rinner =    1.000   1.000   1.000
                                                       1.000   1.000

     PseudoPot. # 2 for Ti read from file:
     ./Ti.pbe-sp-van_ak.UPF
     MD5 check sum: f98fea3e8887528921fefa5636a534ca
     Pseudo is Ultrasoft, Zval = 12.0
     Generated by new atomic code, or converted to UPF format
     Using radial grid of  851 points,  6 beta functions with: 
                l(1) =   0
                l(2) =   0
                l(3) =   1
                l(4) =   1
                l(5) =   2
                l(6) =   2
     Q(r) pseudized with  8 coefficients,  rinner =    1.000   1.000   1.000
                                                       1.000   1.000

     atomic species   valence    mass     pseudopotential
        Nb            13.00    92.90638     Nb( 1.00)
        Ti            12.00    47.86700     Ti( 1.00)

      4 Sym. Ops. (no inversion) found



   Cartesian axes

     site n.     atom                  positions (alat units)
         1           Ti  tau(   1) = (  -1.1767957   2.4544063   4.8051468  )
         2           Nb  tau(   2) = (  -1.5871492   0.6505722   2.4025734  )
         3           Nb  tau(   3) = (   1.8235376   2.6197348   4.8051468  )
         4           Ti  tau(   4) = (  -6.4355468  -2.1486517   2.4025734  )
         5           Nb  tau(   5) = (  -2.8822662  -0.0971625   4.8051468  )
         6           Nb  tau(   6) = (   3.1186556   3.3674700   2.4025734  )

     number of k points=   248  Marzari-Vanderbilt smearing, width (Ry)=  0.0200

     Number of k-points >= 100: set verbosity='high' to print them.

     Dense  grid:    98475 G-vectors     FFT dimensions: ( 108, 108,  60)

     Smooth grid:    24901 G-vectors     FFT dimensions: (  64,  64,  40)

     Estimated max dynamical RAM per process >     238.57 MB

     Estimated total dynamical RAM >     954.26 MB

     Initial potential from superposition of free atoms

     starting charge   73.98898, renormalised to   76.00000
     Starting wfcs are   72 randomized atomic wfcs

     total cpu time spent up to now is    34965.5 secs

     Self-consistent Calculation

     iteration #  1     ecut=    40.00 Ry     beta= 0.60
     Davidson diagonalization with overlap
     ethr =  1.00E-06,  avg # of iterations = 12.6

     total cpu time spent up to now is    35081.5 secs

     total energy              =    -601.35515315 Ry
     Harris-Foulkes estimate   =    -715.46681947 Ry
     estimated scf accuracy    <     139.56075462 Ry

     iteration #  2     ecut=    40.00 Ry     beta= 0.60
     Davidson diagonalization with overlap
     c_bands:  1 eigenvalues not converged
     ethr =  1.00E-02,  avg # of iterations =  9.8

     total cpu time spent up to now is    35188.6 secs

     total energy              =    -666.56842080 Ry
     Harris-Foulkes estimate   =    -959.56420773 Ry
     estimated scf accuracy    <    1032.59985073 Ry

     iteration #  3     ecut=    40.00 Ry     beta= 0.60
     Davidson diagonalization with overlap
     ethr =  1.00E-02,  avg # of iterations =  7.9

     total cpu time spent up to now is    35271.5 secs

     total energy              =    -709.99197563 Ry
     Harris-Foulkes estimate   =    -727.91353434 Ry
     estimated scf accuracy    <      77.50502001 Ry

     iteration #  4     ecut=    40.00 Ry     beta= 0.60
     Davidson diagonalization with overlap
     ethr =  1.00E-02,  avg # of iterations =  3.4

     total cpu time spent up to now is    35313.4 secs

     total energy              =    -710.31454775 Ry
     Harris-Foulkes estimate   =    -716.24604995 Ry
     estimated scf accuracy    <      69.06035695 Ry

     iteration #  5     ecut=    40.00 Ry     beta= 0.60
     Davidson diagonalization with overlap
     ethr =  1.00E-02,  avg # of iterations =  1.8

     total cpu time spent up to now is    35345.6 secs

     total energy              =    -708.49938032 Ry
     Harris-Foulkes estimate   =    -710.92781569 Ry
     estimated scf accuracy    <      37.82259607 Ry

     iteration #  6     ecut=    40.00 Ry     beta= 0.60
     Davidson diagonalization with overlap
     ethr =  1.00E-02,  avg # of iterations =  1.3

     total cpu time spent up to now is    35376.9 secs

     total energy              =    -706.95557366 Ry
     Harris-Foulkes estimate   =    -708.64193140 Ry
     estimated scf accuracy    <      27.38295600 Ry

     iteration #  7     ecut=    40.00 Ry     beta= 0.60
     Davidson diagonalization with overlap
     ethr =  1.00E-02,  avg # of iterations =  1.2

     total cpu time spent up to now is    35408.1 secs

     total energy              =    -705.03447339 Ry
     Harris-Foulkes estimate   =    -707.06034820 Ry
     estimated scf accuracy    <      22.31603284 Ry

     iteration #  8     ecut=    40.00 Ry     beta= 0.60
     Davidson diagonalization with overlap
     ethr =  1.00E-02,  avg # of iterations =  3.0

     total cpu time spent up to now is    35443.4 secs

     total energy              =    -705.42009880 Ry
     Harris-Foulkes estimate   =    -705.47982348 Ry
     estimated scf accuracy    <       7.07384191 Ry

     iteration #  9     ecut=    40.00 Ry     beta= 0.60
     Davidson diagonalization with overlap
     ethr =  9.31E-03,  avg # of iterations =  1.0

     total cpu time spent up to now is    35474.3 secs

     total energy              =    -705.40556824 Ry
     Harris-Foulkes estimate   =    -705.45234938 Ry
     estimated scf accuracy    <       6.29334122 Ry

     iteration # 10     ecut=    40.00 Ry     beta= 0.60
     Davidson diagonalization with overlap
     ethr =  8.28E-03,  avg # of iterations =  1.0

     total cpu time spent up to now is    35505.2 secs

     total energy              =    -702.27860287 Ry
     Harris-Foulkes estimate   =    -705.42026268 Ry
     estimated scf accuracy    <       5.54626348 Ry

     iteration # 11     ecut=    40.00 Ry     beta= 0.60
     Davidson diagonalization with overlap
     ethr =  7.30E-03,  avg # of iterations =  4.2

     total cpu time spent up to now is    35559.1 secs

     total energy              =    -700.29285186 Ry
     Harris-Foulkes estimate   =    -719.27329738 Ry
     estimated scf accuracy    <     171.06006444 Ry

     iteration # 12     ecut=    40.00 Ry     beta= 0.60
     Davidson diagonalization with overlap
     ethr =  7.30E-03,  avg # of iterations =  4.3

     total cpu time spent up to now is    35604.7 secs

     total energy              =    -705.09695682 Ry
     Harris-Foulkes estimate   =    -705.26937847 Ry
     estimated scf accuracy    <       5.95791171 Ry

     iteration # 13     ecut=    40.00 Ry     beta= 0.60
     Davidson diagonalization with overlap
     ethr =  7.30E-03,  avg # of iterations =  1.2

     total cpu time spent up to now is    35641.7 secs

     total energy              =    -704.88842976 Ry
     Harris-Foulkes estimate   =    -705.13370306 Ry
     estimated scf accuracy    <       3.23026976 Ry

     iteration # 14     ecut=    40.00 Ry     beta= 0.60
     Davidson diagonalization with overlap
     ethr =  4.25E-03,  avg # of iterations =  1.7

     total cpu time spent up to now is    35679.6 secs

     total energy              =    -704.86791154 Ry
     Harris-Foulkes estimate   =    -704.98559411 Ry
     estimated scf accuracy    <       0.52552968 Ry

     iteration # 15     ecut=    40.00 Ry     beta= 0.60
     Davidson diagonalization with overlap
     ethr =  6.91E-04,  avg # of iterations =  5.8

     total cpu time spent up to now is    35741.3 secs

     total energy              =    -704.87295285 Ry
     Harris-Foulkes estimate   =    -705.04217714 Ry
     estimated scf accuracy    <       1.21091276 Ry

     iteration # 16     ecut=    40.00 Ry     beta= 0.60
     Davidson diagonalization with overlap
     ethr =  6.91E-04,  avg # of iterations =  3.4

     total cpu time spent up to now is    35785.6 secs

     total energy              =    -704.95611281 Ry
     Harris-Foulkes estimate   =    -704.97437819 Ry
     estimated scf accuracy    <       0.12893313 Ry

     iteration # 17     ecut=    40.00 Ry     beta= 0.60
     Davidson diagonalization with overlap
     ethr =  1.70E-04,  avg # of iterations =  4.2

     total cpu time spent up to now is    35833.5 secs

     total energy              =    -704.96994503 Ry
     Harris-Foulkes estimate   =    -704.97339045 Ry
     estimated scf accuracy    <       0.02050890 Ry

     iteration # 18     ecut=    40.00 Ry     beta= 0.60
     Davidson diagonalization with overlap
     ethr =  2.70E-05,  avg # of iterations =  6.5

     total cpu time spent up to now is    35881.0 secs

     total energy              =    -704.96981681 Ry
     Harris-Foulkes estimate   =    -704.97470270 Ry
     estimated scf accuracy    <       0.04162635 Ry

     iteration # 19     ecut=    40.00 Ry     beta= 0.60
     Davidson diagonalization with overlap
     ethr =  2.70E-05,  avg # of iterations =  3.0

     total cpu time spent up to now is    35917.2 secs

     total energy              =    -704.96894600 Ry
     Harris-Foulkes estimate   =    -704.97359213 Ry
     estimated scf accuracy    <       0.05949693 Ry

     iteration # 20     ecut=    40.00 Ry     beta= 0.60
     Davidson diagonalization with overlap
     ethr =  2.70E-05,  avg # of iterations =  1.9

     total cpu time spent up to now is    35949.3 secs

     total energy              =    -704.96796255 Ry
     Harris-Foulkes estimate   =    -704.97119209 Ry
     estimated scf accuracy    <       0.01864765 Ry

     iteration # 21     ecut=    40.00 Ry     beta= 0.60
     Davidson diagonalization with overlap
     ethr =  2.45E-05,  avg # of iterations =  1.9

     total cpu time spent up to now is    35981.6 secs

     total energy              =    -704.96952167 Ry
     Harris-Foulkes estimate   =    -704.96991416 Ry
     estimated scf accuracy    <       0.00222211 Ry

     iteration # 22     ecut=    40.00 Ry     beta= 0.60
     Davidson diagonalization with overlap
     c_bands:  1 eigenvalues not converged
     ethr =  2.92E-06,  avg # of iterations =  5.9

     total cpu time spent up to now is    36026.4 secs

     total energy              =    -704.96982497 Ry
     Harris-Foulkes estimate   =    -704.96987485 Ry
     estimated scf accuracy    <       0.00027173 Ry

     iteration # 23     ecut=    40.00 Ry     beta= 0.60
     Davidson diagonalization with overlap
     ethr =  3.58E-07,  avg # of iterations =  2.6

     total cpu time spent up to now is    36061.5 secs

     total energy              =    -704.96985510 Ry
     Harris-Foulkes estimate   =    -704.96986474 Ry
     estimated scf accuracy    <       0.00004267 Ry

     iteration # 24     ecut=    40.00 Ry     beta= 0.60
     Davidson diagonalization with overlap
     ethr =  5.61E-08,  avg # of iterations =  3.2

     total cpu time spent up to now is    36099.5 secs

     total energy              =    -704.96986067 Ry
     Harris-Foulkes estimate   =    -704.96986431 Ry
     estimated scf accuracy    <       0.00002965 Ry

     iteration # 25     ecut=    40.00 Ry     beta= 0.60
     Davidson diagonalization with overlap
     ethr =  3.90E-08,  avg # of iterations =  1.1

     total cpu time spent up to now is    36130.4 secs

     total energy              =    -704.96986197 Ry
     Harris-Foulkes estimate   =    -704.96986414 Ry
     estimated scf accuracy    <       0.00001526 Ry

     iteration # 26     ecut=    40.00 Ry     beta= 0.60
     Davidson diagonalization with overlap
     ethr =  2.01E-08,  avg # of iterations =  1.3

     total cpu time spent up to now is    36161.5 secs

     total energy              =    -704.96986322 Ry
     Harris-Foulkes estimate   =    -704.96986327 Ry
     estimated scf accuracy    <       0.00000026 Ry

     iteration # 27     ecut=    40.00 Ry     beta= 0.60
     Davidson diagonalization with overlap
     ethr =  3.46E-10,  avg # of iterations =  4.7

     total cpu time spent up to now is    36209.6 secs

     total energy              =    -704.96986336 Ry
     Harris-Foulkes estimate   =    -704.96986340 Ry
     estimated scf accuracy    <       0.00000022 Ry

     iteration # 28     ecut=    40.00 Ry     beta= 0.60
     Davidson diagonalization with overlap
     ethr =  2.88E-10,  avg # of iterations =  2.0

     total cpu time spent up to now is    36241.8 secs

     total energy              =    -704.96986337 Ry
     Harris-Foulkes estimate   =    -704.96986339 Ry
     estimated scf accuracy    <       0.00000011 Ry

     iteration # 29     ecut=    40.00 Ry     beta= 0.60
     Davidson diagonalization with overlap
     ethr =  1.47E-10,  avg # of iterations =  1.9

     total cpu time spent up to now is    36274.1 secs

     total energy              =    -704.96986338 Ry
     Harris-Foulkes estimate   =    -704.96986338 Ry
     estimated scf accuracy    <       0.00000002 Ry

     iteration # 30     ecut=    40.00 Ry     beta= 0.60
     Davidson diagonalization with overlap
     ethr =  3.23E-11,  avg # of iterations =  3.0

     total cpu time spent up to now is    36309.9 secs

     total energy              =    -704.96986338 Ry
     Harris-Foulkes estimate   =    -704.96986338 Ry
     estimated scf accuracy    <          6.2E-09 Ry

     iteration # 31     ecut=    40.00 Ry     beta= 0.60
     Davidson diagonalization with overlap
     ethr =  8.21E-12,  avg # of iterations =  1.9

     total cpu time spent up to now is    36342.0 secs

     total energy              =    -704.96986338 Ry
     Harris-Foulkes estimate   =    -704.96986338 Ry
     estimated scf accuracy    <          8.4E-10 Ry

     iteration # 32     ecut=    40.00 Ry     beta= 0.60
     Davidson diagonalization with overlap
     ethr =  1.11E-12,  avg # of iterations =  3.6

     total cpu time spent up to now is    36381.9 secs

     total energy              =    -704.96986338 Ry
     Harris-Foulkes estimate   =    -704.96986338 Ry
     estimated scf accuracy    <          1.1E-10 Ry

     iteration # 33     ecut=    40.00 Ry     beta= 0.60
     Davidson diagonalization with overlap
     ethr =  1.50E-13,  avg # of iterations =  2.9

     total cpu time spent up to now is    36418.9 secs

     total energy              =    -704.96986338 Ry
     Harris-Foulkes estimate   =    -704.96986338 Ry
     estimated scf accuracy    <          1.6E-11 Ry

     iteration # 34     ecut=    40.00 Ry     beta= 0.60
     Davidson diagonalization with overlap
     ethr =  1.00E-13,  avg # of iterations =  1.0

     total cpu time spent up to now is    36449.5 secs

     total energy              =    -704.96986338 Ry
     Harris-Foulkes estimate   =    -704.96986338 Ry
     estimated scf accuracy    <          7.2E-12 Ry

     iteration # 35     ecut=    40.00 Ry     beta= 0.60
     Davidson diagonalization with overlap
     ethr =  1.00E-13,  avg # of iterations =  1.0

     total cpu time spent up to now is    36480.1 secs

     End of self-consistent calculation

     Number of k-points >= 100: set verbosity='high' to print the bands.

     the Fermi energy is    16.3747 ev

!    total energy              =    -704.96986338 Ry
     Harris-Foulkes estimate   =    -704.96986338 Ry
     estimated scf accuracy    <          9.0E-14 Ry

     The total energy is the sum of the following terms:

     one-electron contribution =    -151.43283709 Ry
     hartree contribution      =     110.20927203 Ry
     xc contribution           =    -102.78547011 Ry
     ewald contribution        =    -560.96021768 Ry
     smearing contrib. (-TS)   =      -0.00061053 Ry

     convergence has been achieved in  35 iterations

     Forces acting on atoms (cartesian axes, Ry/au):

     atom    1 type  2   force =    -0.00007076   -0.00004086    0.00000000
     atom    2 type  1   force =     0.00000473    0.00000273    0.00000000
     atom    3 type  1   force =     0.00000272    0.00000157    0.00000000
     atom    4 type  2   force =     0.00005591    0.00003228    0.00000000
     atom    5 type  1   force =     0.00000214    0.00000124    0.00000000
     atom    6 type  1   force =     0.00000526    0.00000304    0.00000000

     Total force =     0.000105     Total SCF correction =     0.000001


     Computing stress (Cartesian axis) and pressure

          total   stress  (Ry/bohr**3)                   (kbar)     P=   -1.16
  -0.00000115   0.00001051   0.00000000         -0.17      1.55      0.00
   0.00001051  -0.00001329   0.00000000          1.55     -1.95      0.00
   0.00000000   0.00000000  -0.00000923          0.00      0.00     -1.36

 
     init_run     :     38.76s CPU     39.59s WALL (       2 calls)
     electrons    :  35249.83s CPU  35890.55s WALL (      42 calls)
     update_pot   :     60.00s CPU     60.51s WALL (      40 calls)
     forces       :    130.36s CPU    134.73s WALL (      42 calls)
     stress       :    334.84s CPU    347.52s WALL (      42 calls)

     Called by init_run:
     wfcinit      :     36.51s CPU     37.17s WALL (       2 calls)
     potinit      :      0.71s CPU      0.73s WALL (       2 calls)
     hinit0       :      1.19s CPU      1.24s WALL (       2 calls)

     Called by electrons:
     c_bands      :  29898.85s CPU  30325.03s WALL (     840 calls)
     sum_band     :   5148.85s CPU   5281.41s WALL (     840 calls)
     v_of_rho     :     66.22s CPU     67.01s WALL (     874 calls)
     newd         :    135.23s CPU    214.49s WALL (     874 calls)
     mix_rho      :      5.95s CPU      6.01s WALL (     840 calls)

     Called by c_bands:
     init_us_2    :    264.36s CPU    266.86s WALL (  437968 calls)
     cegterg      :  28127.44s CPU  28495.52s WALL (  208320 calls)

     Called by sum_band:
     sum_band:bec :      9.20s CPU      9.52s WALL (  208320 calls)
     addusdens    :    167.79s CPU    238.62s WALL (     840 calls)

     Called by *egterg:
     h_psi        :  21308.27s CPU  21641.51s WALL (  886457 calls)
     s_psi        :    601.87s CPU    604.94s WALL (  886457 calls)
     g_psi        :    102.34s CPU    104.48s WALL (  677641 calls)
     cdiaghg      :   3712.41s CPU   3727.51s WALL (  874057 calls)

     Called by h_psi:
     h_psi:pot    :  21255.34s CPU  21587.61s WALL (  886457 calls)
     h_psi:calbec :    692.61s CPU    698.60s WALL (  886457 calls)
     vloc_psi     :  19940.96s CPU  20263.09s WALL (  886457 calls)
     add_vuspsi   :    618.01s CPU    620.86s WALL (  886457 calls)

     General routines
     calbec       :    998.14s CPU   1005.92s WALL ( 1146857 calls)
     fft          :     32.55s CPU     33.14s WALL (   12418 calls)
     ffts         :      1.04s CPU      1.05s WALL (    1714 calls)
     fftw         :  21387.36s CPU  21708.89s WALL (58106502 calls)
     interpolate  :      3.08s CPU      3.10s WALL (     874 calls)
 
     Parallel routines
     fft_scatt_xy :   5835.37s CPU   5899.53s WALL (58120634 calls)
     fft_scatt_yz :   3431.63s CPU   3487.25s WALL (58120634 calls)
 
     PWSCF        :     9h57m CPU       57h10m WALL

       8h
 
   This run was terminated on:   1:43:56  24Jan2020            

=------------------------------------------------------------------------------=
   JOB DONE.
=------------------------------------------------------------------------------=
