
     Program PWSCF v.6.0 (svn rev. 13079) starts on 26Apr2018 at 15:35:43 

     This program is part of the open-source Quantum ESPRESSO suite
     for quantum simulation of materials; please cite
         "P. Giannozzi et al., J. Phys.:Condens. Matter 21 395502 (2009);
          URL http://www.quantum-espresso.org", 
     in publications or presentations arising from this work. More details at
     http://www.quantum-espresso.org/quote

     Parallel version (MPI), running on     4 processors
     R & G space division:  proc/nbgrp/npool/nimage =       4
     Waiting for input...
     Reading input from standard input

     Current dimensions of program PWSCF are:
     Max number of different atomic species (ntypx) = 10
     Max number of k-points (npk) =  40000
     Max angular momentum in pseudopotentials (lmaxx) =  3

     Subspace diagonalization in iterative solution of the eigenvalue problem:
     a serial algorithm will be used


     Parallelization info
     --------------------
     sticks:   dense  smooth     PW     G-vecs:    dense   smooth      PW
     Min         762     303     91                20782     5255     869
     Max         763     304     93                20783     5258     870
     Sum        3049    1213    367                83129    21025    3477



     bravais-lattice index     =            0
     lattice parameter (alat)  =       1.8897  a.u.
     unit-cell volume          =     440.0051 (a.u.)^3
     number of atoms/cell      =            3
     number of atomic types    =            2
     number of electrons       =        37.00
     number of Kohn-Sham states=           23
     kinetic-energy cutoff     =      50.0000  Ry
     charge density cutoff     =     500.0000  Ry
     convergence threshold     =      1.0E-10
     mixing beta               =       0.6000
     number of iterations used =            8  plain     mixing
     Exchange-correlation      = SLA  PW   PBE  PBE ( 1  4  3  4 0 0)
     nstep                     =           50


     celldm(1)=   1.889726  celldm(2)=   0.000000  celldm(3)=   0.000000
     celldm(4)=   0.000000  celldm(5)=   0.000000  celldm(6)=   0.000000

     crystal axes: (cart. coord. in units of alat)
               a(1) = (   0.000000  -3.516063  -3.516063 )  
               a(2) = (  -3.516063   3.516063   0.000000 )  
               a(3) = (   1.758031   1.758031  -1.758031 )  

     reciprocal axes: (cart. coord. in units 2 pi/alat)
               b(1) = ( -0.094803 -0.094803 -0.189606 )  
               b(2) = ( -0.189606  0.094803 -0.094803 )  
               b(3) = (  0.189606  0.189606 -0.189606 )  


     PseudoPot. # 1 for Nb read from file:
     ./Nb.pbe-nsp-van.UPF
     MD5 check sum: 0a22fc7fb0ba19a08ca5db297a5d2854
     Pseudo is Ultrasoft + core correction, Zval = 13.0
     Generated by new atomic code, or converted to UPF format
     Using radial grid of  887 points,  6 beta functions with: 
                l(1) =   0
                l(2) =   0
                l(3) =   1
                l(4) =   1
                l(5) =   2
                l(6) =   2
     Q(r) pseudized with  6 coefficients,  rinner =    1.000   1.000   1.000
                                                       1.000   1.000

     PseudoPot. # 2 for Ti read from file:
     ./Ti.pbe-sp-van_ak.UPF
     MD5 check sum: f98fea3e8887528921fefa5636a534ca
     Pseudo is Ultrasoft, Zval = 12.0
     Generated by new atomic code, or converted to UPF format
     Using radial grid of  851 points,  6 beta functions with: 
                l(1) =   0
                l(2) =   0
                l(3) =   1
                l(4) =   1
                l(5) =   2
                l(6) =   2
     Q(r) pseudized with  8 coefficients,  rinner =    1.000   1.000   1.000
                                                       1.000   1.000

     atomic species   valence    mass     pseudopotential
        Nb            13.00    92.90638     Nb( 1.00)
        Ti            12.00    47.86700     Ti( 1.00)

     12 Sym. Ops., with inversion, found ( 6 have fractional translation)



   Cartesian axes

     site n.     atom                  positions (alat units)
         1           Ti  tau(   1) = (  -1.7580316   1.7580316  -5.2740949  )
         2           Ti  tau(   2) = (   0.0000000   0.0000000  -3.5160633  )
         3           Nb  tau(   3) = (  -1.7580316   1.7580316  -1.7580316  )

     number of k points=   298  Marzari-Vanderbilt smearing, width (Ry)=  0.0200

     Number of k-points >= 100: set verbosity='high' to print them.

     Dense  grid:    83129 G-vectors     FFT dimensions: (  72,  72,  45)

     Smooth grid:    21025 G-vectors     FFT dimensions: (  45,  45,  25)

     Estimated max dynamical RAM per process >      84.29Mb

     Estimated total allocated dynamical RAM >     337.17Mb

     Initial potential from superposition of free atoms

     starting charge   34.99718, renormalised to   37.00000
     Starting wfc are   33 randomized atomic wfcs

     total cpu time spent up to now is       12.2 secs

     per-process dynamical memory:   152.0 Mb

     Self-consistent Calculation

     iteration #  1     ecut=    50.00 Ry     beta=0.60
     Davidson diagonalization with overlap
     ethr =  1.00E-02,  avg # of iterations =  3.5

     total cpu time spent up to now is       39.0 secs

     total energy              =    -348.51327533 Ry
     Harris-Foulkes estimate   =    -352.21091676 Ry
     estimated scf accuracy    <       4.80267925 Ry

     iteration #  2     ecut=    50.00 Ry     beta=0.60
     Davidson diagonalization with overlap
     ethr =  1.00E-02,  avg # of iterations =  4.8

     total cpu time spent up to now is       73.0 secs

     total energy              =    -348.65812054 Ry
     Harris-Foulkes estimate   =    -357.22685068 Ry
     estimated scf accuracy    <      29.07418962 Ry

     iteration #  3     ecut=    50.00 Ry     beta=0.60
     Davidson diagonalization with overlap
     ethr =  1.00E-02,  avg # of iterations =  4.2

     total cpu time spent up to now is      100.1 secs

     total energy              =    -351.09882953 Ry
     Harris-Foulkes estimate   =    -351.15545544 Ry
     estimated scf accuracy    <       0.28397473 Ry

     iteration #  4     ecut=    50.00 Ry     beta=0.60
     Davidson diagonalization with overlap
     ethr =  7.67E-04,  avg # of iterations =  6.4

     total cpu time spent up to now is      135.6 secs

     total energy              =    -351.16226151 Ry
     Harris-Foulkes estimate   =    -351.18808444 Ry
     estimated scf accuracy    <       0.12741271 Ry

     iteration #  5     ecut=    50.00 Ry     beta=0.60
     Davidson diagonalization with overlap
     ethr =  3.44E-04,  avg # of iterations =  5.0

     total cpu time spent up to now is      164.6 secs

     total energy              =    -351.22013756 Ry
     Harris-Foulkes estimate   =    -351.23075319 Ry
     estimated scf accuracy    <       0.60436233 Ry

     iteration #  6     ecut=    50.00 Ry     beta=0.60
     Davidson diagonalization with overlap
     ethr =  3.44E-04,  avg # of iterations =  1.0

     total cpu time spent up to now is      183.0 secs

     total energy              =    -351.14716498 Ry
     Harris-Foulkes estimate   =    -351.22067222 Ry
     estimated scf accuracy    <       0.53856606 Ry

     iteration #  7     ecut=    50.00 Ry     beta=0.60
     Davidson diagonalization with overlap
     ethr =  3.44E-04,  avg # of iterations =  3.1

     total cpu time spent up to now is      204.5 secs

     total energy              =    -351.14515015 Ry
     Harris-Foulkes estimate   =    -351.16403315 Ry
     estimated scf accuracy    <       0.09046529 Ry

     iteration #  8     ecut=    50.00 Ry     beta=0.60
     Davidson diagonalization with overlap
     ethr =  2.45E-04,  avg # of iterations =  4.3

     total cpu time spent up to now is      229.2 secs

     total energy              =    -351.15824732 Ry
     Harris-Foulkes estimate   =    -351.15885749 Ry
     estimated scf accuracy    <       0.00364240 Ry

     iteration #  9     ecut=    50.00 Ry     beta=0.60
     Davidson diagonalization with overlap
     ethr =  9.84E-06,  avg # of iterations =  8.0

     total cpu time spent up to now is      266.3 secs

     total energy              =    -351.15960550 Ry
     Harris-Foulkes estimate   =    -351.15994214 Ry
     estimated scf accuracy    <       0.00172403 Ry

     iteration # 10     ecut=    50.00 Ry     beta=0.60
     Davidson diagonalization with overlap
     ethr =  4.66E-06,  avg # of iterations =  2.7

     total cpu time spent up to now is      287.3 secs

     total energy              =    -351.15977880 Ry
     Harris-Foulkes estimate   =    -351.15983104 Ry
     estimated scf accuracy    <       0.00015854 Ry

     iteration # 11     ecut=    50.00 Ry     beta=0.60
     Davidson diagonalization with overlap
     ethr =  4.28E-07,  avg # of iterations =  4.3

     total cpu time spent up to now is      313.8 secs

     total energy              =    -351.15984531 Ry
     Harris-Foulkes estimate   =    -351.15984299 Ry
     estimated scf accuracy    <       0.00003963 Ry

     iteration # 12     ecut=    50.00 Ry     beta=0.60
     Davidson diagonalization with overlap
     ethr =  1.07E-07,  avg # of iterations =  3.4

     total cpu time spent up to now is      337.0 secs

     total energy              =    -351.15983486 Ry
     Harris-Foulkes estimate   =    -351.15985385 Ry
     estimated scf accuracy    <       0.00020670 Ry

     iteration # 13     ecut=    50.00 Ry     beta=0.60
     Davidson diagonalization with overlap
     ethr =  1.07E-07,  avg # of iterations =  1.7

     total cpu time spent up to now is      356.1 secs

     total energy              =    -351.15983544 Ry
     Harris-Foulkes estimate   =    -351.15983895 Ry
     estimated scf accuracy    <       0.00005954 Ry

     iteration # 14     ecut=    50.00 Ry     beta=0.60
     Davidson diagonalization with overlap
     ethr =  1.07E-07,  avg # of iterations =  2.8

     total cpu time spent up to now is      377.1 secs

     total energy              =    -351.15983566 Ry
     Harris-Foulkes estimate   =    -351.15983778 Ry
     estimated scf accuracy    <       0.00001229 Ry

     iteration # 15     ecut=    50.00 Ry     beta=0.60
     Davidson diagonalization with overlap
     ethr =  3.32E-08,  avg # of iterations =  4.1

     total cpu time spent up to now is      402.4 secs

     total energy              =    -351.15983819 Ry
     Harris-Foulkes estimate   =    -351.15983852 Ry
     estimated scf accuracy    <       0.00000335 Ry

     iteration # 16     ecut=    50.00 Ry     beta=0.60
     Davidson diagonalization with overlap
     ethr =  9.05E-09,  avg # of iterations =  2.5

     total cpu time spent up to now is      422.7 secs

     total energy              =    -351.15983815 Ry
     Harris-Foulkes estimate   =    -351.15983836 Ry
     estimated scf accuracy    <       0.00000138 Ry

     iteration # 17     ecut=    50.00 Ry     beta=0.60
     Davidson diagonalization with overlap
     ethr =  3.72E-09,  avg # of iterations =  3.0

     total cpu time spent up to now is      444.9 secs

     total energy              =    -351.15983833 Ry
     Harris-Foulkes estimate   =    -351.15983834 Ry
     estimated scf accuracy    <       0.00000008 Ry

     iteration # 18     ecut=    50.00 Ry     beta=0.60
     Davidson diagonalization with overlap
     ethr =  2.03E-10,  avg # of iterations =  4.4

     total cpu time spent up to now is      471.3 secs

     total energy              =    -351.15983834 Ry
     Harris-Foulkes estimate   =    -351.15983835 Ry
     estimated scf accuracy    <       0.00000003 Ry

     iteration # 19     ecut=    50.00 Ry     beta=0.60
     Davidson diagonalization with overlap
     ethr =  8.88E-11,  avg # of iterations =  1.9

     total cpu time spent up to now is      491.1 secs

     total energy              =    -351.15983834 Ry
     Harris-Foulkes estimate   =    -351.15983834 Ry
     estimated scf accuracy    <          2.7E-10 Ry

     iteration # 20     ecut=    50.00 Ry     beta=0.60
     Davidson diagonalization with overlap
     ethr =  7.40E-13,  avg # of iterations =  5.5

     total cpu time spent up to now is      526.3 secs

     total energy              =    -351.15983834 Ry
     Harris-Foulkes estimate   =    -351.15983834 Ry
     estimated scf accuracy    <          2.1E-09 Ry

     iteration # 21     ecut=    50.00 Ry     beta=0.60
     Davidson diagonalization with overlap
     ethr =  7.40E-13,  avg # of iterations =  3.9

     total cpu time spent up to now is      551.4 secs

     End of self-consistent calculation

     Number of k-points >= 100: set verbosity='high' to print the bands.

     the Fermi energy is    11.4274 ev

!    total energy              =    -351.15983834 Ry
     Harris-Foulkes estimate   =    -351.15983834 Ry
     estimated scf accuracy    <          5.4E-11 Ry

     The total energy is the sum of the following terms:

     one-electron contribution =    -126.32586266 Ry
     hartree contribution      =      72.27674241 Ry
     xc contribution           =     -46.99841096 Ry
     ewald contribution        =    -250.11188705 Ry
     smearing contrib. (-TS)   =      -0.00042008 Ry

     convergence has been achieved in  21 iterations

     Forces acting on atoms (Ry/au):

     atom    1 type  2   force =     0.00436087    0.00436087   -0.00436087
     atom    2 type  2   force =    -0.00436087   -0.00436087    0.00436087
     atom    3 type  1   force =     0.00000000    0.00000000   -0.00000000

     Total force =     0.010682     Total SCF correction =     0.000002


     entering subroutine stress ...

          total   stress  (Ry/bohr**3)                   (kbar)     P= -189.59
  -0.00128881  -0.00001751   0.00001751       -189.59     -2.58      2.58
  -0.00001751  -0.00128881   0.00001751         -2.58   -189.59      2.58
   0.00001751   0.00001751  -0.00128881          2.58      2.58   -189.59


     BFGS Geometry Optimization

     number of scf cycles    =   1
     number of bfgs steps    =   0

     enthalpy new            =    -351.1598383440 Ry

     new trust radius        =       0.1351977798 bohr
     new conv_thr            =            1.0E-10 Ry

     new unit-cell volume =    398.82913 a.u.^3 (    59.10038 Ang^3 )

CELL_PARAMETERS (alat=  1.88972599)
  -0.000000000  -3.404313690  -3.404313690
  -3.404313690   3.404313690   0.000000000
   1.699847533   1.699847533  -1.699847533

ATOMIC_POSITIONS (angstrom)
Ti      -1.702234857   1.702078833  -5.106392523
Ti      -0.003770841  -0.003770841  -3.400542849
Nb      -1.702926616   1.701387074  -1.701387074


     NEW-OLD atomic charge density approx. for the potential
     extrapolated charge   33.38682, renormalised to   37.00000

     total cpu time spent up to now is      564.3 secs

     per-process dynamical memory:   152.4 Mb

     Self-consistent Calculation

     iteration #  1     ecut=    50.00 Ry     beta=0.60
     Davidson diagonalization with overlap
     c_bands:  1 eigenvalues not converged
     c_bands:  1 eigenvalues not converged
     c_bands:  1 eigenvalues not converged
     c_bands:  1 eigenvalues not converged
     c_bands:  1 eigenvalues not converged
     c_bands:  1 eigenvalues not converged
     c_bands:  1 eigenvalues not converged
     c_bands:  2 eigenvalues not converged
     ethr =  1.00E-06,  avg # of iterations = 14.9

     total cpu time spent up to now is      645.0 secs

     total energy              =    -338.90515513 Ry
     Harris-Foulkes estimate   =    -360.17831249 Ry
     estimated scf accuracy    <      13.42662244 Ry

     iteration #  2     ecut=    50.00 Ry     beta=0.60
     Davidson diagonalization with overlap
     ethr =  1.00E-02,  avg # of iterations =  5.3

     total cpu time spent up to now is      686.5 secs

     total energy              =    -350.81311426 Ry
     Harris-Foulkes estimate   =    -367.89092554 Ry
     estimated scf accuracy    <      50.49808276 Ry

     iteration #  3     ecut=    50.00 Ry     beta=0.60
     Davidson diagonalization with overlap
     ethr =  1.00E-02,  avg # of iterations =  3.3

     total cpu time spent up to now is      717.6 secs

     total energy              =    -351.99892140 Ry
     Harris-Foulkes estimate   =    -353.98407704 Ry
     estimated scf accuracy    <       9.15043809 Ry

     iteration #  4     ecut=    50.00 Ry     beta=0.60
     Davidson diagonalization with overlap
     ethr =  1.00E-02,  avg # of iterations =  1.3

     total cpu time spent up to now is      738.4 secs

     total energy              =    -351.09590265 Ry
     Harris-Foulkes estimate   =    -352.14212198 Ry
     estimated scf accuracy    <       5.37439593 Ry

     iteration #  5     ecut=    50.00 Ry     beta=0.60
     Davidson diagonalization with overlap
     ethr =  1.00E-02,  avg # of iterations =  2.4

     total cpu time spent up to now is      759.4 secs

     total energy              =    -351.60672746 Ry
     Harris-Foulkes estimate   =    -351.37669484 Ry
     estimated scf accuracy    <       1.14654756 Ry

     iteration #  6     ecut=    50.00 Ry     beta=0.60
     Davidson diagonalization with overlap
     ethr =  3.10E-03,  avg # of iterations =  1.8

     total cpu time spent up to now is      778.9 secs

     total energy              =    -351.53565874 Ry
     Harris-Foulkes estimate   =    -351.69703934 Ry
     estimated scf accuracy    <       2.81316222 Ry

     iteration #  7     ecut=    50.00 Ry     beta=0.60
     Davidson diagonalization with overlap
     ethr =  3.10E-03,  avg # of iterations =  1.1

     total cpu time spent up to now is      797.5 secs

     total energy              =    -351.40301027 Ry
     Harris-Foulkes estimate   =    -351.54731688 Ry
     estimated scf accuracy    <       2.21955737 Ry

     iteration #  8     ecut=    50.00 Ry     beta=0.60
     Davidson diagonalization with overlap
     ethr =  3.10E-03,  avg # of iterations =  1.1

     total cpu time spent up to now is      818.9 secs

     total energy              =    -351.22124667 Ry
     Harris-Foulkes estimate   =    -351.41371594 Ry
     estimated scf accuracy    <       1.59891547 Ry

     iteration #  9     ecut=    50.00 Ry     beta=0.60
     Davidson diagonalization with overlap
     ethr =  3.10E-03,  avg # of iterations =  1.4

     total cpu time spent up to now is      846.2 secs

     total energy              =    -351.25865870 Ry
     Harris-Foulkes estimate   =    -351.25156917 Ry
     estimated scf accuracy    <       0.64327771 Ry

     iteration # 10     ecut=    50.00 Ry     beta=0.60
     Davidson diagonalization with overlap
     ethr =  1.74E-03,  avg # of iterations =  1.4

     total cpu time spent up to now is      865.7 secs

     total energy              =    -350.98900525 Ry
     Harris-Foulkes estimate   =    -351.26585139 Ry
     estimated scf accuracy    <       0.66750035 Ry

     iteration # 11     ecut=    50.00 Ry     beta=0.60
     Davidson diagonalization with overlap
     ethr =  1.74E-03,  avg # of iterations =  5.2

     total cpu time spent up to now is      896.5 secs

     total energy              =    -351.31337708 Ry
     Harris-Foulkes estimate   =    -351.33501523 Ry
     estimated scf accuracy    <       1.70301567 Ry

     iteration # 12     ecut=    50.00 Ry     beta=0.60
     Davidson diagonalization with overlap
     ethr =  1.74E-03,  avg # of iterations =  1.1

     total cpu time spent up to now is      919.9 secs

     total energy              =    -351.34149663 Ry
     Harris-Foulkes estimate   =    -351.31706615 Ry
     estimated scf accuracy    <       1.48620430 Ry

     iteration # 13     ecut=    50.00 Ry     beta=0.60
     Davidson diagonalization with overlap
     ethr =  1.74E-03,  avg # of iterations =  1.0

     total cpu time spent up to now is      941.0 secs

     total energy              =    -351.12092963 Ry
     Harris-Foulkes estimate   =    -351.34288351 Ry
     estimated scf accuracy    <       1.69917519 Ry

     iteration # 14     ecut=    50.00 Ry     beta=0.60
     Davidson diagonalization with overlap
     ethr =  1.74E-03,  avg # of iterations =  1.0

     total cpu time spent up to now is      960.8 secs

     total energy              =    -351.21051158 Ry
     Harris-Foulkes estimate   =    -351.17751660 Ry
     estimated scf accuracy    <       0.32780927 Ry

     iteration # 15     ecut=    50.00 Ry     beta=0.60
     Davidson diagonalization with overlap
     ethr =  8.86E-04,  avg # of iterations =  1.0

     total cpu time spent up to now is      984.0 secs

     total energy              =    -351.20476670 Ry
     Harris-Foulkes estimate   =    -351.22035081 Ry
     estimated scf accuracy    <       0.60072600 Ry

     iteration # 16     ecut=    50.00 Ry     beta=0.60
     Davidson diagonalization with overlap
     ethr =  8.86E-04,  avg # of iterations =  1.0

     total cpu time spent up to now is     1008.6 secs

     total energy              =    -351.17872182 Ry
     Harris-Foulkes estimate   =    -351.20901478 Ry
     estimated scf accuracy    <       0.41770964 Ry

     iteration # 17     ecut=    50.00 Ry     beta=0.60
     Davidson diagonalization with overlap
     ethr =  8.86E-04,  avg # of iterations =  1.9

     total cpu time spent up to now is     1031.3 secs

     total energy              =    -351.17830540 Ry
     Harris-Foulkes estimate   =    -351.19362148 Ry
     estimated scf accuracy    <       0.11304283 Ry

     iteration # 18     ecut=    50.00 Ry     beta=0.60
     Davidson diagonalization with overlap
     ethr =  3.06E-04,  avg # of iterations =  4.4

     total cpu time spent up to now is     1060.2 secs

     total energy              =    -351.20624935 Ry
     Harris-Foulkes estimate   =    -351.20756266 Ry
     estimated scf accuracy    <       0.02313259 Ry

     iteration # 19     ecut=    50.00 Ry     beta=0.60
     Davidson diagonalization with overlap
     ethr =  6.25E-05,  avg # of iterations =  3.4

     total cpu time spent up to now is     1090.5 secs

     total energy              =    -351.20393311 Ry
     Harris-Foulkes estimate   =    -351.20701269 Ry
     estimated scf accuracy    <       0.02011811 Ry

     iteration # 20     ecut=    50.00 Ry     beta=0.60
     Davidson diagonalization with overlap
     ethr =  5.44E-05,  avg # of iterations =  1.1

     total cpu time spent up to now is     1113.5 secs

     total energy              =    -351.20407587 Ry
     Harris-Foulkes estimate   =    -351.20467893 Ry
     estimated scf accuracy    <       0.00378715 Ry

     iteration # 21     ecut=    50.00 Ry     beta=0.60
     Davidson diagonalization with overlap
     ethr =  1.02E-05,  avg # of iterations =  6.1

     total cpu time spent up to now is     1156.7 secs

     total energy              =    -351.20520927 Ry
     Harris-Foulkes estimate   =    -351.20507061 Ry
     estimated scf accuracy    <       0.00069441 Ry

     iteration # 22     ecut=    50.00 Ry     beta=0.60
     Davidson diagonalization with overlap
     c_bands:  1 eigenvalues not converged
     c_bands:  1 eigenvalues not converged
     c_bands:  1 eigenvalues not converged
     ethr =  1.88E-06,  avg # of iterations =  3.6

     total cpu time spent up to now is     1181.2 secs

     total energy              =    -351.20521192 Ry
     Harris-Foulkes estimate   =    -351.20527050 Ry
     estimated scf accuracy    <       0.00240919 Ry

     iteration # 23     ecut=    50.00 Ry     beta=0.60
     Davidson diagonalization with overlap
     ethr =  1.88E-06,  avg # of iterations =  1.0

     total cpu time spent up to now is     1201.0 secs

     total energy              =    -351.20508709 Ry
     Harris-Foulkes estimate   =    -351.20522154 Ry
     estimated scf accuracy    <       0.00192874 Ry

     iteration # 24     ecut=    50.00 Ry     beta=0.60
     Davidson diagonalization with overlap
     ethr =  1.88E-06,  avg # of iterations =  1.0

     total cpu time spent up to now is     1219.7 secs

     total energy              =    -351.20479144 Ry
     Harris-Foulkes estimate   =    -351.20510240 Ry
     estimated scf accuracy    <       0.00103413 Ry

     iteration # 25     ecut=    50.00 Ry     beta=0.60
     Davidson diagonalization with overlap
     ethr =  1.88E-06,  avg # of iterations =  4.7

     total cpu time spent up to now is     1248.2 secs

     total energy              =    -351.20500329 Ry
     Harris-Foulkes estimate   =    -351.20509129 Ry
     estimated scf accuracy    <       0.00097387 Ry

     iteration # 26     ecut=    50.00 Ry     beta=0.60
     Davidson diagonalization with overlap
     ethr =  1.88E-06,  avg # of iterations =  1.0

     total cpu time spent up to now is     1268.2 secs

     total energy              =    -351.20495762 Ry
     Harris-Foulkes estimate   =    -351.20502044 Ry
     estimated scf accuracy    <       0.00035275 Ry

     iteration # 27     ecut=    50.00 Ry     beta=0.60
     Davidson diagonalization with overlap
     ethr =  9.53E-07,  avg # of iterations =  2.9

     total cpu time spent up to now is     1292.1 secs

     total energy              =    -351.20501173 Ry
     Harris-Foulkes estimate   =    -351.20501965 Ry
     estimated scf accuracy    <       0.00007794 Ry

     iteration # 28     ecut=    50.00 Ry     beta=0.60
     Davidson diagonalization with overlap
     ethr =  2.11E-07,  avg # of iterations =  1.4

     total cpu time spent up to now is     1311.6 secs

     total energy              =    -351.20501148 Ry
     Harris-Foulkes estimate   =    -351.20501462 Ry
     estimated scf accuracy    <       0.00002210 Ry

     iteration # 29     ecut=    50.00 Ry     beta=0.60
     Davidson diagonalization with overlap
     ethr =  5.97E-08,  avg # of iterations =  3.4

     total cpu time spent up to now is     1335.2 secs

     total energy              =    -351.20501442 Ry
     Harris-Foulkes estimate   =    -351.20501443 Ry
     estimated scf accuracy    <       0.00000048 Ry

     iteration # 30     ecut=    50.00 Ry     beta=0.60
     Davidson diagonalization with overlap
     ethr =  1.29E-09,  avg # of iterations =  5.1

     total cpu time spent up to now is     1364.1 secs

     total energy              =    -351.20501443 Ry
     Harris-Foulkes estimate   =    -351.20501465 Ry
     estimated scf accuracy    <       0.00000108 Ry

     iteration # 31     ecut=    50.00 Ry     beta=0.60
     Davidson diagonalization with overlap
     ethr =  1.29E-09,  avg # of iterations =  3.7

     total cpu time spent up to now is     1388.8 secs

     total energy              =    -351.20501455 Ry
     Harris-Foulkes estimate   =    -351.20501457 Ry
     estimated scf accuracy    <       0.00000010 Ry

     iteration # 32     ecut=    50.00 Ry     beta=0.60
     Davidson diagonalization with overlap
     ethr =  2.82E-10,  avg # of iterations =  2.4

     total cpu time spent up to now is     1409.6 secs

     total energy              =    -351.20501456 Ry
     Harris-Foulkes estimate   =    -351.20501456 Ry
     estimated scf accuracy    <       0.00000002 Ry

     iteration # 33     ecut=    50.00 Ry     beta=0.60
     Davidson diagonalization with overlap
     ethr =  5.03E-11,  avg # of iterations =  3.9

     total cpu time spent up to now is     1435.3 secs

     total energy              =    -351.20501456 Ry
     Harris-Foulkes estimate   =    -351.20501456 Ry
     estimated scf accuracy    <          1.3E-09 Ry

     iteration # 34     ecut=    50.00 Ry     beta=0.60
     Davidson diagonalization with overlap
     ethr =  3.51E-12,  avg # of iterations =  3.6

     total cpu time spent up to now is     1458.6 secs

     total energy              =    -351.20501456 Ry
     Harris-Foulkes estimate   =    -351.20501456 Ry
     estimated scf accuracy    <          7.7E-10 Ry

     iteration # 35     ecut=    50.00 Ry     beta=0.60
     Davidson diagonalization with overlap
     ethr =  2.09E-12,  avg # of iterations =  2.0

     total cpu time spent up to now is     1478.4 secs

     End of self-consistent calculation

     Number of k-points >= 100: set verbosity='high' to print the bands.

     the Fermi energy is    12.8939 ev

!    total energy              =    -351.20501456 Ry
     Harris-Foulkes estimate   =    -351.20501456 Ry
     estimated scf accuracy    <          3.5E-11 Ry

     The total energy is the sum of the following terms:

     one-electron contribution =    -113.89874172 Ry
     hartree contribution      =      68.34444600 Ry
     xc contribution           =     -47.21276425 Ry
     ewald contribution        =    -258.43763889 Ry
     smearing contrib. (-TS)   =      -0.00031570 Ry

     convergence has been achieved in  35 iterations

     Forces acting on atoms (Ry/au):

     atom    1 type  2   force =     0.00448449    0.00448449   -0.00448449
     atom    2 type  2   force =    -0.00448449   -0.00448449    0.00448449
     atom    3 type  1   force =     0.00000000    0.00000000   -0.00000000

     Total force =     0.010985     Total SCF correction =     0.000002


     entering subroutine stress ...

          total   stress  (Ry/bohr**3)                   (kbar)     P= -126.53
  -0.00086012  -0.00001518   0.00001518       -126.53     -2.23      2.23
  -0.00001518  -0.00086012   0.00001518         -2.23   -126.53      2.23
   0.00001518   0.00001518  -0.00086012          2.23      2.23   -126.53


     number of scf cycles    =   2
     number of bfgs steps    =   1

     enthalpy old            =    -351.1598383440 Ry
     enthalpy new            =    -351.2050145621 Ry

     CASE: enthalpy_new < enthalpy_old

     new trust radius        =       0.1995078310 bohr
     new conv_thr            =            1.0E-10 Ry

     new unit-cell volume =    342.01760 a.u.^3 (    50.68178 Ang^3 )

CELL_PARAMETERS (alat=  1.88972599)
  -0.000000000  -3.237482402  -3.237482402
  -3.237482402   3.237482402   0.000000000
   1.611817484   1.611817484  -1.611817484

ATOMIC_POSITIONS (angstrom)
Ti      -1.618503984   1.618978419  -4.856460821
Ti      -0.011776747  -0.011776747  -3.225705656
Nb      -1.621049107   1.616433295  -1.616433295


     NEW-OLD atomic charge density approx. for the potential
     extrapolated charge   31.18672, renormalised to   37.00000

     total cpu time spent up to now is     1491.5 secs

     per-process dynamical memory:   155.8 Mb

     Self-consistent Calculation

     iteration #  1     ecut=    50.00 Ry     beta=0.60
     Davidson diagonalization with overlap
     c_bands:  1 eigenvalues not converged
     c_bands:  1 eigenvalues not converged
     c_bands:  1 eigenvalues not converged
     c_bands:  1 eigenvalues not converged
     c_bands:  1 eigenvalues not converged
     c_bands:  1 eigenvalues not converged
     c_bands:  1 eigenvalues not converged
     c_bands:  1 eigenvalues not converged
     c_bands:  1 eigenvalues not converged
     c_bands:  1 eigenvalues not converged
     c_bands:  1 eigenvalues not converged
     c_bands:  1 eigenvalues not converged
     c_bands:  1 eigenvalues not converged
     c_bands:  1 eigenvalues not converged
     c_bands:  1 eigenvalues not converged
     c_bands:  1 eigenvalues not converged
     c_bands:  1 eigenvalues not converged
     c_bands:  1 eigenvalues not converged
     c_bands:  1 eigenvalues not converged
     c_bands:  1 eigenvalues not converged
     c_bands:  1 eigenvalues not converged
     c_bands:  1 eigenvalues not converged
     c_bands:  1 eigenvalues not converged
     c_bands:  1 eigenvalues not converged
     c_bands:  1 eigenvalues not converged
     c_bands:  1 eigenvalues not converged
     c_bands:  1 eigenvalues not converged
     c_bands:  1 eigenvalues not converged
     c_bands:  1 eigenvalues not converged
     c_bands:  1 eigenvalues not converged
     ethr =  1.00E-06,  avg # of iterations = 15.0

     total cpu time spent up to now is     1572.6 secs

     total energy              =    -330.09365282 Ry
     Harris-Foulkes estimate   =    -364.34347178 Ry
     estimated scf accuracy    <      22.91383286 Ry

     iteration #  2     ecut=    50.00 Ry     beta=0.60
     Davidson diagonalization with overlap
     ethr =  1.00E-02,  avg # of iterations =  6.2

     total cpu time spent up to now is     1617.6 secs

     total energy              =    -349.81560022 Ry
     Harris-Foulkes estimate   =    -375.66177603 Ry
     estimated scf accuracy    <      72.32744344 Ry

     iteration #  3     ecut=    50.00 Ry     beta=0.60
     Davidson diagonalization with overlap
     ethr =  1.00E-02,  avg # of iterations =  3.7

     total cpu time spent up to now is     1650.9 secs

     total energy              =    -352.12641506 Ry
     Harris-Foulkes estimate   =    -355.09211098 Ry
     estimated scf accuracy    <      12.13392775 Ry

     iteration #  4     ecut=    50.00 Ry     beta=0.60
     Davidson diagonalization with overlap
     ethr =  1.00E-02,  avg # of iterations =  1.3

     total cpu time spent up to now is     1669.7 secs

     total energy              =    -351.15123952 Ry
     Harris-Foulkes estimate   =    -352.36921253 Ry
     estimated scf accuracy    <       5.70971319 Ry

     iteration #  5     ecut=    50.00 Ry     beta=0.60
     Davidson diagonalization with overlap
     ethr =  1.00E-02,  avg # of iterations =  2.4

     total cpu time spent up to now is     1690.8 secs

     total energy              =    -351.78735034 Ry
     Harris-Foulkes estimate   =    -351.50459496 Ry
     estimated scf accuracy    <       1.14099487 Ry

     iteration #  6     ecut=    50.00 Ry     beta=0.60
     Davidson diagonalization with overlap
     ethr =  3.08E-03,  avg # of iterations =  2.0

     total cpu time spent up to now is     1710.5 secs

     total energy              =    -351.60058292 Ry
     Harris-Foulkes estimate   =    -351.91203525 Ry
     estimated scf accuracy    <       3.12243414 Ry

     iteration #  7     ecut=    50.00 Ry     beta=0.60
     Davidson diagonalization with overlap
     ethr =  3.08E-03,  avg # of iterations =  1.0

     total cpu time spent up to now is     1729.1 secs

     total energy              =    -351.40256572 Ry
     Harris-Foulkes estimate   =    -351.62128908 Ry
     estimated scf accuracy    <       2.16119940 Ry

     iteration #  8     ecut=    50.00 Ry     beta=0.60
     Davidson diagonalization with overlap
     ethr =  3.08E-03,  avg # of iterations =  1.2

     total cpu time spent up to now is     1747.7 secs

     total energy              =    -351.34277137 Ry
     Harris-Foulkes estimate   =    -351.42204855 Ry
     estimated scf accuracy    <       1.29817727 Ry

     iteration #  9     ecut=    50.00 Ry     beta=0.60
     Davidson diagonalization with overlap
     ethr =  3.08E-03,  avg # of iterations =  1.0

     total cpu time spent up to now is     1766.2 secs

     total energy              =    -351.19998796 Ry
     Harris-Foulkes estimate   =    -351.35289391 Ry
     estimated scf accuracy    <       0.92411746 Ry

     iteration # 10     ecut=    50.00 Ry     beta=0.60
     Davidson diagonalization with overlap
     ethr =  2.50E-03,  avg # of iterations =  1.6

     total cpu time spent up to now is     1785.3 secs

     total energy              =    -351.10071352 Ry
     Harris-Foulkes estimate   =    -351.23271928 Ry
     estimated scf accuracy    <       0.24606931 Ry

     iteration # 11     ecut=    50.00 Ry     beta=0.60
     Davidson diagonalization with overlap
     ethr =  6.65E-04,  avg # of iterations =  4.8

     total cpu time spent up to now is     1819.1 secs

     total energy              =    -351.29494931 Ry
     Harris-Foulkes estimate   =    -351.32007331 Ry
     estimated scf accuracy    <       1.02267972 Ry

     iteration # 12     ecut=    50.00 Ry     beta=0.60
     Davidson diagonalization with overlap
     ethr =  6.65E-04,  avg # of iterations =  1.0

     total cpu time spent up to now is     1837.6 secs

     total energy              =    -351.35594112 Ry
     Harris-Foulkes estimate   =    -351.29743046 Ry
     estimated scf accuracy    <       0.78447351 Ry

     iteration # 13     ecut=    50.00 Ry     beta=0.60
     Davidson diagonalization with overlap
     ethr =  6.65E-04,  avg # of iterations =  1.0

     total cpu time spent up to now is     1856.3 secs

     total energy              =    -351.43133212 Ry
     Harris-Foulkes estimate   =    -351.36320871 Ry
     estimated scf accuracy    <       1.31076326 Ry

     iteration # 14     ecut=    50.00 Ry     beta=0.60
     Davidson diagonalization with overlap
     ethr =  6.65E-04,  avg # of iterations =  1.9

     total cpu time spent up to now is     1875.9 secs

     total energy              =    -351.35306875 Ry
     Harris-Foulkes estimate   =    -351.44241104 Ry
     estimated scf accuracy    <       2.13906021 Ry

     iteration # 15     ecut=    50.00 Ry     beta=0.60
     Davidson diagonalization with overlap
     ethr =  6.65E-04,  avg # of iterations =  1.0

     total cpu time spent up to now is     1894.4 secs

     total energy              =    -351.26000424 Ry
     Harris-Foulkes estimate   =    -351.35973419 Ry
     estimated scf accuracy    <       1.54682561 Ry

     iteration # 16     ecut=    50.00 Ry     beta=0.60
     Davidson diagonalization with overlap
     ethr =  6.65E-04,  avg # of iterations =  2.3

     total cpu time spent up to now is     1914.6 secs

     total energy              =    -351.18875131 Ry
     Harris-Foulkes estimate   =    -351.27582685 Ry
     estimated scf accuracy    <       0.73834958 Ry

     iteration # 17     ecut=    50.00 Ry     beta=0.60
     Davidson diagonalization with overlap
     ethr =  6.65E-04,  avg # of iterations =  3.0

     total cpu time spent up to now is     1937.2 secs

     total energy              =    -351.21744999 Ry
     Harris-Foulkes estimate   =    -351.22684975 Ry
     estimated scf accuracy    <       0.06425523 Ry

     iteration # 18     ecut=    50.00 Ry     beta=0.60
     Davidson diagonalization with overlap
     ethr =  1.74E-04,  avg # of iterations =  3.3

     total cpu time spent up to now is     1959.1 secs

     total energy              =    -351.22374942 Ry
     Harris-Foulkes estimate   =    -351.22490015 Ry
     estimated scf accuracy    <       0.00360480 Ry

     iteration # 19     ecut=    50.00 Ry     beta=0.60
     Davidson diagonalization with overlap
     ethr =  9.74E-06,  avg # of iterations =  5.8

     total cpu time spent up to now is     1993.9 secs

     total energy              =    -351.22625134 Ry
     Harris-Foulkes estimate   =    -351.22691960 Ry
     estimated scf accuracy    <       0.01016431 Ry

     iteration # 20     ecut=    50.00 Ry     beta=0.60
     Davidson diagonalization with overlap
     ethr =  9.74E-06,  avg # of iterations =  1.0

     total cpu time spent up to now is     2012.4 secs

     total energy              =    -351.22638492 Ry
     Harris-Foulkes estimate   =    -351.22633262 Ry
     estimated scf accuracy    <       0.00561586 Ry

     iteration # 21     ecut=    50.00 Ry     beta=0.60
     Davidson diagonalization with overlap
     ethr =  9.74E-06,  avg # of iterations =  1.0

     total cpu time spent up to now is     2031.0 secs

     total energy              =    -351.22585936 Ry
     Harris-Foulkes estimate   =    -351.22640678 Ry
     estimated scf accuracy    <       0.00594147 Ry

     iteration # 22     ecut=    50.00 Ry     beta=0.60
     Davidson diagonalization with overlap
     ethr =  9.74E-06,  avg # of iterations =  1.0

     total cpu time spent up to now is     2049.5 secs

     total energy              =    -351.22592989 Ry
     Harris-Foulkes estimate   =    -351.22596864 Ry
     estimated scf accuracy    <       0.00220372 Ry

     iteration # 23     ecut=    50.00 Ry     beta=0.60
     Davidson diagonalization with overlap
     ethr =  5.96E-06,  avg # of iterations =  1.1

     total cpu time spent up to now is     2068.5 secs

     total energy              =    -351.22581620 Ry
     Harris-Foulkes estimate   =    -351.22596717 Ry
     estimated scf accuracy    <       0.00182045 Ry

     iteration # 24     ecut=    50.00 Ry     beta=0.60
     Davidson diagonalization with overlap
     ethr =  4.92E-06,  avg # of iterations =  2.5

     total cpu time spent up to now is     2088.9 secs

     total energy              =    -351.22591379 Ry
     Harris-Foulkes estimate   =    -351.22592094 Ry
     estimated scf accuracy    <       0.00033151 Ry

     iteration # 25     ecut=    50.00 Ry     beta=0.60
     Davidson diagonalization with overlap
     ethr =  8.96E-07,  avg # of iterations =  4.3

     total cpu time spent up to now is     2114.7 secs

     total energy              =    -351.22599419 Ry
     Harris-Foulkes estimate   =    -351.22598815 Ry
     estimated scf accuracy    <       0.00002754 Ry

     iteration # 26     ecut=    50.00 Ry     beta=0.60
     Davidson diagonalization with overlap
     ethr =  7.44E-08,  avg # of iterations =  2.4

     total cpu time spent up to now is     2135.3 secs

     total energy              =    -351.22598795 Ry
     Harris-Foulkes estimate   =    -351.22599721 Ry
     estimated scf accuracy    <       0.00009526 Ry

     iteration # 27     ecut=    50.00 Ry     beta=0.60
     Davidson diagonalization with overlap
     ethr =  7.44E-08,  avg # of iterations =  2.2

     total cpu time spent up to now is     2156.0 secs

     total energy              =    -351.22598362 Ry
     Harris-Foulkes estimate   =    -351.22599044 Ry
     estimated scf accuracy    <       0.00005260 Ry

     iteration # 28     ecut=    50.00 Ry     beta=0.60
     Davidson diagonalization with overlap
     ethr =  7.44E-08,  avg # of iterations =  1.6

     total cpu time spent up to now is     2175.3 secs

     total energy              =    -351.22598561 Ry
     Harris-Foulkes estimate   =    -351.22598538 Ry
     estimated scf accuracy    <       0.00001276 Ry

     iteration # 29     ecut=    50.00 Ry     beta=0.60
     Davidson diagonalization with overlap
     ethr =  3.45E-08,  avg # of iterations =  1.1

     total cpu time spent up to now is     2194.0 secs

     total energy              =    -351.22598556 Ry
     Harris-Foulkes estimate   =    -351.22598592 Ry
     estimated scf accuracy    <       0.00001492 Ry

     iteration # 30     ecut=    50.00 Ry     beta=0.60
     Davidson diagonalization with overlap
     ethr =  3.45E-08,  avg # of iterations =  1.0

     total cpu time spent up to now is     2212.6 secs

     total energy              =    -351.22598566 Ry
     Harris-Foulkes estimate   =    -351.22598568 Ry
     estimated scf accuracy    <       0.00001089 Ry

     iteration # 31     ecut=    50.00 Ry     beta=0.60
     Davidson diagonalization with overlap
     ethr =  2.94E-08,  avg # of iterations =  1.0

     total cpu time spent up to now is     2231.2 secs

     total energy              =    -351.22598450 Ry
     Harris-Foulkes estimate   =    -351.22598572 Ry
     estimated scf accuracy    <       0.00001046 Ry

     iteration # 32     ecut=    50.00 Ry     beta=0.60
     Davidson diagonalization with overlap
     ethr =  2.83E-08,  avg # of iterations =  1.4

     total cpu time spent up to now is     2250.2 secs

     total energy              =    -351.22598487 Ry
     Harris-Foulkes estimate   =    -351.22598488 Ry
     estimated scf accuracy    <       0.00000217 Ry

     iteration # 33     ecut=    50.00 Ry     beta=0.60
     Davidson diagonalization with overlap
     ethr =  5.87E-09,  avg # of iterations =  3.8

     total cpu time spent up to now is     2274.2 secs

     total energy              =    -351.22598507 Ry
     Harris-Foulkes estimate   =    -351.22598515 Ry
     estimated scf accuracy    <       0.00000038 Ry

     iteration # 34     ecut=    50.00 Ry     beta=0.60
     Davidson diagonalization with overlap
     ethr =  1.02E-09,  avg # of iterations =  3.2

     total cpu time spent up to now is     2296.4 secs

     total energy              =    -351.22598513 Ry
     Harris-Foulkes estimate   =    -351.22598513 Ry
     estimated scf accuracy    <          6.6E-10 Ry

     iteration # 35     ecut=    50.00 Ry     beta=0.60
     Davidson diagonalization with overlap
     c_bands:  1 eigenvalues not converged
     ethr =  1.77E-12,  avg # of iterations =  5.7

     total cpu time spent up to now is     2336.8 secs

     total energy              =    -351.22598514 Ry
     Harris-Foulkes estimate   =    -351.22598514 Ry
     estimated scf accuracy    <       0.00000004 Ry

     iteration # 36     ecut=    50.00 Ry     beta=0.60
     Davidson diagonalization with overlap
     ethr =  1.77E-12,  avg # of iterations =  4.1

     total cpu time spent up to now is     2364.4 secs

     total energy              =    -351.22598514 Ry
     Harris-Foulkes estimate   =    -351.22598514 Ry
     estimated scf accuracy    <       0.00000001 Ry

     iteration # 37     ecut=    50.00 Ry     beta=0.60
     Davidson diagonalization with overlap
     ethr =  1.77E-12,  avg # of iterations =  1.0

     total cpu time spent up to now is     2383.0 secs

     total energy              =    -351.22598514 Ry
     Harris-Foulkes estimate   =    -351.22598514 Ry
     estimated scf accuracy    <       0.00000001 Ry

     iteration # 38     ecut=    50.00 Ry     beta=0.60
     Davidson diagonalization with overlap
     ethr =  1.77E-12,  avg # of iterations =  4.3

     total cpu time spent up to now is     2411.0 secs

     End of self-consistent calculation

     Number of k-points >= 100: set verbosity='high' to print the bands.

     the Fermi energy is    15.4692 ev

!    total energy              =    -351.22598514 Ry
     Harris-Foulkes estimate   =    -351.22598514 Ry
     estimated scf accuracy    <          6.6E-11 Ry

     The total energy is the sum of the following terms:

     one-electron contribution =     -93.95775759 Ry
     hartree contribution      =      62.35617793 Ry
     xc contribution           =     -47.60789627 Ry
     ewald contribution        =    -272.01631015 Ry
     smearing contrib. (-TS)   =      -0.00019906 Ry

     convergence has been achieved in  38 iterations

     Forces acting on atoms (Ry/au):

     atom    1 type  2   force =     0.00430824    0.00430824   -0.00430824
     atom    2 type  2   force =    -0.00430824   -0.00430824    0.00430824
     atom    3 type  1   force =     0.00000000    0.00000000   -0.00000000

     Total force =     0.010553     Total SCF correction =     0.000001


     entering subroutine stress ...

          total   stress  (Ry/bohr**3)                   (kbar)     P=   39.26
   0.00026691  -0.00000192   0.00000192         39.26     -0.28      0.28
  -0.00000192   0.00026691   0.00000192         -0.28     39.26      0.28
   0.00000192   0.00000192   0.00026691          0.28      0.28     39.26


     number of scf cycles    =   3
     number of bfgs steps    =   2

     enthalpy old            =    -351.2050145621 Ry
     enthalpy new            =    -351.2259851392 Ry

     CASE: enthalpy_new < enthalpy_old

     new trust radius        =       0.0418056706 bohr
     new conv_thr            =            1.0E-10 Ry

     new unit-cell volume =    353.74525 a.u.^3 (    52.41964 Ang^3 )

CELL_PARAMETERS (alat=  1.88972599)
  -0.000000000  -3.273727582  -3.273727582
  -3.273727582   3.273727582   0.000000000
   1.630376023   1.630376023  -1.630376023

ATOMIC_POSITIONS (angstrom)
Ti      -1.635218048   1.638509533  -4.912237115
Ti      -0.012458689  -0.012458689  -3.261268893
Nb      -1.639026380   1.634701202  -1.634701202


     NEW-OLD atomic charge density approx. for the potential
     extrapolated charge   38.16025, renormalised to   37.00000

     total cpu time spent up to now is     2424.3 secs

     per-process dynamical memory:   155.8 Mb

     Self-consistent Calculation

     iteration #  1     ecut=    50.00 Ry     beta=0.60
     Davidson diagonalization with overlap
     ethr =  1.00E-06,  avg # of iterations = 12.0

     total cpu time spent up to now is     2491.8 secs

     total energy              =    -350.98719555 Ry
     Harris-Foulkes estimate   =    -349.05007974 Ry
     estimated scf accuracy    <       0.20443576 Ry

     iteration #  2     ecut=    50.00 Ry     beta=0.60
     Davidson diagonalization with overlap
     ethr =  5.53E-04,  avg # of iterations =  5.1

     total cpu time spent up to now is     2532.6 secs

     total energy              =    -350.93686728 Ry
     Harris-Foulkes estimate   =    -351.66357525 Ry
     estimated scf accuracy    <       4.21774498 Ry

     iteration #  3     ecut=    50.00 Ry     beta=0.60
     Davidson diagonalization with overlap
     ethr =  5.53E-04,  avg # of iterations =  4.8

     total cpu time spent up to now is     2564.9 secs

     total energy              =    -351.22088537 Ry
     Harris-Foulkes estimate   =    -351.26879982 Ry
     estimated scf accuracy    <       0.14542593 Ry

     iteration #  4     ecut=    50.00 Ry     beta=0.60
     Davidson diagonalization with overlap
     ethr =  3.93E-04,  avg # of iterations =  2.0

     total cpu time spent up to now is     2585.3 secs

     total energy              =    -351.22955563 Ry
     Harris-Foulkes estimate   =    -351.23769807 Ry
     estimated scf accuracy    <       0.05003013 Ry

     iteration #  5     ecut=    50.00 Ry     beta=0.60
     Davidson diagonalization with overlap
     ethr =  1.35E-04,  avg # of iterations =  2.1

     total cpu time spent up to now is     2605.5 secs

     total energy              =    -351.22924056 Ry
     Harris-Foulkes estimate   =    -351.23170875 Ry
     estimated scf accuracy    <       0.02340660 Ry

     iteration #  6     ecut=    50.00 Ry     beta=0.60
     Davidson diagonalization with overlap
     ethr =  6.33E-05,  avg # of iterations =  1.2

     total cpu time spent up to now is     2624.3 secs

     total energy              =    -351.22785494 Ry
     Harris-Foulkes estimate   =    -351.22980704 Ry
     estimated scf accuracy    <       0.01505233 Ry

     iteration #  7     ecut=    50.00 Ry     beta=0.60
     Davidson diagonalization with overlap
     ethr =  4.07E-05,  avg # of iterations =  1.5

     total cpu time spent up to now is     2643.4 secs

     total energy              =    -351.22804406 Ry
     Harris-Foulkes estimate   =    -351.22828481 Ry
     estimated scf accuracy    <       0.00678252 Ry

     iteration #  8     ecut=    50.00 Ry     beta=0.60
     Davidson diagonalization with overlap
     ethr =  1.83E-05,  avg # of iterations =  1.3

     total cpu time spent up to now is     2662.2 secs

     total energy              =    -351.22708297 Ry
     Harris-Foulkes estimate   =    -351.22814604 Ry
     estimated scf accuracy    <       0.00579588 Ry

     iteration #  9     ecut=    50.00 Ry     beta=0.60
     Davidson diagonalization with overlap
     ethr =  1.57E-05,  avg # of iterations =  1.8

     total cpu time spent up to now is     2681.7 secs

     total energy              =    -351.22712579 Ry
     Harris-Foulkes estimate   =    -351.22734547 Ry
     estimated scf accuracy    <       0.00149780 Ry

     iteration # 10     ecut=    50.00 Ry     beta=0.60
     Davidson diagonalization with overlap
     ethr =  4.05E-06,  avg # of iterations =  4.2

     total cpu time spent up to now is     2706.8 secs

     total energy              =    -351.22728685 Ry
     Harris-Foulkes estimate   =    -351.22734441 Ry
     estimated scf accuracy    <       0.00012793 Ry

     iteration # 11     ecut=    50.00 Ry     beta=0.60
     Davidson diagonalization with overlap
     ethr =  3.46E-07,  avg # of iterations =  4.8

     total cpu time spent up to now is     2735.2 secs

     total energy              =    -351.22734627 Ry
     Harris-Foulkes estimate   =    -351.22734099 Ry
     estimated scf accuracy    <       0.00009559 Ry

     iteration # 12     ecut=    50.00 Ry     beta=0.60
     Davidson diagonalization with overlap
     ethr =  2.58E-07,  avg # of iterations =  1.0

     total cpu time spent up to now is     2753.7 secs

     total energy              =    -351.22734425 Ry
     Harris-Foulkes estimate   =    -351.22734768 Ry
     estimated scf accuracy    <       0.00013362 Ry

     iteration # 13     ecut=    50.00 Ry     beta=0.60
     Davidson diagonalization with overlap
     ethr =  2.58E-07,  avg # of iterations =  1.0

     total cpu time spent up to now is     2772.1 secs

     total energy              =    -351.22734042 Ry
     Harris-Foulkes estimate   =    -351.22734459 Ry
     estimated scf accuracy    <       0.00011211 Ry

     iteration # 14     ecut=    50.00 Ry     beta=0.60
     Davidson diagonalization with overlap
     ethr =  2.58E-07,  avg # of iterations =  1.0

     total cpu time spent up to now is     2790.6 secs

     total energy              =    -351.22733649 Ry
     Harris-Foulkes estimate   =    -351.22734070 Ry
     estimated scf accuracy    <       0.00008515 Ry

     iteration # 15     ecut=    50.00 Ry     beta=0.60
     Davidson diagonalization with overlap
     ethr =  2.30E-07,  avg # of iterations =  1.0

     total cpu time spent up to now is     2809.1 secs

     total energy              =    -351.22733031 Ry
     Harris-Foulkes estimate   =    -351.22733692 Ry
     estimated scf accuracy    <       0.00005421 Ry

     iteration # 16     ecut=    50.00 Ry     beta=0.60
     Davidson diagonalization with overlap
     ethr =  1.47E-07,  avg # of iterations =  1.1

     total cpu time spent up to now is     2827.7 secs

     total energy              =    -351.22733372 Ry
     Harris-Foulkes estimate   =    -351.22733212 Ry
     estimated scf accuracy    <       0.00001209 Ry

     iteration # 17     ecut=    50.00 Ry     beta=0.60
     Davidson diagonalization with overlap
     ethr =  3.27E-08,  avg # of iterations =  1.9

     total cpu time spent up to now is     2847.5 secs

     total energy              =    -351.22733201 Ry
     Harris-Foulkes estimate   =    -351.22733435 Ry
     estimated scf accuracy    <       0.00002241 Ry

     iteration # 18     ecut=    50.00 Ry     beta=0.60
     Davidson diagonalization with overlap
     ethr =  3.27E-08,  avg # of iterations =  1.1

     total cpu time spent up to now is     2866.1 secs

     total energy              =    -351.22732870 Ry
     Harris-Foulkes estimate   =    -351.22733237 Ry
     estimated scf accuracy    <       0.00000954 Ry

     iteration # 19     ecut=    50.00 Ry     beta=0.60
     Davidson diagonalization with overlap
     ethr =  2.58E-08,  avg # of iterations =  4.0

     total cpu time spent up to now is     2892.4 secs

     total energy              =    -351.22733040 Ry
     Harris-Foulkes estimate   =    -351.22733291 Ry
     estimated scf accuracy    <       0.00001296 Ry

     iteration # 20     ecut=    50.00 Ry     beta=0.60
     Davidson diagonalization with overlap
     ethr =  2.58E-08,  avg # of iterations =  1.1

     total cpu time spent up to now is     2911.1 secs

     total energy              =    -351.22733121 Ry
     Harris-Foulkes estimate   =    -351.22733130 Ry
     estimated scf accuracy    <       0.00000071 Ry

     iteration # 21     ecut=    50.00 Ry     beta=0.60
     Davidson diagonalization with overlap
     ethr =  1.93E-09,  avg # of iterations =  4.5

     total cpu time spent up to now is     2939.1 secs

     total energy              =    -351.22733163 Ry
     Harris-Foulkes estimate   =    -351.22733181 Ry
     estimated scf accuracy    <       0.00000097 Ry

     iteration # 22     ecut=    50.00 Ry     beta=0.60
     Davidson diagonalization with overlap
     ethr =  1.93E-09,  avg # of iterations =  1.0

     total cpu time spent up to now is     2957.5 secs

     total energy              =    -351.22733168 Ry
     Harris-Foulkes estimate   =    -351.22733169 Ry
     estimated scf accuracy    <       0.00000007 Ry

     iteration # 23     ecut=    50.00 Ry     beta=0.60
     Davidson diagonalization with overlap
     ethr =  1.85E-10,  avg # of iterations =  4.1

     total cpu time spent up to now is     2984.5 secs

     total energy              =    -351.22733172 Ry
     Harris-Foulkes estimate   =    -351.22733172 Ry
     estimated scf accuracy    <       0.00000006 Ry

     iteration # 24     ecut=    50.00 Ry     beta=0.60
     Davidson diagonalization with overlap
     ethr =  1.69E-10,  avg # of iterations =  1.0

     total cpu time spent up to now is     3003.0 secs

     total energy              =    -351.22733172 Ry
     Harris-Foulkes estimate   =    -351.22733172 Ry
     estimated scf accuracy    <       0.00000002 Ry

     iteration # 25     ecut=    50.00 Ry     beta=0.60
     Davidson diagonalization with overlap
     ethr =  4.95E-11,  avg # of iterations =  1.2

     total cpu time spent up to now is     3021.7 secs

     total energy              =    -351.22733172 Ry
     Harris-Foulkes estimate   =    -351.22733172 Ry
     estimated scf accuracy    <          9.6E-09 Ry

     iteration # 26     ecut=    50.00 Ry     beta=0.60
     Davidson diagonalization with overlap
     ethr =  2.59E-11,  avg # of iterations =  2.9

     total cpu time spent up to now is     3042.7 secs

     total energy              =    -351.22733172 Ry
     Harris-Foulkes estimate   =    -351.22733172 Ry
     estimated scf accuracy    <          2.1E-09 Ry

     iteration # 27     ecut=    50.00 Ry     beta=0.60
     Davidson diagonalization with overlap
     ethr =  5.68E-12,  avg # of iterations =  4.0

     total cpu time spent up to now is     3068.2 secs

     total energy              =    -351.22733172 Ry
     Harris-Foulkes estimate   =    -351.22733172 Ry
     estimated scf accuracy    <          8.9E-10 Ry

     iteration # 28     ecut=    50.00 Ry     beta=0.60
     Davidson diagonalization with overlap
     ethr =  2.39E-12,  avg # of iterations =  1.3

     total cpu time spent up to now is     3087.1 secs

     total energy              =    -351.22733172 Ry
     Harris-Foulkes estimate   =    -351.22733172 Ry
     estimated scf accuracy    <          3.0E-10 Ry

     iteration # 29     ecut=    50.00 Ry     beta=0.60
     Davidson diagonalization with overlap
     ethr =  8.16E-13,  avg # of iterations =  1.9

     total cpu time spent up to now is     3106.5 secs

     End of self-consistent calculation

     Number of k-points >= 100: set verbosity='high' to print the bands.

     the Fermi energy is    14.8715 ev

!    total energy              =    -351.22733172 Ry
     Harris-Foulkes estimate   =    -351.22733172 Ry
     estimated scf accuracy    <          8.4E-11 Ry

     The total energy is the sum of the following terms:

     one-electron contribution =     -98.39145138 Ry
     hartree contribution      =      63.65512369 Ry
     xc contribution           =     -47.51497462 Ry
     ewald contribution        =    -268.97585831 Ry
     smearing contrib. (-TS)   =      -0.00017111 Ry

     convergence has been achieved in  29 iterations

     Forces acting on atoms (Ry/au):

     atom    1 type  2   force =     0.00426839    0.00426839   -0.00426839
     atom    2 type  2   force =    -0.00426839   -0.00426839    0.00426839
     atom    3 type  1   force =     0.00000000    0.00000000   -0.00000000

     Total force =     0.010455     Total SCF correction =     0.000003


     entering subroutine stress ...

          total   stress  (Ry/bohr**3)                   (kbar)     P=   -5.45
  -0.00003705  -0.00000533   0.00000533         -5.45     -0.78      0.78
  -0.00000533  -0.00003705   0.00000533         -0.78     -5.45      0.78
   0.00000533   0.00000533  -0.00003705          0.78      0.78     -5.45


     number of scf cycles    =   4
     number of bfgs steps    =   3

     enthalpy old            =    -351.2259851392 Ry
     enthalpy new            =    -351.2273317182 Ry

     CASE: enthalpy_new < enthalpy_old

     new trust radius        =       0.0062549603 bohr
     new conv_thr            =            1.0E-10 Ry

     new unit-cell volume =    352.41720 a.u.^3 (    52.22284 Ang^3 )

CELL_PARAMETERS (alat=  1.88972599)
  -0.000000000  -3.270050212  -3.270050212
  -3.270050212   3.270050212   0.000000000
   1.627910362   1.627910362  -1.627910362

ATOMIC_POSITIONS (angstrom)
Ti      -1.632110511   1.637939701  -4.907989914
Ti      -0.014772502  -0.014772502  -3.255277711
Nb      -1.637396688   1.632653525  -1.632653525


     NEW-OLD atomic charge density approx. for the potential
     extrapolated charge   36.86812, renormalised to   37.00000

     total cpu time spent up to now is     3119.8 secs

     per-process dynamical memory:   155.8 Mb

     Self-consistent Calculation

     iteration #  1     ecut=    50.00 Ry     beta=0.60
     Davidson diagonalization with overlap
     ethr =  1.00E-06,  avg # of iterations =  4.7

     total cpu time spent up to now is     3160.4 secs

     total energy              =    -351.22335782 Ry
     Harris-Foulkes estimate   =    -351.47906018 Ry
     estimated scf accuracy    <       0.00370245 Ry

     iteration #  2     ecut=    50.00 Ry     beta=0.60
     Davidson diagonalization with overlap
     ethr =  1.00E-05,  avg # of iterations =  5.1

     total cpu time spent up to now is     3200.8 secs

     total energy              =    -351.22245413 Ry
     Harris-Foulkes estimate   =    -351.23512965 Ry
     estimated scf accuracy    <       0.07311260 Ry

     iteration #  3     ecut=    50.00 Ry     beta=0.60
     Davidson diagonalization with overlap
     ethr =  1.00E-05,  avg # of iterations =  4.8

     total cpu time spent up to now is     3232.8 secs

     total energy              =    -351.22744465 Ry
     Harris-Foulkes estimate   =    -351.22823417 Ry
     estimated scf accuracy    <       0.00229310 Ry

     iteration #  4     ecut=    50.00 Ry     beta=0.60
     Davidson diagonalization with overlap
     ethr =  6.20E-06,  avg # of iterations =  2.0

     total cpu time spent up to now is     3253.0 secs

     total energy              =    -351.22747656 Ry
     Harris-Foulkes estimate   =    -351.22765877 Ry
     estimated scf accuracy    <       0.00105271 Ry

     iteration #  5     ecut=    50.00 Ry     beta=0.60
     Davidson diagonalization with overlap
     ethr =  2.85E-06,  avg # of iterations =  2.1

     total cpu time spent up to now is     3273.3 secs

     total energy              =    -351.22745351 Ry
     Harris-Foulkes estimate   =    -351.22752716 Ry
     estimated scf accuracy    <       0.00048388 Ry

     iteration #  6     ecut=    50.00 Ry     beta=0.60
     Davidson diagonalization with overlap
     ethr =  1.31E-06,  avg # of iterations =  1.7

     total cpu time spent up to now is     3292.5 secs

     total energy              =    -351.22743316 Ry
     Harris-Foulkes estimate   =    -351.22747208 Ry
     estimated scf accuracy    <       0.00021341 Ry

     iteration #  7     ecut=    50.00 Ry     beta=0.60
     Davidson diagonalization with overlap
     ethr =  5.77E-07,  avg # of iterations =  2.4

     total cpu time spent up to now is     3314.2 secs

     total energy              =    -351.22745021 Ry
     Harris-Foulkes estimate   =    -351.22745074 Ry
     estimated scf accuracy    <       0.00003746 Ry

     iteration #  8     ecut=    50.00 Ry     beta=0.60
     Davidson diagonalization with overlap
     ethr =  1.01E-07,  avg # of iterations =  2.7

     total cpu time spent up to now is     3335.9 secs

     total energy              =    -351.22744962 Ry
     Harris-Foulkes estimate   =    -351.22745258 Ry
     estimated scf accuracy    <       0.00002214 Ry

     iteration #  9     ecut=    50.00 Ry     beta=0.60
     Davidson diagonalization with overlap
     ethr =  5.98E-08,  avg # of iterations =  2.9

     total cpu time spent up to now is     3358.0 secs

     total energy              =    -351.22745103 Ry
     Harris-Foulkes estimate   =    -351.22745109 Ry
     estimated scf accuracy    <       0.00000497 Ry

     iteration # 10     ecut=    50.00 Ry     beta=0.60
     Davidson diagonalization with overlap
     ethr =  1.34E-08,  avg # of iterations =  3.8

     total cpu time spent up to now is     3384.2 secs

     total energy              =    -351.22745118 Ry
     Harris-Foulkes estimate   =    -351.22745194 Ry
     estimated scf accuracy    <       0.00000163 Ry

     iteration # 11     ecut=    50.00 Ry     beta=0.60
     Davidson diagonalization with overlap
     ethr =  4.41E-09,  avg # of iterations =  3.3

     total cpu time spent up to now is     3408.9 secs

     total energy              =    -351.22745151 Ry
     Harris-Foulkes estimate   =    -351.22745153 Ry
     estimated scf accuracy    <       0.00000015 Ry

     iteration # 12     ecut=    50.00 Ry     beta=0.60
     Davidson diagonalization with overlap
     ethr =  3.99E-10,  avg # of iterations =  3.1

     total cpu time spent up to now is     3433.0 secs

     total energy              =    -351.22745152 Ry
     Harris-Foulkes estimate   =    -351.22745153 Ry
     estimated scf accuracy    <       0.00000011 Ry

     iteration # 13     ecut=    50.00 Ry     beta=0.60
     Davidson diagonalization with overlap
     ethr =  2.94E-10,  avg # of iterations =  1.0

     total cpu time spent up to now is     3451.6 secs

     total energy              =    -351.22745152 Ry
     Harris-Foulkes estimate   =    -351.22745153 Ry
     estimated scf accuracy    <       0.00000004 Ry

     iteration # 14     ecut=    50.00 Ry     beta=0.60
     Davidson diagonalization with overlap
     ethr =  1.08E-10,  avg # of iterations =  1.6

     total cpu time spent up to now is     3470.7 secs

     total energy              =    -351.22745152 Ry
     Harris-Foulkes estimate   =    -351.22745152 Ry
     estimated scf accuracy    <       0.00000002 Ry

     iteration # 15     ecut=    50.00 Ry     beta=0.60
     Davidson diagonalization with overlap
     ethr =  4.39E-11,  avg # of iterations =  3.5

     total cpu time spent up to now is     3494.6 secs

     total energy              =    -351.22745152 Ry
     Harris-Foulkes estimate   =    -351.22745152 Ry
     estimated scf accuracy    <          2.4E-09 Ry

     iteration # 16     ecut=    50.00 Ry     beta=0.60
     Davidson diagonalization with overlap
     ethr =  6.44E-12,  avg # of iterations =  3.4

     total cpu time spent up to now is     3518.7 secs

     total energy              =    -351.22745152 Ry
     Harris-Foulkes estimate   =    -351.22745152 Ry
     estimated scf accuracy    <          9.9E-10 Ry

     iteration # 17     ecut=    50.00 Ry     beta=0.60
     Davidson diagonalization with overlap
     ethr =  2.68E-12,  avg # of iterations =  1.2

     total cpu time spent up to now is     3537.4 secs

     total energy              =    -351.22745152 Ry
     Harris-Foulkes estimate   =    -351.22745152 Ry
     estimated scf accuracy    <          2.2E-10 Ry

     iteration # 18     ecut=    50.00 Ry     beta=0.60
     Davidson diagonalization with overlap
     ethr =  6.06E-13,  avg # of iterations =  3.1

     total cpu time spent up to now is     3559.1 secs

     End of self-consistent calculation

     Number of k-points >= 100: set verbosity='high' to print the bands.

     the Fermi energy is    14.9364 ev

!    total energy              =    -351.22745152 Ry
     Harris-Foulkes estimate   =    -351.22745152 Ry
     estimated scf accuracy    <          5.7E-11 Ry

     The total energy is the sum of the following terms:

     one-electron contribution =     -97.90204961 Ry
     hartree contribution      =      63.51165979 Ry
     xc contribution           =     -47.52534781 Ry
     ewald contribution        =    -269.31154355 Ry
     smearing contrib. (-TS)   =      -0.00017034 Ry

     convergence has been achieved in  18 iterations

     Forces acting on atoms (Ry/au):

     atom    1 type  2   force =     0.00413651    0.00413651   -0.00413651
     atom    2 type  2   force =    -0.00413651   -0.00413651    0.00413651
     atom    3 type  1   force =     0.00000000    0.00000000   -0.00000000

     Total force =     0.010132     Total SCF correction =     0.000003


     entering subroutine stress ...

          total   stress  (Ry/bohr**3)                   (kbar)     P=   -0.64
  -0.00000436  -0.00000401   0.00000401         -0.64     -0.59      0.59
  -0.00000401  -0.00000436   0.00000401         -0.59     -0.64      0.59
   0.00000401   0.00000401  -0.00000436          0.59      0.59     -0.64


     number of scf cycles    =   5
     number of bfgs steps    =   4

     enthalpy old            =    -351.2273317182 Ry
     enthalpy new            =    -351.2274515232 Ry

     CASE: enthalpy_new < enthalpy_old

     new trust radius        =       0.0093682511 bohr
     new conv_thr            =            1.0E-10 Ry

     new unit-cell volume =    351.66474 a.u.^3 (    52.11134 Ang^3 )

CELL_PARAMETERS (alat=  1.88972599)
  -0.000000000  -3.268248559  -3.268248559
  -3.268248559   3.268248559   0.000000000
   1.626226031   1.626226031  -1.626226031

ATOMIC_POSITIONS (angstrom)
Ti      -1.629144333   1.639104225  -4.907352784
Ti      -0.018143693  -0.018143693  -3.250104865
Nb      -1.636757029   1.631491530  -1.631491530


     NEW-OLD atomic charge density approx. for the potential
     extrapolated charge   36.92512, renormalised to   37.00000

     total cpu time spent up to now is     3572.3 secs

     per-process dynamical memory:   155.8 Mb

     Self-consistent Calculation

     iteration #  1     ecut=    50.00 Ry     beta=0.60
     Davidson diagonalization with overlap
     ethr =  1.00E-06,  avg # of iterations =  4.2

     total cpu time spent up to now is     3613.1 secs

     total energy              =    -351.22639260 Ry
     Harris-Foulkes estimate   =    -351.36993893 Ry
     estimated scf accuracy    <       0.00104722 Ry

     iteration #  2     ecut=    50.00 Ry     beta=0.60
     Davidson diagonalization with overlap
     ethr =  2.83E-06,  avg # of iterations =  5.1

     total cpu time spent up to now is     3653.5 secs

     total energy              =    -351.22627417 Ry
     Harris-Foulkes estimate   =    -351.22957184 Ry
     estimated scf accuracy    <       0.01852450 Ry

     iteration #  3     ecut=    50.00 Ry     beta=0.60
     Davidson diagonalization with overlap
     ethr =  2.83E-06,  avg # of iterations =  4.7

     total cpu time spent up to now is     3685.5 secs

     total energy              =    -351.22756250 Ry
     Harris-Foulkes estimate   =    -351.22782292 Ry
     estimated scf accuracy    <       0.00074790 Ry

     iteration #  4     ecut=    50.00 Ry     beta=0.60
     Davidson diagonalization with overlap
     ethr =  2.02E-06,  avg # of iterations =  2.0

     total cpu time spent up to now is     3705.9 secs

     total energy              =    -351.22756739 Ry
     Harris-Foulkes estimate   =    -351.22764193 Ry
     estimated scf accuracy    <       0.00029454 Ry

     iteration #  5     ecut=    50.00 Ry     beta=0.60
     Davidson diagonalization with overlap
     ethr =  7.96E-07,  avg # of iterations =  2.2

     total cpu time spent up to now is     3726.4 secs

     total energy              =    -351.22757482 Ry
     Harris-Foulkes estimate   =    -351.22758930 Ry
     estimated scf accuracy    <       0.00008135 Ry

     iteration #  6     ecut=    50.00 Ry     beta=0.60
     Davidson diagonalization with overlap
     ethr =  2.20E-07,  avg # of iterations =  2.4

     total cpu time spent up to now is     3747.3 secs

     total energy              =    -351.22757651 Ry
     Harris-Foulkes estimate   =    -351.22758127 Ry
     estimated scf accuracy    <       0.00002514 Ry

     iteration #  7     ecut=    50.00 Ry     beta=0.60
     Davidson diagonalization with overlap
     ethr =  6.79E-08,  avg # of iterations =  3.0

     total cpu time spent up to now is     3769.5 secs

     total energy              =    -351.22757953 Ry
     Harris-Foulkes estimate   =    -351.22757984 Ry
     estimated scf accuracy    <       0.00000262 Ry

     iteration #  8     ecut=    50.00 Ry     beta=0.60
     Davidson diagonalization with overlap
     ethr =  7.09E-09,  avg # of iterations =  3.8

     total cpu time spent up to now is     3793.5 secs

     total energy              =    -351.22757995 Ry
     Harris-Foulkes estimate   =    -351.22757993 Ry
     estimated scf accuracy    <       0.00000084 Ry

     iteration #  9     ecut=    50.00 Ry     beta=0.60
     Davidson diagonalization with overlap
     ethr =  2.26E-09,  avg # of iterations =  1.4

     total cpu time spent up to now is     3812.6 secs

     total energy              =    -351.22757978 Ry
     Harris-Foulkes estimate   =    -351.22757998 Ry
     estimated scf accuracy    <       0.00000090 Ry

     iteration # 10     ecut=    50.00 Ry     beta=0.60
     Davidson diagonalization with overlap
     ethr =  2.26E-09,  avg # of iterations =  3.0

     total cpu time spent up to now is     3835.7 secs

     total energy              =    -351.22757985 Ry
     Harris-Foulkes estimate   =    -351.22757990 Ry
     estimated scf accuracy    <       0.00000047 Ry

     iteration # 11     ecut=    50.00 Ry     beta=0.60
     Davidson diagonalization with overlap
     ethr =  1.27E-09,  avg # of iterations =  1.0

     total cpu time spent up to now is     3854.2 secs

     total energy              =    -351.22757984 Ry
     Harris-Foulkes estimate   =    -351.22757986 Ry
     estimated scf accuracy    <       0.00000019 Ry

     iteration # 12     ecut=    50.00 Ry     beta=0.60
     Davidson diagonalization with overlap
     ethr =  5.15E-10,  avg # of iterations =  3.0

     total cpu time spent up to now is     3876.4 secs

     total energy              =    -351.22757985 Ry
     Harris-Foulkes estimate   =    -351.22757986 Ry
     estimated scf accuracy    <       0.00000001 Ry

     iteration # 13     ecut=    50.00 Ry     beta=0.60
     Davidson diagonalization with overlap
     ethr =  3.31E-11,  avg # of iterations =  4.4

     total cpu time spent up to now is     3904.0 secs

     total energy              =    -351.22757985 Ry
     Harris-Foulkes estimate   =    -351.22757985 Ry
     estimated scf accuracy    <          2.9E-09 Ry

     iteration # 14     ecut=    50.00 Ry     beta=0.60
     Davidson diagonalization with overlap
     ethr =  7.78E-12,  avg # of iterations =  1.5

     total cpu time spent up to now is     3923.1 secs

     total energy              =    -351.22757985 Ry
     Harris-Foulkes estimate   =    -351.22757985 Ry
     estimated scf accuracy    <          2.8E-09 Ry

     iteration # 15     ecut=    50.00 Ry     beta=0.60
     Davidson diagonalization with overlap
     ethr =  7.64E-12,  avg # of iterations =  1.0

     total cpu time spent up to now is     3941.6 secs

     total energy              =    -351.22757985 Ry
     Harris-Foulkes estimate   =    -351.22757985 Ry
     estimated scf accuracy    <          9.1E-10 Ry

     iteration # 16     ecut=    50.00 Ry     beta=0.60
     Davidson diagonalization with overlap
     ethr =  2.47E-12,  avg # of iterations =  2.9

     total cpu time spent up to now is     3964.0 secs

     End of self-consistent calculation

     Number of k-points >= 100: set verbosity='high' to print the bands.

     the Fermi energy is    14.9725 ev

!    total energy              =    -351.22757985 Ry
     Harris-Foulkes estimate   =    -351.22757985 Ry
     estimated scf accuracy    <          1.5E-11 Ry

     The total energy is the sum of the following terms:

     one-electron contribution =     -97.62739426 Ry
     hartree contribution      =      63.43199820 Ry
     xc contribution           =     -47.53142056 Ry
     ewald contribution        =    -269.50059348 Ry
     smearing contrib. (-TS)   =      -0.00016975 Ry

     convergence has been achieved in  16 iterations

     Forces acting on atoms (Ry/au):

     atom    1 type  2   force =     0.00393302    0.00393302   -0.00393302
     atom    2 type  2   force =    -0.00393302   -0.00393302    0.00393302
     atom    3 type  1   force =    -0.00000000    0.00000000   -0.00000000

     Total force =     0.009634     Total SCF correction =     0.000000


     entering subroutine stress ...

          total   stress  (Ry/bohr**3)                   (kbar)     P=    2.10
   0.00001430  -0.00000243   0.00000243          2.10     -0.36      0.36
  -0.00000243   0.00001430   0.00000243         -0.36      2.10      0.36
   0.00000243   0.00000243   0.00001430          0.36      0.36      2.10


     number of scf cycles    =   6
     number of bfgs steps    =   5

     enthalpy old            =    -351.2274515232 Ry
     enthalpy new            =    -351.2275798535 Ry

     CASE: enthalpy_new < enthalpy_old

     new trust radius        =       0.0140378372 bohr
     new conv_thr            =            1.0E-10 Ry

     new unit-cell volume =    351.09158 a.u.^3 (    52.02640 Ang^3 )

CELL_PARAMETERS (alat=  1.88972599)
  -0.000000000  -3.267148803  -3.267148803
  -3.267148803   3.267148803   0.000000000
   1.624668736   1.624668736  -1.624668736

ATOMIC_POSITIONS (angstrom)
Ti      -1.625329463   1.641819339  -4.908968142
Ti      -0.023087714  -0.023087714  -3.244061088
Nb      -1.636542957   1.630605846  -1.630605846


     NEW-OLD atomic charge density approx. for the potential
     extrapolated charge   36.94287, renormalised to   37.00000

     total cpu time spent up to now is     3977.3 secs

     per-process dynamical memory:   155.8 Mb

     Self-consistent Calculation

     iteration #  1     ecut=    50.00 Ry     beta=0.60
     Davidson diagonalization with overlap
     ethr =  1.00E-06,  avg # of iterations =  4.5

     total cpu time spent up to now is     4020.2 secs

     total energy              =    -351.22712249 Ry
     Harris-Foulkes estimate   =    -351.33613801 Ry
     estimated scf accuracy    <       0.00054827 Ry

     iteration #  2     ecut=    50.00 Ry     beta=0.60
     Davidson diagonalization with overlap
     ethr =  1.48E-06,  avg # of iterations =  5.0

     total cpu time spent up to now is     4060.5 secs

     total energy              =    -351.22716412 Ry
     Harris-Foulkes estimate   =    -351.22865136 Ry
     estimated scf accuracy    <       0.00788407 Ry

     iteration #  3     ecut=    50.00 Ry     beta=0.60
     Davidson diagonalization with overlap
     ethr =  1.48E-06,  avg # of iterations =  4.6

     total cpu time spent up to now is     4090.8 secs

     total energy              =    -351.22772617 Ry
     Harris-Foulkes estimate   =    -351.22789154 Ry
     estimated scf accuracy    <       0.00048799 Ry

     iteration #  4     ecut=    50.00 Ry     beta=0.60
     Davidson diagonalization with overlap
     ethr =  1.32E-06,  avg # of iterations =  2.1

     total cpu time spent up to now is     4111.8 secs

     total energy              =    -351.22773880 Ry
     Harris-Foulkes estimate   =    -351.22778450 Ry
     estimated scf accuracy    <       0.00015014 Ry

     iteration #  5     ecut=    50.00 Ry     beta=0.60
     Davidson diagonalization with overlap
     ethr =  4.06E-07,  avg # of iterations =  2.9

     total cpu time spent up to now is     4136.2 secs

     total energy              =    -351.22774787 Ry
     Harris-Foulkes estimate   =    -351.22775454 Ry
     estimated scf accuracy    <       0.00003231 Ry

     iteration #  6     ecut=    50.00 Ry     beta=0.60
     Davidson diagonalization with overlap
     ethr =  8.73E-08,  avg # of iterations =  2.4

     total cpu time spent up to now is     4156.8 secs

     total energy              =    -351.22775080 Ry
     Harris-Foulkes estimate   =    -351.22775125 Ry
[...]
     (criteria: energy <  1.0E-10, force <  1.0E-05, cell <  1.0E-03)

     End of BFGS Geometry Optimization

     Final enthalpy =    -351.2286653936 Ry
Begin final coordinates
     new unit-cell volume =    352.56538 a.u.^3 (    52.24480 Ang^3 )

CELL_PARAMETERS (alat=  1.88972599)
  -0.000000000  -3.265073261  -3.265073261
  -3.265073261   3.265073261  -0.000000000
   1.633563562   1.633563562  -1.633563562

ATOMIC_POSITIONS (angstrom)
Ti      -1.573364381   1.691708880  -4.956782141
Ti      -0.057460697  -0.057460697  -3.207612564
Nb      -1.632194320   1.632878941  -1.632878941
End final coordinates



     A final scf calculation at the relaxed structure.
     The G-vectors are recalculated for the final unit cell
     Results may differ from those at the preceding step.

   Info: using nr1, nr2, nr3 values from input

   Info: using nr1, nr2, nr3 values from input

     Parallelization info
     --------------------
     sticks:   dense  smooth     PW     G-vecs:    dense   smooth      PW
     Min         655     260     78                16643     4182     708
     Max         657     262     79                16644     4183     709
     Sum        2623    1045    313                66573    16729    2833



     bravais-lattice index     =            0
     lattice parameter (alat)  =       1.8897  a.u.
     unit-cell volume          =     352.5654 (a.u.)^3
     number of atoms/cell      =            3
     number of atomic types    =            2
     number of electrons       =        37.00
     number of Kohn-Sham states=           23
     kinetic-energy cutoff     =      50.0000  Ry
     charge density cutoff     =     500.0000  Ry
     convergence threshold     =      1.0E-12
     mixing beta               =       0.6000
     number of iterations used =            8  plain     mixing
     Exchange-correlation      = SLA  PW   PBE  PBE ( 1  4  3  4 0 0)

     celldm(1)=   1.889726  celldm(2)=   0.000000  celldm(3)=   0.000000
     celldm(4)=   0.000000  celldm(5)=   0.000000  celldm(6)=   0.000000

     crystal axes: (cart. coord. in units of alat)
               a(1) = (  -0.000000  -3.265073  -3.265073 )  
               a(2) = (  -3.265073   3.265073  -0.000000 )  
               a(3) = (   1.633564   1.633564  -1.633564 )  

     reciprocal axes: (cart. coord. in units 2 pi/alat)
               b(1) = ( -0.102091 -0.102091 -0.204181 )  
               b(2) = ( -0.204181  0.102091 -0.102091 )  
               b(3) = (  0.204053  0.204053 -0.204053 )  


     PseudoPot. # 1 for Nb read from file:
     ./Nb.pbe-nsp-van.UPF
     MD5 check sum: 0a22fc7fb0ba19a08ca5db297a5d2854
     Pseudo is Ultrasoft + core correction, Zval = 13.0
     Generated by new atomic code, or converted to UPF format
     Using radial grid of  887 points,  6 beta functions with: 
                l(1) =   0
                l(2) =   0
                l(3) =   1
                l(4) =   1
                l(5) =   2
                l(6) =   2
     Q(r) pseudized with  6 coefficients,  rinner =    1.000   1.000   1.000
                                                       1.000   1.000

     PseudoPot. # 2 for Ti read from file:
     ./Ti.pbe-sp-van_ak.UPF
     MD5 check sum: f98fea3e8887528921fefa5636a534ca
     Pseudo is Ultrasoft, Zval = 12.0
     Generated by new atomic code, or converted to UPF format
     Using radial grid of  851 points,  6 beta functions with: 
                l(1) =   0
                l(2) =   0
                l(3) =   1
                l(4) =   1
                l(5) =   2
                l(6) =   2
     Q(r) pseudized with  8 coefficients,  rinner =    1.000   1.000   1.000
                                                       1.000   1.000

     atomic species   valence    mass     pseudopotential
        Nb            13.00    92.90638     Nb( 1.00)
        Ti            12.00    47.86700     Ti( 1.00)

     12 Sym. Ops., with inversion, found ( 6 have fractional translation)



   Cartesian axes

     site n.     atom                  positions (alat units)
         1           Ti  tau(   1) = (  -1.5733645   1.6917090  -4.9567825  )
         2           Ti  tau(   2) = (  -0.0574607  -0.0574607  -3.2076128  )
         3           Nb  tau(   3) = (  -1.6321944   1.6328791  -1.6328791  )

     number of k points=   298  Marzari-Vanderbilt smearing, width (Ry)=  0.0200

     Number of k-points >= 100: set verbosity='high' to print them.

     Dense  grid:    66573 G-vectors     FFT dimensions: (  72,  72,  45)

     Smooth grid:    16729 G-vectors     FFT dimensions: (  45,  45,  25)

     Estimated max dynamical RAM per process >      68.48Mb

     Estimated total allocated dynamical RAM >     273.92Mb

     Initial potential from superposition of free atoms

     starting charge   34.99718, renormalised to   37.00000
     Starting wfc are   33 randomized atomic wfcs

     total cpu time spent up to now is     8982.6 secs

     per-process dynamical memory:   152.6 Mb

     Self-consistent Calculation

     iteration #  1     ecut=    50.00 Ry     beta=0.60
     Davidson diagonalization with overlap
     c_bands:  1 eigenvalues not converged
     c_bands:  1 eigenvalues not converged
     c_bands:  1 eigenvalues not converged
     c_bands:  1 eigenvalues not converged
     c_bands:  1 eigenvalues not converged
     c_bands:  1 eigenvalues not converged
     c_bands:  1 eigenvalues not converged
     c_bands:  1 eigenvalues not converged
     c_bands:  1 eigenvalues not converged
     c_bands:  1 eigenvalues not converged
     c_bands:  1 eigenvalues not converged
     c_bands:  1 eigenvalues not converged
     c_bands:  1 eigenvalues not converged
     c_bands:  1 eigenvalues not converged
     c_bands:  1 eigenvalues not converged
     c_bands:  1 eigenvalues not converged
     c_bands:  1 eigenvalues not converged
     c_bands:  1 eigenvalues not converged
     c_bands:  1 eigenvalues not converged
     c_bands:  1 eigenvalues not converged
     c_bands:  1 eigenvalues not converged
     c_bands:  1 eigenvalues not converged
     c_bands:  1 eigenvalues not converged
     c_bands:  1 eigenvalues not converged
     c_bands:  1 eigenvalues not converged
     c_bands:  1 eigenvalues not converged
     c_bands:  1 eigenvalues not converged
     c_bands:  1 eigenvalues not converged
     c_bands:  1 eigenvalues not converged
     c_bands:  1 eigenvalues not converged
     c_bands:  1 eigenvalues not converged
     c_bands:  1 eigenvalues not converged
     c_bands:  1 eigenvalues not converged
     c_bands:  1 eigenvalues not converged
     c_bands:  1 eigenvalues not converged
     c_bands:  1 eigenvalues not converged
     c_bands:  1 eigenvalues not converged
     c_bands:  1 eigenvalues not converged
     c_bands:  1 eigenvalues not converged
     c_bands:  1 eigenvalues not converged
     c_bands:  1 eigenvalues not converged
     c_bands:  1 eigenvalues not converged
     c_bands:  1 eigenvalues not converged
     c_bands:  1 eigenvalues not converged
     c_bands:  1 eigenvalues not converged
     c_bands:  1 eigenvalues not converged
     c_bands:  1 eigenvalues not converged
     c_bands:  1 eigenvalues not converged
     c_bands:  1 eigenvalues not converged
     c_bands:  1 eigenvalues not converged
     c_bands:  1 eigenvalues not converged
     c_bands:  1 eigenvalues not converged
     c_bands:  1 eigenvalues not converged
     c_bands:  1 eigenvalues not converged
     c_bands:  1 eigenvalues not converged
     c_bands:  1 eigenvalues not converged
     c_bands:  1 eigenvalues not converged
     c_bands:  1 eigenvalues not converged
     c_bands:  1 eigenvalues not converged
     c_bands:  1 eigenvalues not converged
     c_bands:  1 eigenvalues not converged
     c_bands:  1 eigenvalues not converged
     c_bands:  1 eigenvalues not converged
     c_bands:  1 eigenvalues not converged
     c_bands:  1 eigenvalues not converged
     c_bands:  1 eigenvalues not converged
     c_bands:  1 eigenvalues not converged
     c_bands:  1 eigenvalues not converged
     c_bands:  1 eigenvalues not converged
     c_bands:  1 eigenvalues not converged
     c_bands:  1 eigenvalues not converged
     c_bands:  1 eigenvalues not converged
     c_bands:  1 eigenvalues not converged
     c_bands:  1 eigenvalues not converged
     c_bands:  1 eigenvalues not converged
     c_bands:  1 eigenvalues not converged
     c_bands:  1 eigenvalues not converged
     c_bands:  1 eigenvalues not converged
     c_bands:  1 eigenvalues not converged
     c_bands:  1 eigenvalues not converged
     c_bands:  1 eigenvalues not converged
     c_bands:  1 eigenvalues not converged
     ethr =  1.00E-06,  avg # of iterations = 15.0

     total cpu time spent up to now is     9050.0 secs

     total energy              =    -349.09206519 Ry
     Harris-Foulkes estimate   =    -352.12588664 Ry
     estimated scf accuracy    <       3.96457393 Ry

     iteration #  2     ecut=    50.00 Ry     beta=0.60
     Davidson diagonalization with overlap
     ethr =  1.00E-02,  avg # of iterations =  4.3

     total cpu time spent up to now is     9081.7 secs

     total energy              =    -348.78559064 Ry
     Harris-Foulkes estimate   =    -355.70128880 Ry
     estimated scf accuracy    <      23.42404414 Ry

     iteration #  3     ecut=    50.00 Ry     beta=0.60
     Davidson diagonalization with overlap
     ethr =  1.00E-02,  avg # of iterations =  4.1

     total cpu time spent up to now is     9109.0 secs

     total energy              =    -351.15427190 Ry
     Harris-Foulkes estimate   =    -351.19954009 Ry
     estimated scf accuracy    <       0.11542288 Ry

     iteration #  4     ecut=    50.00 Ry     beta=0.60
     Davidson diagonalization with overlap
     ethr =  3.12E-04,  avg # of iterations =  6.2

     total cpu time spent up to now is     9145.5 secs

     total energy              =    -351.21773549 Ry
     Harris-Foulkes estimate   =    -351.23541183 Ry
     estimated scf accuracy    <       0.06022546 Ry

     iteration #  5     ecut=    50.00 Ry     beta=0.60
     Davidson diagonalization with overlap
     ethr =  1.63E-04,  avg # of iterations =  4.2

     total cpu time spent up to now is     9169.0 secs

     total energy              =    -351.23946734 Ry
     Harris-Foulkes estimate   =    -351.23629290 Ry
     estimated scf accuracy    <       0.05048762 Ry

     iteration #  6     ecut=    50.00 Ry     beta=0.60
     Davidson diagonalization with overlap
     ethr =  1.36E-04,  avg # of iterations =  1.1

     total cpu time spent up to now is     9185.8 secs

     total energy              =    -351.21846876 Ry
     Harris-Foulkes estimate   =    -351.23993118 Ry
     estimated scf accuracy    <       0.06769245 Ry

     iteration #  7     ecut=    50.00 Ry     beta=0.60
     Davidson diagonalization with overlap
     ethr =  1.36E-04,  avg # of iterations =  3.0

     total cpu time spent up to now is     9206.7 secs

     total energy              =    -351.22787583 Ry
     Harris-Foulkes estimate   =    -351.22822772 Ry
     estimated scf accuracy    <       0.00190096 Ry

     iteration #  8     ecut=    50.00 Ry     beta=0.60
     Davidson diagonalization with overlap
     ethr =  5.14E-06,  avg # of iterations =  5.6

     total cpu time spent up to now is     9235.2 secs

     total energy              =    -351.22818047 Ry
     Harris-Foulkes estimate   =    -351.22848014 Ry
     estimated scf accuracy    <       0.00154351 Ry

     iteration #  9     ecut=    50.00 Ry     beta=0.60
     Davidson diagonalization with overlap
     ethr =  4.17E-06,  avg # of iterations =  2.4

     total cpu time spent up to now is     9253.3 secs

     total energy              =    -351.22830364 Ry
     Harris-Foulkes estimate   =    -351.22835122 Ry
     estimated scf accuracy    <       0.00012321 Ry

     iteration # 10     ecut=    50.00 Ry     beta=0.60
     Davidson diagonalization with overlap
     ethr =  3.33E-07,  avg # of iterations =  5.0

     total cpu time spent up to now is     9280.3 secs

     total energy              =    -351.22832773 Ry
     Harris-Foulkes estimate   =    -351.22838202 Ry
     estimated scf accuracy    <       0.00044189 Ry

     iteration # 11     ecut=    50.00 Ry     beta=0.60
     Davidson diagonalization with overlap
     ethr =  3.33E-07,  avg # of iterations =  2.6

     total cpu time spent up to now is     9299.0 secs

     total energy              =    -351.22832503 Ry
     Harris-Foulkes estimate   =    -351.22834207 Ry
     estimated scf accuracy    <       0.00009377 Ry

     iteration # 12     ecut=    50.00 Ry     beta=0.60
     Davidson diagonalization with overlap
     ethr =  2.53E-07,  avg # of iterations =  3.5

     total cpu time spent up to now is     9320.1 secs

     total energy              =    -351.22833857 Ry
     Harris-Foulkes estimate   =    -351.22833936 Ry
     estimated scf accuracy    <       0.00000508 Ry

     iteration # 13     ecut=    50.00 Ry     beta=0.60
     Davidson diagonalization with overlap
     ethr =  1.37E-08,  avg # of iterations =  3.7

     total cpu time spent up to now is     9341.1 secs

     total energy              =    -351.22833932 Ry
     Harris-Foulkes estimate   =    -351.22833970 Ry
     estimated scf accuracy    <       0.00000206 Ry

     iteration # 14     ecut=    50.00 Ry     beta=0.60
     Davidson diagonalization with overlap
     ethr =  5.57E-09,  avg # of iterations =  3.2

     total cpu time spent up to now is     9361.2 secs

     total energy              =    -351.22833960 Ry
     Harris-Foulkes estimate   =    -351.22833961 Ry
     estimated scf accuracy    <       0.00000004 Ry

     iteration # 15     ecut=    50.00 Ry     beta=0.60
     Davidson diagonalization with overlap
     ethr =  1.13E-10,  avg # of iterations =  4.5

     total cpu time spent up to now is     9385.6 secs

     total energy              =    -351.22833962 Ry
     Harris-Foulkes estimate   =    -351.22833963 Ry
     estimated scf accuracy    <       0.00000005 Ry

     iteration # 16     ecut=    50.00 Ry     beta=0.60
     Davidson diagonalization with overlap
     ethr =  1.13E-10,  avg # of iterations =  1.1

     total cpu time spent up to now is     9402.2 secs

     total energy              =    -351.22833962 Ry
     Harris-Foulkes estimate   =    -351.22833962 Ry
     estimated scf accuracy    <       0.00000001 Ry

     iteration # 17     ecut=    50.00 Ry     beta=0.60
     Davidson diagonalization with overlap
     ethr =  3.69E-11,  avg # of iterations =  3.5

     total cpu time spent up to now is     9425.5 secs

     total energy              =    -351.22833962 Ry
     Harris-Foulkes estimate   =    -351.22833962 Ry
     estimated scf accuracy    <          3.6E-09 Ry

     iteration # 18     ecut=    50.00 Ry     beta=0.60
     Davidson diagonalization with overlap
     ethr =  9.63E-12,  avg # of iterations =  1.2

     total cpu time spent up to now is     9443.3 secs

     total energy              =    -351.22833962 Ry
     Harris-Foulkes estimate   =    -351.22833962 Ry
     estimated scf accuracy    <          6.8E-10 Ry

     iteration # 19     ecut=    50.00 Ry     beta=0.60
     Davidson diagonalization with overlap
     ethr =  1.83E-12,  avg # of iterations =  3.7

     total cpu time spent up to now is     9465.6 secs

     total energy              =    -351.22833962 Ry
     Harris-Foulkes estimate   =    -351.22833962 Ry
     estimated scf accuracy    <          7.2E-11 Ry

     iteration # 20     ecut=    50.00 Ry     beta=0.60
     Davidson diagonalization with overlap
     ethr =  1.94E-13,  avg # of iterations =  2.5

     total cpu time spent up to now is     9484.0 secs

     total energy              =    -351.22833962 Ry
     Harris-Foulkes estimate   =    -351.22833962 Ry
     estimated scf accuracy    <          5.3E-11 Ry

     iteration # 21     ecut=    50.00 Ry     beta=0.60
     Davidson diagonalization with overlap
     ethr =  1.43E-13,  avg # of iterations =  2.5

     total cpu time spent up to now is     9502.5 secs

     End of self-consistent calculation

     Number of k-points >= 100: set verbosity='high' to print the bands.

     the Fermi energy is    14.9086 ev

!    total energy              =    -351.22833962 Ry
     Harris-Foulkes estimate   =    -351.22833962 Ry
     estimated scf accuracy    <          3.4E-13 Ry

     The total energy is the sum of the following terms:

     one-electron contribution =     -98.14048763 Ry
     hartree contribution      =      63.62084704 Ry
     xc contribution           =     -47.53049810 Ry
     ewald contribution        =    -269.17818916 Ry
     smearing contrib. (-TS)   =      -0.00001178 Ry

     convergence has been achieved in  21 iterations

     Forces acting on atoms (Ry/au):

     atom    1 type  2   force =     0.00001088    0.00001088   -0.00001088
     atom    2 type  2   force =    -0.00001088   -0.00001088    0.00001088
     atom    3 type  1   force =     0.00000000    0.00000000   -0.00000000

     Total force =     0.000027     Total SCF correction =     0.000000


     entering subroutine stress ...

          total   stress  (Ry/bohr**3)                   (kbar)     P=   -0.45
  -0.00000305  -0.00000008   0.00000008         -0.45     -0.01      0.01
  -0.00000008  -0.00000305   0.00000008         -0.01     -0.45      0.01
   0.00000008   0.00000008  -0.00000305          0.01      0.01     -0.45


     init_run     :     20.69s CPU     21.42s WALL (       2 calls)
     electrons    :   8898.56s CPU   9215.56s WALL (      21 calls)
     update_pot   :     40.40s CPU     40.78s WALL (      19 calls)
     forces       :     73.63s CPU     75.88s WALL (      21 calls)
     stress       :    146.25s CPU    150.10s WALL (      21 calls)

     Called by init_run:
     wfcinit      :     17.87s CPU     18.41s WALL (       2 calls)
     potinit      :      0.82s CPU      0.84s WALL (       2 calls)

     Called by electrons:
     c_bands      :   7501.18s CPU   7738.24s WALL (     372 calls)
     sum_band     :   1303.82s CPU   1367.09s WALL (     372 calls)
     v_of_rho     :     24.59s CPU     25.69s WALL (     388 calls)
     newd         :     67.96s CPU     83.91s WALL (     388 calls)
     mix_rho      :      3.41s CPU      3.54s WALL (     372 calls)

     Called by c_bands:
     init_us_2    :    133.77s CPU    137.40s WALL (  234824 calls)
     cegterg      :   7239.38s CPU   7470.51s WALL (  110856 calls)

     Called by sum_band:
     sum_band:bec :      6.24s CPU      6.50s WALL (  110856 calls)
     addusdens    :     72.58s CPU     92.90s WALL (     372 calls)

     Called by *egterg:
     h_psi        :   4823.92s CPU   5008.61s WALL (  446668 calls)
     s_psi        :    380.62s CPU    387.74s WALL (  446668 calls)
     g_psi        :     19.87s CPU     20.23s WALL (  335216 calls)
     cdiaghg      :    542.42s CPU    552.35s WALL (  438920 calls)

     Called by h_psi:
     h_psi:pot    :   4777.78s CPU   4961.07s WALL (  446668 calls)
     h_psi:calbec :    539.71s CPU    561.27s WALL (  446668 calls)
     vloc_psi     :   3854.69s CPU   4005.08s WALL (  446668 calls)
     add_vuspsi   :    380.98s CPU    392.67s WALL (  446668 calls)

     General routines
     calbec       :    766.72s CPU    796.05s WALL (  588814 calls)
     fft          :     15.25s CPU     16.12s WALL (    6688 calls)
     ffts         :      0.30s CPU      0.32s WALL (     760 calls)
     fftw         :   3553.12s CPU   3689.54s WALL (15678240 calls)
     interpolate  :      2.64s CPU      2.77s WALL (     760 calls)

     Parallel routines
     fft_scatter  :    677.14s CPU    708.91s WALL (15685688 calls)

     PWSCF        :     2h33m CPU        2h38m WALL


   This run was terminated on:  18:14:12  26Apr2018            

=------------------------------------------------------------------------------=
   JOB DONE.
=------------------------------------------------------------------------------=
