
     Program PWSCF v.6.3MaX starts on  2Feb2020 at 17:54: 4 

     This program is part of the open-source Quantum ESPRESSO suite
     for quantum simulation of materials; please cite
         "P. Giannozzi et al., J. Phys.:Condens. Matter 21 395502 (2009);
         "P. Giannozzi et al., J. Phys.:Condens. Matter 29 465901 (2017);
          URL http://www.quantum-espresso.org", 
     in publications or presentations arising from this work. More details at
     http://www.quantum-espresso.org/quote

     Parallel version (MPI), running on     4 processors

     MPI processes distributed on     1 nodes
     R & G space division:  proc/nbgrp/npool/nimage =       4
     Waiting for input...
     Reading input from standard input

     Current dimensions of program PWSCF are:
     Max number of different atomic species (ntypx) = 10
     Max number of k-points (npk) =  40000
     Max angular momentum in pseudopotentials (lmaxx) =  3
     Message from routine iosys:
     minimal I/O required, wf_collect reset to FALSE

     Subspace diagonalization in iterative solution of the eigenvalue problem:
     a serial algorithm will be used

 
     Parallelization info
     --------------------
     sticks:   dense  smooth     PW     G-vecs:    dense   smooth      PW
     Min        1281     514    159                34640     8741    1516
     Max        1282     515    160                34641     8742    1517
     Sum        5125    2057    637               138561    34965    6067
 


     bravais-lattice index     =            0
     lattice parameter (alat)  =       1.8897  a.u.
     unit-cell volume          =     733.3418 (a.u.)^3
     number of atoms/cell      =            5
     number of atomic types    =            2
     number of electrons       =        61.00
     number of Kohn-Sham states=           37
     kinetic-energy cutoff     =      50.0000  Ry
     charge density cutoff     =     500.0000  Ry
     convergence threshold     =      1.0E-10
     mixing beta               =       0.6000
     number of iterations used =            8  plain     mixing
     Exchange-correlation      = SLA PW PBE PBE ( 1  4  3  4 0 0)
     nstep                     =           50


     celldm(1)=   1.889726  celldm(2)=   0.000000  celldm(3)=   0.000000
     celldm(4)=   0.000000  celldm(5)=   0.000000  celldm(6)=   0.000000

     crystal axes: (cart. coord. in units of alat)
               a(1) = (   5.274095   1.758031   5.274095 )  
               a(2) = (   1.758031   5.274095   5.274095 )  
               a(3) = (  -1.758031  -1.758031   1.758031 )  

     reciprocal axes: (cart. coord. in units 2 pi/alat)
               b(1) = (  0.170645 -0.113764  0.056882 )  
               b(2) = ( -0.113764  0.170645  0.056882 )  
               b(3) = ( -0.170645 -0.170645  0.227527 )  


     PseudoPot. # 1 for Nb read from file:
     ./Nb.pbe-nsp-van.UPF
     MD5 check sum: 0a22fc7fb0ba19a08ca5db297a5d2854
     Pseudo is Ultrasoft + core correction, Zval = 13.0
     Generated by new atomic code, or converted to UPF format
     Using radial grid of  887 points,  6 beta functions with: 
                l(1) =   0
                l(2) =   0
                l(3) =   1
                l(4) =   1
                l(5) =   2
                l(6) =   2
     Q(r) pseudized with  6 coefficients,  rinner =    1.000   1.000   1.000
                                                       1.000   1.000

     PseudoPot. # 2 for Ti read from file:
     ./Ti.pbe-sp-van_ak.UPF
     MD5 check sum: f98fea3e8887528921fefa5636a534ca
     Pseudo is Ultrasoft, Zval = 12.0
     Generated by new atomic code, or converted to UPF format
     Using radial grid of  851 points,  6 beta functions with: 
                l(1) =   0
                l(2) =   0
                l(3) =   1
                l(4) =   1
                l(5) =   2
                l(6) =   2
     Q(r) pseudized with  8 coefficients,  rinner =    1.000   1.000   1.000
                                                       1.000   1.000

     atomic species   valence    mass     pseudopotential
        Nb            13.00    92.90638     Nb( 1.00)
        Ti            12.00    47.86700     Ti( 1.00)

      4 Sym. Ops., with inversion, found



   Cartesian axes

     site n.     atom                  positions (alat units)
         1           Ti  tau(   1) = (   0.0000000   0.0000000   3.5160633  )
         2           Ti  tau(   2) = (   1.7580316   1.7580316   5.2740949  )
         3           Ti  tau(   3) = (   3.5160633   3.5160633   7.0321265  )
         4           Ti  tau(   4) = (   5.2740949   5.2740949   8.7901582  )
         5           Nb  tau(   5) = (   5.2740949   5.2740949  12.3062214  )

     number of k points=   500  Marzari-Vanderbilt smearing, width (Ry)=  0.0200

     Number of k-points >= 100: set verbosity='high' to print them.

     Dense  grid:   138561 G-vectors     FFT dimensions: ( 108, 108,  45)

     Smooth grid:    34965 G-vectors     FFT dimensions: (  72,  72,  25)

     Estimated max dynamical RAM per process >     444.23 MB

     Estimated total dynamical RAM >       1.74 GB

     Initial potential from superposition of free atoms

     starting charge   56.99709, renormalised to   61.00000
     Starting wfcs are   53 randomized atomic wfcs

     total cpu time spent up to now is       28.9 secs

     Self-consistent Calculation

     iteration #  1     ecut=    50.00 Ry     beta= 0.60
     Davidson diagonalization with overlap
     ethr =  1.00E-02,  avg # of iterations =  4.1

     total cpu time spent up to now is      106.1 secs

     total energy              =    -572.69788760 Ry
     Harris-Foulkes estimate   =    -586.98216409 Ry
     estimated scf accuracy    <      17.89548342 Ry

     iteration #  2     ecut=    50.00 Ry     beta= 0.60
     Davidson diagonalization with overlap
     ethr =  1.00E-02,  avg # of iterations =  6.8

     total cpu time spent up to now is      215.4 secs

     total energy              =    -581.95983619 Ry
     Harris-Foulkes estimate   =    -610.69634224 Ry
     estimated scf accuracy    <      90.15458506 Ry

     iteration #  3     ecut=    50.00 Ry     beta= 0.60
     Davidson diagonalization with overlap
     ethr =  1.00E-02,  avg # of iterations =  4.2

     total cpu time spent up to now is      297.2 secs

     total energy              =    -584.70133235 Ry
     Harris-Foulkes estimate   =    -588.92665364 Ry
     estimated scf accuracy    <      50.19626876 Ry

     iteration #  4     ecut=    50.00 Ry     beta= 0.60
     Davidson diagonalization with overlap
     ethr =  1.00E-02,  avg # of iterations =  1.8

     total cpu time spent up to now is      350.1 secs

     total energy              =    -585.55311648 Ry
     Harris-Foulkes estimate   =    -585.86163548 Ry
     estimated scf accuracy    <      18.57075728 Ry

     iteration #  5     ecut=    50.00 Ry     beta= 0.60
     Davidson diagonalization with overlap
     ethr =  1.00E-02,  avg # of iterations =  1.0

     total cpu time spent up to now is      400.5 secs

     total energy              =    -583.70079509 Ry
     Harris-Foulkes estimate   =    -585.60478571 Ry
     estimated scf accuracy    <      17.47665111 Ry

     iteration #  6     ecut=    50.00 Ry     beta= 0.60
     Davidson diagonalization with overlap
     ethr =  1.00E-02,  avg # of iterations =  4.8

     total cpu time spent up to now is      467.1 secs

     total energy              =    -583.57363674 Ry
     Harris-Foulkes estimate   =    -584.30765045 Ry
     estimated scf accuracy    <       2.47719680 Ry

     iteration #  7     ecut=    50.00 Ry     beta= 0.60
     Davidson diagonalization with overlap
     ethr =  4.06E-03,  avg # of iterations =  6.3

     total cpu time spent up to now is      569.2 secs

     total energy              =    -582.73180261 Ry
     Harris-Foulkes estimate   =    -586.45843837 Ry
     estimated scf accuracy    <      51.32537139 Ry

     iteration #  8     ecut=    50.00 Ry     beta= 0.60
     Davidson diagonalization with overlap
     ethr =  4.06E-03,  avg # of iterations =  4.9

     total cpu time spent up to now is      638.0 secs

     total energy              =    -584.32577916 Ry
     Harris-Foulkes estimate   =    -584.38103353 Ry
     estimated scf accuracy    <       0.81901824 Ry

     iteration #  9     ecut=    50.00 Ry     beta= 0.60
     Davidson diagonalization with overlap
     ethr =  1.34E-03,  avg # of iterations =  6.4

     total cpu time spent up to now is      713.7 secs

     total energy              =    -584.40603649 Ry
     Harris-Foulkes estimate   =    -584.40903403 Ry
     estimated scf accuracy    <       0.03592608 Ry

     iteration # 10     ecut=    50.00 Ry     beta= 0.60
     Davidson diagonalization with overlap
     ethr =  5.89E-05,  avg # of iterations =  7.9

     total cpu time spent up to now is      813.5 secs

     total energy              =    -584.41688224 Ry
     Harris-Foulkes estimate   =    -584.42194708 Ry
     estimated scf accuracy    <       0.05629706 Ry

     iteration # 11     ecut=    50.00 Ry     beta= 0.60
     Davidson diagonalization with overlap
     ethr =  5.89E-05,  avg # of iterations =  1.7

     total cpu time spent up to now is      865.1 secs

     total energy              =    -584.41522306 Ry
     Harris-Foulkes estimate   =    -584.42250825 Ry
     estimated scf accuracy    <       0.21283204 Ry

     iteration # 12     ecut=    50.00 Ry     beta= 0.60
     Davidson diagonalization with overlap
     ethr =  5.89E-05,  avg # of iterations =  1.0

     total cpu time spent up to now is      914.9 secs

     total energy              =    -584.40538730 Ry
     Harris-Foulkes estimate   =    -584.41650387 Ry
     estimated scf accuracy    <       0.10190655 Ry

     iteration # 13     ecut=    50.00 Ry     beta= 0.60
     Davidson diagonalization with overlap
     ethr =  5.89E-05,  avg # of iterations =  2.7

     total cpu time spent up to now is      970.1 secs

     total energy              =    -584.41438426 Ry
     Harris-Foulkes estimate   =    -584.41275333 Ry
     estimated scf accuracy    <       0.02559144 Ry

     iteration # 14     ecut=    50.00 Ry     beta= 0.60
     Davidson diagonalization with overlap
     ethr =  4.20E-05,  avg # of iterations =  4.1

     total cpu time spent up to now is     1030.5 secs

     total energy              =    -584.40890674 Ry
     Harris-Foulkes estimate   =    -584.41604926 Ry
     estimated scf accuracy    <       0.08880830 Ry

     iteration # 15     ecut=    50.00 Ry     beta= 0.60
     Davidson diagonalization with overlap
     ethr =  4.20E-05,  avg # of iterations =  1.2

     total cpu time spent up to now is     1080.8 secs

     total energy              =    -584.41131051 Ry
     Harris-Foulkes estimate   =    -584.41191878 Ry
     estimated scf accuracy    <       0.00946676 Ry

     iteration # 16     ecut=    50.00 Ry     beta= 0.60
     Davidson diagonalization with overlap
     ethr =  1.55E-05,  avg # of iterations =  3.5

     total cpu time spent up to now is     1137.8 secs

     total energy              =    -584.40943460 Ry
     Harris-Foulkes estimate   =    -584.41170610 Ry
     estimated scf accuracy    <       0.00565366 Ry

     iteration # 17     ecut=    50.00 Ry     beta= 0.60
     Davidson diagonalization with overlap
     ethr =  9.27E-06,  avg # of iterations =  4.2

     total cpu time spent up to now is     1205.7 secs

     total energy              =    -584.41061236 Ry
     Harris-Foulkes estimate   =    -584.41067149 Ry
     estimated scf accuracy    <       0.00152197 Ry

     iteration # 18     ecut=    50.00 Ry     beta= 0.60
     Davidson diagonalization with overlap
     c_bands:  1 eigenvalues not converged
     c_bands:  1 eigenvalues not converged
     c_bands:  1 eigenvalues not converged
     c_bands:  1 eigenvalues not converged
     c_bands:  1 eigenvalues not converged
     c_bands:  1 eigenvalues not converged
     c_bands:  2 eigenvalues not converged
     c_bands:  1 eigenvalues not converged
     c_bands:  2 eigenvalues not converged
     c_bands:  1 eigenvalues not converged
     c_bands:  2 eigenvalues not converged
     c_bands:  1 eigenvalues not converged
     c_bands:  1 eigenvalues not converged
     c_bands:  1 eigenvalues not converged
     c_bands:  1 eigenvalues not converged
     c_bands:  1 eigenvalues not converged
     c_bands:  1 eigenvalues not converged
     c_bands:  1 eigenvalues not converged
     c_bands:  1 eigenvalues not converged
     c_bands:  1 eigenvalues not converged
     c_bands:  1 eigenvalues not converged
     c_bands:  1 eigenvalues not converged
     c_bands:  1 eigenvalues not converged
     c_bands:  1 eigenvalues not converged
     c_bands:  2 eigenvalues not converged
     c_bands:  1 eigenvalues not converged
     c_bands:  1 eigenvalues not converged
     c_bands:  1 eigenvalues not converged
     c_bands:  1 eigenvalues not converged
     c_bands:  1 eigenvalues not converged
     c_bands:  1 eigenvalues not converged
     c_bands:  1 eigenvalues not converged
     c_bands:  1 eigenvalues not converged
     c_bands:  1 eigenvalues not converged
     c_bands:  1 eigenvalues not converged
     c_bands:  1 eigenvalues not converged
     c_bands:  1 eigenvalues not converged
     c_bands:  1 eigenvalues not converged
     c_bands:  1 eigenvalues not converged
     ethr =  2.50E-06,  avg # of iterations =  7.0

     total cpu time spent up to now is     1269.9 secs

     total energy              =    -584.41059841 Ry
     Harris-Foulkes estimate   =    -584.41066925 Ry
     estimated scf accuracy    <       0.00104143 Ry

     iteration # 19     ecut=    50.00 Ry     beta= 0.60
     Davidson diagonalization with overlap
     c_bands:  1 eigenvalues not converged
     c_bands:  1 eigenvalues not converged
     c_bands:  1 eigenvalues not converged
     c_bands:  1 eigenvalues not converged
     c_bands:  1 eigenvalues not converged
     c_bands:  1 eigenvalues not converged
     ethr =  1.71E-06,  avg # of iterations =  2.3

     total cpu time spent up to now is     1321.2 secs

     total energy              =    -584.41062843 Ry
     Harris-Foulkes estimate   =    -584.41063557 Ry
     estimated scf accuracy    <       0.00008776 Ry

     iteration # 20     ecut=    50.00 Ry     beta= 0.60
     Davidson diagonalization with overlap
     c_bands:  1 eigenvalues not converged
     ethr =  1.44E-07,  avg # of iterations =  5.9

     total cpu time spent up to now is     1398.5 secs

     total energy              =    -584.41065284 Ry
     Harris-Foulkes estimate   =    -584.41065457 Ry
     estimated scf accuracy    <       0.00002055 Ry

     iteration # 21     ecut=    50.00 Ry     beta= 0.60
     Davidson diagonalization with overlap
     ethr =  3.37E-08,  avg # of iterations =  1.3

     total cpu time spent up to now is     1447.8 secs

     total energy              =    -584.41065307 Ry
     Harris-Foulkes estimate   =    -584.41065357 Ry
     estimated scf accuracy    <       0.00000453 Ry

     iteration # 22     ecut=    50.00 Ry     beta= 0.60
     Davidson diagonalization with overlap
     ethr =  7.42E-09,  avg # of iterations =  4.4

     total cpu time spent up to now is     1515.4 secs

     total energy              =    -584.41065373 Ry
     Harris-Foulkes estimate   =    -584.41065402 Ry
     estimated scf accuracy    <       0.00000362 Ry

     iteration # 23     ecut=    50.00 Ry     beta= 0.60
     Davidson diagonalization with overlap
     ethr =  5.94E-09,  avg # of iterations =  1.0

     total cpu time spent up to now is     1563.9 secs

     total energy              =    -584.41065380 Ry
     Harris-Foulkes estimate   =    -584.41065383 Ry
     estimated scf accuracy    <       0.00000060 Ry

     iteration # 24     ecut=    50.00 Ry     beta= 0.60
     Davidson diagonalization with overlap
     ethr =  9.88E-10,  avg # of iterations =  4.1

     total cpu time spent up to now is     1626.2 secs

     total energy              =    -584.41065386 Ry
     Harris-Foulkes estimate   =    -584.41065386 Ry
     estimated scf accuracy    <       0.00000001 Ry

     iteration # 25     ecut=    50.00 Ry     beta= 0.60
     Davidson diagonalization with overlap
     ethr =  1.81E-11,  avg # of iterations =  6.1

     total cpu time spent up to now is     1712.9 secs

     total energy              =    -584.41065387 Ry
     Harris-Foulkes estimate   =    -584.41065387 Ry
     estimated scf accuracy    <          2.7E-10 Ry

     iteration # 26     ecut=    50.00 Ry     beta= 0.60
     Davidson diagonalization with overlap
     ethr =  4.34E-13,  avg # of iterations =  4.6

     total cpu time spent up to now is     1800.2 secs

     total energy              =    -584.41065387 Ry
     Harris-Foulkes estimate   =    -584.41065387 Ry
     estimated scf accuracy    <          7.1E-10 Ry

     iteration # 27     ecut=    50.00 Ry     beta= 0.60
     Davidson diagonalization with overlap
     ethr =  4.34E-13,  avg # of iterations =  4.5

     total cpu time spent up to now is     1870.2 secs

     total energy              =    -584.41065387 Ry
     Harris-Foulkes estimate   =    -584.41065387 Ry
     estimated scf accuracy    <          3.6E-10 Ry

     iteration # 28     ecut=    50.00 Ry     beta= 0.60
     Davidson diagonalization with overlap
     ethr =  4.34E-13,  avg # of iterations =  1.0

     total cpu time spent up to now is     1918.7 secs

     End of self-consistent calculation

     Number of k-points >= 100: set verbosity='high' to print the bands.

     the Fermi energy is    10.8406 ev

!    total energy              =    -584.41065387 Ry
     Harris-Foulkes estimate   =    -584.41065387 Ry
     estimated scf accuracy    <          4.5E-11 Ry

     The total energy is the sum of the following terms:

     one-electron contribution =    -228.26856497 Ry
     hartree contribution      =     127.35770693 Ry
     xc contribution           =     -75.75260816 Ry
     ewald contribution        =    -407.74578687 Ry
     smearing contrib. (-TS)   =      -0.00140080 Ry

     convergence has been achieved in  28 iterations

     Forces acting on atoms (cartesian axes, Ry/au):

     atom    1 type  2   force =    -0.00502578   -0.00502578   -0.00542773
     atom    2 type  2   force =    -0.00052590   -0.00052590    0.00757956
     atom    3 type  2   force =     0.00052590    0.00052590   -0.00757956
     atom    4 type  2   force =     0.00502578    0.00502578    0.00542773
     atom    5 type  1   force =     0.00000000    0.00000000    0.00000000

     Total force =     0.016612     Total SCF correction =     0.000017


     Computing stress (Cartesian axis) and pressure

          total   stress  (Ry/bohr**3)                   (kbar)     P= -180.39
  -0.00122525  -0.00000836   0.00000496       -180.24     -1.23      0.73
  -0.00000836  -0.00122525   0.00000496         -1.23   -180.24      0.73
   0.00000496   0.00000496  -0.00122830          0.73      0.73   -180.69


     BFGS Geometry Optimization

     number of scf cycles    =   1
     number of bfgs steps    =   0

     enthalpy new            =    -584.4106538720 Ry

     new trust radius        =       0.1663158223 bohr
     new conv_thr            =            1.0E-10 Ry

     new unit-cell volume =    667.94294 a.u.^3 (    98.97893 Ang^3 )
     density =      4.77086 g/cm^3

CELL_PARAMETERS (alat=  1.88972599)
   5.112828632   1.703732412   5.113011868
   1.703732412   5.112828632   5.113011868
  -1.703595771  -1.703595771   1.703611303

ATOMIC_POSITIONS (angstrom)
Ti      -0.002142273  -0.002142273   3.405309101
Ti       1.704197738   1.704197738   5.116463974
Ti       3.408767534   3.408767534   6.813171065
Ti       5.115107546   5.115107546   8.524325938
Nb       5.112965272   5.112965272  11.929635039


     NEW-OLD atomic charge density approx. for the potential
     extrapolated charge   55.41936, renormalised to   61.00000

     total cpu time spent up to now is     1940.2 secs

     Self-consistent Calculation

     iteration #  1     ecut=    50.00 Ry     beta= 0.60
     Davidson diagonalization with overlap
     c_bands:  2 eigenvalues not converged
     c_bands:  1 eigenvalues not converged
     c_bands:  2 eigenvalues not converged
     c_bands:  1 eigenvalues not converged
     c_bands:  1 eigenvalues not converged
     c_bands:  1 eigenvalues not converged
     c_bands:  2 eigenvalues not converged
     c_bands:  1 eigenvalues not converged
     c_bands:  3 eigenvalues not converged
     c_bands:  1 eigenvalues not converged
     c_bands:  1 eigenvalues not converged
     c_bands:  1 eigenvalues not converged
     c_bands:  1 eigenvalues not converged
     c_bands:  1 eigenvalues not converged
     c_bands:  1 eigenvalues not converged
     c_bands:  1 eigenvalues not converged
     c_bands:  1 eigenvalues not converged
     c_bands:  1 eigenvalues not converged
     c_bands:  1 eigenvalues not converged
     c_bands:  1 eigenvalues not converged
     c_bands:  1 eigenvalues not converged
     c_bands:  1 eigenvalues not converged
     c_bands:  3 eigenvalues not converged
     c_bands:  1 eigenvalues not converged
     c_bands:  1 eigenvalues not converged
     c_bands:  1 eigenvalues not converged
     c_bands:  1 eigenvalues not converged
     ethr =  1.00E-06,  avg # of iterations = 14.8

     total cpu time spent up to now is     2142.2 secs

     total energy              =    -570.40379562 Ry
     Harris-Foulkes estimate   =    -599.64302890 Ry
     estimated scf accuracy    <      15.03261499 Ry

     iteration #  2     ecut=    50.00 Ry     beta= 0.60
     Davidson diagonalization with overlap
     ethr =  1.00E-02,  avg # of iterations =  4.9

     total cpu time spent up to now is     2245.7 secs

     total energy              =    -581.73337300 Ry
     Harris-Foulkes estimate   =    -602.26897922 Ry
     estimated scf accuracy    <      63.96496807 Ry

     iteration #  3     ecut=    50.00 Ry     beta= 0.60
     Davidson diagonalization with overlap
     ethr =  1.00E-02,  avg # of iterations =  6.0

     total cpu time spent up to now is     2334.6 secs

     total energy              =    -583.12389822 Ry
     Harris-Foulkes estimate   =    -590.29821598 Ry
     estimated scf accuracy    <      38.75255051 Ry

     iteration #  4     ecut=    50.00 Ry     beta= 0.60
     Davidson diagonalization with overlap
     ethr =  1.00E-02,  avg # of iterations =  4.6

     total cpu time spent up to now is     2402.9 secs

     total energy              =    -585.30896297 Ry
     Harris-Foulkes estimate   =    -586.93592683 Ry
     estimated scf accuracy    <       9.55667852 Ry

     iteration #  5     ecut=    50.00 Ry     beta= 0.60
     Davidson diagonalization with overlap
     ethr =  1.00E-02,  avg # of iterations =  1.1

     total cpu time spent up to now is     2452.8 secs

     total energy              =    -585.62082358 Ry
     Harris-Foulkes estimate   =    -585.48154662 Ry
     estimated scf accuracy    <       5.56223802 Ry

     iteration #  6     ecut=    50.00 Ry     beta= 0.60
     Davidson diagonalization with overlap
     ethr =  9.12E-03,  avg # of iterations =  1.0

     total cpu time spent up to now is     2502.5 secs

     total energy              =    -585.63114513 Ry
     Harris-Foulkes estimate   =    -585.65474441 Ry
     estimated scf accuracy    <       5.99898313 Ry

     iteration #  7     ecut=    50.00 Ry     beta= 0.60
     Davidson diagonalization with overlap
     ethr =  9.12E-03,  avg # of iterations =  1.0

     total cpu time spent up to now is     2552.5 secs

     total energy              =    -585.65700296 Ry
     Harris-Foulkes estimate   =    -585.64664017 Ry
     estimated scf accuracy    <       5.76670971 Ry

     iteration #  8     ecut=    50.00 Ry     beta= 0.60
     Davidson diagonalization with overlap
     ethr =  9.12E-03,  avg # of iterations =  1.0

     total cpu time spent up to now is     2602.2 secs

     total energy              =    -586.09525291 Ry
     Harris-Foulkes estimate   =    -585.66599138 Ry
     estimated scf accuracy    <       5.88720271 Ry

     iteration #  9     ecut=    50.00 Ry     beta= 0.60
     Davidson diagonalization with overlap
     ethr =  9.12E-03,  avg # of iterations =  1.0

     total cpu time spent up to now is     2652.1 secs

     total energy              =    -584.40152393 Ry
     Harris-Foulkes estimate   =    -586.10612543 Ry
     estimated scf accuracy    <       6.87255114 Ry

     iteration # 10     ecut=    50.00 Ry     beta= 0.60
     Davidson diagonalization with overlap
     ethr =  9.12E-03,  avg # of iterations =  1.1

     total cpu time spent up to now is     2702.1 secs

     total energy              =    -583.25937120 Ry
     Harris-Foulkes estimate   =    -584.59266735 Ry
     estimated scf accuracy    <       3.04474962 Ry

     iteration # 11     ecut=    50.00 Ry     beta= 0.60
     Davidson diagonalization with overlap
     ethr =  4.99E-03,  avg # of iterations =  6.0

     total cpu time spent up to now is     2806.2 secs

     total energy              =    -584.47629030 Ry
     Harris-Foulkes estimate   =    -590.67556427 Ry
     estimated scf accuracy    <      76.50787588 Ry

     iteration # 12     ecut=    50.00 Ry     beta= 0.60
     Davidson diagonalization with overlap
     ethr =  4.99E-03,  avg # of iterations =  3.8

     total cpu time spent up to now is     2872.3 secs

     total energy              =    -584.55672280 Ry
     Harris-Foulkes estimate   =    -585.69799035 Ry
     estimated scf accuracy    <      13.94414185 Ry

     iteration # 13     ecut=    50.00 Ry     beta= 0.60
     Davidson diagonalization with overlap
     ethr =  4.99E-03,  avg # of iterations =  2.3

     total cpu time spent up to now is     2925.2 secs

     total energy              =    -584.59177912 Ry
     Harris-Foulkes estimate   =    -584.76767524 Ry
     estimated scf accuracy    <       6.41950837 Ry

     iteration # 14     ecut=    50.00 Ry     beta= 0.60
     Davidson diagonalization with overlap
     ethr =  4.99E-03,  avg # of iterations =  1.1

     total cpu time spent up to now is     2975.1 secs

     total energy              =    -583.64043779 Ry
     Harris-Foulkes estimate   =    -584.64201821 Ry
     estimated scf accuracy    <       5.50145464 Ry

     iteration # 15     ecut=    50.00 Ry     beta= 0.60
     Davidson diagonalization with overlap
     ethr =  4.99E-03,  avg # of iterations =  5.3

     total cpu time spent up to now is     3053.6 secs

     total energy              =    -584.52023696 Ry
     Harris-Foulkes estimate   =    -584.51358557 Ry
     estimated scf accuracy    <       0.27596156 Ry

     iteration # 16     ecut=    50.00 Ry     beta= 0.60
     Davidson diagonalization with overlap
     ethr =  4.52E-04,  avg # of iterations =  4.1

     total cpu time spent up to now is     3114.9 secs

     total energy              =    -584.53767480 Ry
     Harris-Foulkes estimate   =    -584.53955654 Ry
     estimated scf accuracy    <       0.31620151 Ry

     iteration # 17     ecut=    50.00 Ry     beta= 0.60
     Davidson diagonalization with overlap
     ethr =  4.52E-04,  avg # of iterations =  1.1

     total cpu time spent up to now is     3164.9 secs

     total energy              =    -584.50286963 Ry
     Harris-Foulkes estimate   =    -584.53953914 Ry
     estimated scf accuracy    <       0.34259016 Ry

     iteration # 18     ecut=    50.00 Ry     beta= 0.60
     Davidson diagonalization with overlap
     ethr =  4.52E-04,  avg # of iterations =  1.0

     total cpu time spent up to now is     3214.9 secs

     total energy              =    -584.49964778 Ry
     Harris-Foulkes estimate   =    -584.50619593 Ry
     estimated scf accuracy    <       0.21470153 Ry

     iteration # 19     ecut=    50.00 Ry     beta= 0.60
     Davidson diagonalization with overlap
     ethr =  3.52E-04,  avg # of iterations =  1.0

     total cpu time spent up to now is     3264.8 secs

     total energy              =    -584.50209801 Ry
     Harris-Foulkes estimate   =    -584.50102823 Ry
     estimated scf accuracy    <       0.17064620 Ry

     iteration # 20     ecut=    50.00 Ry     beta= 0.60
     Davidson diagonalization with overlap
     ethr =  2.80E-04,  avg # of iterations =  1.0

     total cpu time spent up to now is     3314.7 secs

     total energy              =    -584.46842627 Ry
     Harris-Foulkes estimate   =    -584.50255530 Ry
     estimated scf accuracy    <       0.16855232 Ry

     iteration # 21     ecut=    50.00 Ry     beta= 0.60
     Davidson diagonalization with overlap
     ethr =  2.76E-04,  avg # of iterations =  3.0

     total cpu time spent up to now is     3370.0 secs

     total energy              =    -584.47632686 Ry
     Harris-Foulkes estimate   =    -584.48488725 Ry
     estimated scf accuracy    <       0.07913400 Ry

     iteration # 22     ecut=    50.00 Ry     beta= 0.60
     Davidson diagonalization with overlap
     ethr =  1.30E-04,  avg # of iterations =  2.5

     total cpu time spent up to now is     3423.6 secs

     total energy              =    -584.47053311 Ry
     Harris-Foulkes estimate   =    -584.48151205 Ry
     estimated scf accuracy    <       0.03462585 Ry

     iteration # 23     ecut=    50.00 Ry     beta= 0.60
     Davidson diagonalization with overlap
     ethr =  5.68E-05,  avg # of iterations =  6.4

     total cpu time spent up to now is     3504.7 secs

     total energy              =    -584.47884172 Ry
     Harris-Foulkes estimate   =    -584.48149810 Ry
     estimated scf accuracy    <       0.00711676 Ry

     iteration # 24     ecut=    50.00 Ry     beta= 0.60
     Davidson diagonalization with overlap
     c_bands:  1 eigenvalues not converged
     c_bands:  1 eigenvalues not converged
     c_bands:  1 eigenvalues not converged
     c_bands:  1 eigenvalues not converged
     ethr =  1.17E-05,  avg # of iterations =  5.6

     total cpu time spent up to now is     3579.6 secs

     total energy              =    -584.47979818 Ry
     Harris-Foulkes estimate   =    -584.48018983 Ry
     estimated scf accuracy    <       0.00369444 Ry

     iteration # 25     ecut=    50.00 Ry     beta= 0.60
     Davidson diagonalization with overlap
     c_bands:  1 eigenvalues not converged
     c_bands:  1 eigenvalues not converged
     c_bands:  1 eigenvalues not converged
     c_bands:  1 eigenvalues not converged
     c_bands:  1 eigenvalues not converged
     c_bands:  2 eigenvalues not converged
     c_bands:  1 eigenvalues not converged
     c_bands:  2 eigenvalues not converged
     c_bands:  1 eigenvalues not converged
     c_bands:  1 eigenvalues not converged
     c_bands:  1 eigenvalues not converged
     c_bands:  1 eigenvalues not converged
     c_bands:  1 eigenvalues not converged
     c_bands:  1 eigenvalues not converged
     c_bands:  1 eigenvalues not converged
     c_bands:  1 eigenvalues not converged
     c_bands:  1 eigenvalues not converged
     c_bands:  1 eigenvalues not converged
     c_bands:  1 eigenvalues not converged
     c_bands:  1 eigenvalues not converged
     ethr =  6.06E-06,  avg # of iterations =  4.2

     total cpu time spent up to now is     3636.8 secs

     total energy              =    -584.47996805 Ry
     Harris-Foulkes estimate   =    -584.48000365 Ry
     estimated scf accuracy    <       0.00023485 Ry

     iteration # 26     ecut=    50.00 Ry     beta= 0.60
     Davidson diagonalization with overlap
     c_bands:  1 eigenvalues not converged
     c_bands:  1 eigenvalues not converged
     c_bands:  1 eigenvalues not converged
     c_bands:  1 eigenvalues not converged
     c_bands:  1 eigenvalues not converged
     ethr =  3.85E-07,  avg # of iterations =  7.1

     total cpu time spent up to now is     3723.0 secs

     total energy              =    -584.48000869 Ry
     Harris-Foulkes estimate   =    -584.48003089 Ry
     estimated scf accuracy    <       0.00010518 Ry

     iteration # 27     ecut=    50.00 Ry     beta= 0.60
     Davidson diagonalization with overlap
     ethr =  1.72E-07,  avg # of iterations =  1.9

     total cpu time spent up to now is     3775.5 secs

     total energy              =    -584.48000865 Ry
     Harris-Foulkes estimate   =    -584.48001594 Ry
     estimated scf accuracy    <       0.00002315 Ry

     iteration # 28     ecut=    50.00 Ry     beta= 0.60
     Davidson diagonalization with overlap
     ethr =  3.80E-08,  avg # of iterations =  4.5

     total cpu time spent up to now is     3848.9 secs

     total energy              =    -584.48001087 Ry
     Harris-Foulkes estimate   =    -584.48001702 Ry
     estimated scf accuracy    <       0.00008853 Ry

     iteration # 29     ecut=    50.00 Ry     beta= 0.60
     Davidson diagonalization with overlap
     ethr =  3.80E-08,  avg # of iterations =  1.5

     total cpu time spent up to now is     3900.0 secs

     total energy              =    -584.48000824 Ry
     Harris-Foulkes estimate   =    -584.48001217 Ry
     estimated scf accuracy    <       0.00003829 Ry

     iteration # 30     ecut=    50.00 Ry     beta= 0.60
     Davidson diagonalization with overlap
     ethr =  3.80E-08,  avg # of iterations =  3.1

     total cpu time spent up to now is     3958.4 secs

     total energy              =    -584.48001082 Ry
     Harris-Foulkes estimate   =    -584.48001084 Ry
     estimated scf accuracy    <       0.00000008 Ry

     iteration # 31     ecut=    50.00 Ry     beta= 0.60
     Davidson diagonalization with overlap
     c_bands:  1 eigenvalues not converged
     ethr =  1.39E-10,  avg # of iterations =  6.2

     total cpu time spent up to now is     4060.6 secs

     total energy              =    -584.48001105 Ry
     Harris-Foulkes estimate   =    -584.48001107 Ry
     estimated scf accuracy    <       0.00000043 Ry

     iteration # 32     ecut=    50.00 Ry     beta= 0.60
     Davidson diagonalization with overlap
     c_bands:  1 eigenvalues not converged
     ethr =  1.39E-10,  avg # of iterations =  1.0

     total cpu time spent up to now is     4110.6 secs

     total energy              =    -584.48001104 Ry
     Harris-Foulkes estimate   =    -584.48001106 Ry
     estimated scf accuracy    <       0.00000018 Ry

     iteration # 33     ecut=    50.00 Ry     beta= 0.60
     Davidson diagonalization with overlap
     ethr =  1.39E-10,  avg # of iterations =  3.0

     total cpu time spent up to now is     4168.5 secs

     total energy              =    -584.48001105 Ry
     Harris-Foulkes estimate   =    -584.48001105 Ry
     estimated scf accuracy    <          4.7E-09 Ry

     iteration # 34     ecut=    50.00 Ry     beta= 0.60
     Davidson diagonalization with overlap
     ethr =  7.72E-12,  avg # of iterations =  4.9

     total cpu time spent up to now is     4245.7 secs

     total energy              =    -584.48001105 Ry
     Harris-Foulkes estimate   =    -584.48001105 Ry
     estimated scf accuracy    <          2.8E-09 Ry

     iteration # 35     ecut=    50.00 Ry     beta= 0.60
     Davidson diagonalization with overlap
     ethr =  4.65E-12,  avg # of iterations =  1.0

     total cpu time spent up to now is     4295.6 secs

     total energy              =    -584.48001105 Ry
     Harris-Foulkes estimate   =    -584.48001105 Ry
     estimated scf accuracy    <          1.3E-09 Ry

     iteration # 36     ecut=    50.00 Ry     beta= 0.60
     Davidson diagonalization with overlap
     ethr =  2.11E-12,  avg # of iterations =  2.9

     total cpu time spent up to now is     4353.7 secs

     End of self-consistent calculation

     Number of k-points >= 100: set verbosity='high' to print the bands.

     the Fermi energy is    12.1697 ev

!    total energy              =    -584.48001105 Ry
     Harris-Foulkes estimate   =    -584.48001105 Ry
     estimated scf accuracy    <          5.2E-11 Ry

     The total energy is the sum of the following terms:

     one-electron contribution =    -208.88767658 Ry
     hartree contribution      =     121.09532909 Ry
     xc contribution           =     -76.07123139 Ry
     ewald contribution        =    -420.61553539 Ry
     smearing contrib. (-TS)   =      -0.00089678 Ry

     convergence has been achieved in  36 iterations

     Forces acting on atoms (cartesian axes, Ry/au):

     atom    1 type  2   force =    -0.00419838   -0.00419838   -0.00356728
     atom    2 type  2   force =    -0.00216911   -0.00216911    0.00612074
     atom    3 type  2   force =     0.00216911    0.00216911   -0.00612074
     atom    4 type  2   force =     0.00419838    0.00419838    0.00356728
     atom    5 type  1   force =     0.00000000    0.00000000    0.00000000

     Total force =     0.013773     Total SCF correction =     0.000012


     Computing stress (Cartesian axis) and pressure

          total   stress  (Ry/bohr**3)                   (kbar)     P= -125.78
  -0.00085480  -0.00000562   0.00000154       -125.75     -0.83      0.23
  -0.00000562  -0.00085480   0.00000154         -0.83   -125.75      0.23
   0.00000154   0.00000154  -0.00085542          0.23      0.23   -125.84


     number of scf cycles    =   2
     number of bfgs steps    =   1

     enthalpy old            =    -584.4106538720 Ry
     enthalpy new            =    -584.4800110487 Ry

     CASE: enthalpy_new < enthalpy_old

     new trust radius        =       0.2456333374 bohr
     new conv_thr            =            1.0E-10 Ry

     new unit-cell volume =    577.22320 a.u.^3 (    85.53565 Ang^3 )
     density =      5.52068 g/cm^3

CELL_PARAMETERS (alat=  1.88972599)
   4.870009479   1.621639520   4.870702600
   1.621639520   4.870009479   4.870702600
  -1.621977178  -1.621977178   1.622320907

ATOMIC_POSITIONS (angstrom)
Ti      -0.006261904  -0.006261904   3.239609453
Ti       1.620868393   1.620868393   4.880298586
Ti       3.248803428   3.248803428   6.483427521
Ti       4.875933725   4.875933725   8.124116654
Nb       4.869671821   4.869671821  11.363726107


     NEW-OLD atomic charge density approx. for the potential
     extrapolated charge   52.04201, renormalised to   61.00000

     total cpu time spent up to now is     4376.2 secs

     Self-consistent Calculation

     iteration #  1     ecut=    50.00 Ry     beta= 0.60
     Davidson diagonalization with overlap
     c_bands:  2 eigenvalues not converged
     c_bands:  1 eigenvalues not converged
     c_bands:  1 eigenvalues not converged
     c_bands:  1 eigenvalues not converged
     c_bands:  1 eigenvalues not converged
     c_bands:  1 eigenvalues not converged
     c_bands:  1 eigenvalues not converged
     c_bands:  1 eigenvalues not converged
     c_bands:  1 eigenvalues not converged
     c_bands:  1 eigenvalues not converged
     c_bands:  1 eigenvalues not converged
     c_bands:  1 eigenvalues not converged
     c_bands:  1 eigenvalues not converged
     c_bands:  1 eigenvalues not converged
     ethr =  1.00E-06,  avg # of iterations = 16.5

     total cpu time spent up to now is     4609.1 secs

     total energy              =    -551.13307557 Ry
     Harris-Foulkes estimate   =    -606.82857424 Ry
     estimated scf accuracy    <      36.78193129 Ry

     iteration #  2     ecut=    50.00 Ry     beta= 0.60
     Davidson diagonalization with overlap
     ethr =  1.00E-02,  avg # of iterations =  6.7

     total cpu time spent up to now is     4728.0 secs

     total energy              =    -569.04519901 Ry
     Harris-Foulkes estimate   =    -622.65918482 Ry
     estimated scf accuracy    <     166.63538950 Ry

     iteration #  3     ecut=    50.00 Ry     beta= 0.60
     Davidson diagonalization with overlap
     ethr =  1.00E-02,  avg # of iterations =  4.1

     total cpu time spent up to now is     4820.3 secs

     total energy              =    -586.00911813 Ry
     Harris-Foulkes estimate   =    -589.70771722 Ry
     estimated scf accuracy    <      17.69085439 Ry

     iteration #  4     ecut=    50.00 Ry     beta= 0.60
     Davidson diagonalization with overlap
     ethr =  1.00E-02,  avg # of iterations =  4.4

     total cpu time spent up to now is     4890.5 secs

     total energy              =    -584.91134238 Ry
     Harris-Foulkes estimate   =    -588.57982797 Ry
     estimated scf accuracy    <      25.80492732 Ry

     iteration #  5     ecut=    50.00 Ry     beta= 0.60
     Davidson diagonalization with overlap
     ethr =  1.00E-02,  avg # of iterations =  2.1

     total cpu time spent up to now is     4945.8 secs

     total energy              =    -585.22912641 Ry
     Harris-Foulkes estimate   =    -586.34551985 Ry
     estimated scf accuracy    <       6.96386536 Ry

     iteration #  6     ecut=    50.00 Ry     beta= 0.60
     Davidson diagonalization with overlap
     ethr =  1.00E-02,  avg # of iterations =  1.0

     total cpu time spent up to now is     4996.3 secs

     total energy              =    -584.81873100 Ry
     Harris-Foulkes estimate   =    -585.33582198 Ry
     estimated scf accuracy    <       4.47458476 Ry

     iteration #  7     ecut=    50.00 Ry     beta= 0.60
     Davidson diagonalization with overlap
     ethr =  7.34E-03,  avg # of iterations =  1.2

     total cpu time spent up to now is     5047.5 secs

     total energy              =    -584.80657661 Ry
     Harris-Foulkes estimate   =    -584.89928868 Ry
     estimated scf accuracy    <       2.78915211 Ry

     iteration #  8     ecut=    50.00 Ry     beta= 0.60
     Davidson diagonalization with overlap
     ethr =  4.57E-03,  avg # of iterations =  1.2

     total cpu time spent up to now is     5098.5 secs

     total energy              =    -584.46771591 Ry
     Harris-Foulkes estimate   =    -584.83837093 Ry
     estimated scf accuracy    <       2.41630007 Ry

     iteration #  9     ecut=    50.00 Ry     beta= 0.60
     Davidson diagonalization with overlap
     ethr =  3.96E-03,  avg # of iterations =  2.4

     total cpu time spent up to now is     5153.3 secs

     total energy              =    -584.51412859 Ry
     Harris-Foulkes estimate   =    -584.55156745 Ry
     estimated scf accuracy    <       0.93029769 Ry

     iteration # 10     ecut=    50.00 Ry     beta= 0.60
     Davidson diagonalization with overlap
     ethr =  1.53E-03,  avg # of iterations =  4.6

     total cpu time spent up to now is     5219.2 secs

     total energy              =    -584.30967261 Ry
     Harris-Foulkes estimate   =    -584.58190675 Ry
     estimated scf accuracy    <       0.41355070 Ry

     iteration # 11     ecut=    50.00 Ry     beta= 0.60
     Davidson diagonalization with overlap
     ethr =  6.78E-04,  avg # of iterations =  5.2

     total cpu time spent up to now is     5319.3 secs

     total energy              =    -584.88227735 Ry
     Harris-Foulkes estimate   =    -585.05326703 Ry
     estimated scf accuracy    <       8.75194503 Ry

     iteration # 12     ecut=    50.00 Ry     beta= 0.60
     Davidson diagonalization with overlap
     ethr =  6.78E-04,  avg # of iterations =  1.0

     total cpu time spent up to now is     5369.3 secs

     total energy              =    -584.85789874 Ry
     Harris-Foulkes estimate   =    -584.89144716 Ry
     estimated scf accuracy    <       6.91062714 Ry

     iteration # 13     ecut=    50.00 Ry     beta= 0.60
     Davidson diagonalization with overlap
     ethr =  6.78E-04,  avg # of iterations =  1.0

     total cpu time spent up to now is     5418.4 secs

     total energy              =    -584.75971199 Ry
     Harris-Foulkes estimate   =    -584.86183388 Ry
     estimated scf accuracy    <       6.29342001 Ry

     iteration # 14     ecut=    50.00 Ry     beta= 0.60
     Davidson diagonalization with overlap
     ethr =  6.78E-04,  avg # of iterations =  1.0

     total cpu time spent up to now is     5467.8 secs

     total energy              =    -584.38589551 Ry
     Harris-Foulkes estimate   =    -584.76773533 Ry
     estimated scf accuracy    <       5.10052844 Ry

     iteration # 15     ecut=    50.00 Ry     beta= 0.60
     Davidson diagonalization with overlap
     ethr =  6.78E-04,  avg # of iterations =  5.2

     total cpu time spent up to now is     5553.5 secs

     total energy              =    -584.59960804 Ry
     Harris-Foulkes estimate   =    -584.61701421 Ry
     estimated scf accuracy    <       0.80319117 Ry

     iteration # 16     ecut=    50.00 Ry     beta= 0.60
     Davidson diagonalization with overlap
     ethr =  6.78E-04,  avg # of iterations =  1.2

     total cpu time spent up to now is     5603.9 secs

     total energy              =    -584.60334707 Ry
     Harris-Foulkes estimate   =    -584.62832527 Ry
     estimated scf accuracy    <       0.39717534 Ry

     iteration # 17     ecut=    50.00 Ry     beta= 0.60
     Davidson diagonalization with overlap
     ethr =  6.51E-04,  avg # of iterations =  1.0

     total cpu time spent up to now is     5654.0 secs

     total energy              =    -584.54431515 Ry
     Harris-Foulkes estimate   =    -584.60747575 Ry
     estimated scf accuracy    <       0.34557583 Ry

     iteration # 18     ecut=    50.00 Ry     beta= 0.60
     Davidson diagonalization with overlap
     ethr =  5.67E-04,  avg # of iterations =  1.0

     total cpu time spent up to now is     5703.7 secs

     total energy              =    -584.50323024 Ry
     Harris-Foulkes estimate   =    -584.55686588 Ry
     estimated scf accuracy    <       0.32536373 Ry

     iteration # 19     ecut=    50.00 Ry     beta= 0.60
     Davidson diagonalization with overlap
     ethr =  5.33E-04,  avg # of iterations =  3.0

     total cpu time spent up to now is     5763.6 secs

     total energy              =    -584.55494838 Ry
     Harris-Foulkes estimate   =    -584.54880006 Ry
     estimated scf accuracy    <       0.17138777 Ry

     iteration # 20     ecut=    50.00 Ry     beta= 0.60
     Davidson diagonalization with overlap
     ethr =  2.81E-04,  avg # of iterations =  4.0

     total cpu time spent up to now is     5824.2 secs

     total energy              =    -584.61361270 Ry
     Harris-Foulkes estimate   =    -584.56331609 Ry
     estimated scf accuracy    <       0.20620315 Ry

     iteration # 21     ecut=    50.00 Ry     beta= 0.60
     Davidson diagonalization with overlap
     ethr =  2.81E-04,  avg # of iterations =  4.5

     total cpu time spent up to now is     5886.2 secs

     total energy              =    -584.68046642 Ry
     Harris-Foulkes estimate   =    -584.62695988 Ry
     estimated scf accuracy    <       0.48154073 Ry

     iteration # 22     ecut=    50.00 Ry     beta= 0.60
     Davidson diagonalization with overlap
     ethr =  2.81E-04,  avg # of iterations =  4.4

     total cpu time spent up to now is     5947.3 secs

     total energy              =    -584.66606375 Ry
     Harris-Foulkes estimate   =    -584.68984528 Ry
     estimated scf accuracy    <       0.75862942 Ry

     iteration # 23     ecut=    50.00 Ry     beta= 0.60
     Davidson diagonalization with overlap
     ethr =  2.81E-04,  avg # of iterations =  2.2

     total cpu time spent up to now is     6000.0 secs

     total energy              =    -584.46615712 Ry
     Harris-Foulkes estimate   =    -584.67457786 Ry
     estimated scf accuracy    <       0.90459120 Ry

     iteration # 24     ecut=    50.00 Ry     beta= 0.60
     Davidson diagonalization with overlap
     ethr =  2.81E-04,  avg # of iterations =  4.1

     total cpu time spent up to now is     6077.2 secs

     total energy              =    -584.50290411 Ry
     Harris-Foulkes estimate   =    -584.53526751 Ry
     estimated scf accuracy    <       0.24514192 Ry

     iteration # 25     ecut=    50.00 Ry     beta= 0.60
     Davidson diagonalization with overlap
     ethr =  2.81E-04,  avg # of iterations =  2.1

     total cpu time spent up to now is     6129.0 secs

     total energy              =    -584.51544762 Ry
     Harris-Foulkes estimate   =    -584.51629985 Ry
     estimated scf accuracy    <       0.01802433 Ry

     iteration # 26     ecut=    50.00 Ry     beta= 0.60
     Davidson diagonalization with overlap
     c_bands:  1 eigenvalues not converged
     ethr =  2.95E-05,  avg # of iterations =  6.5

     total cpu time spent up to now is     6210.3 secs

     total energy              =    -584.51971603 Ry
     Harris-Foulkes estimate   =    -584.51985686 Ry
     estimated scf accuracy    <       0.00310752 Ry

     iteration # 27     ecut=    50.00 Ry     beta= 0.60
     Davidson diagonalization with overlap
     c_bands:  1 eigenvalues not converged
     c_bands:  1 eigenvalues not converged
     c_bands:  1 eigenvalues not converged
     c_bands:  1 eigenvalues not converged
     c_bands:  1 eigenvalues not converged
     c_bands:  1 eigenvalues not converged
     c_bands:  1 eigenvalues not converged
     ethr =  5.09E-06,  avg # of iterations =  3.6

     total cpu time spent up to now is     6266.6 secs

     total energy              =    -584.51952437 Ry
     Harris-Foulkes estimate   =    -584.51983555 Ry
     estimated scf accuracy    <       0.00337942 Ry

     iteration # 28     ecut=    50.00 Ry     beta= 0.60
     Davidson diagonalization with overlap
     ethr =  5.09E-06,  avg # of iterations =  1.1

     total cpu time spent up to now is     6316.0 secs

     total energy              =    -584.51945969 Ry
     Harris-Foulkes estimate   =    -584.51962589 Ry
     estimated scf accuracy    <       0.00063458 Ry

     iteration # 29     ecut=    50.00 Ry     beta= 0.60
     Davidson diagonalization with overlap
     ethr =  1.04E-06,  avg # of iterations =  5.7

     total cpu time spent up to now is     6391.2 secs

     total energy              =    -584.51957114 Ry
     Harris-Foulkes estimate   =    -584.51963138 Ry
     estimated scf accuracy    <       0.00037904 Ry

     iteration # 30     ecut=    50.00 Ry     beta= 0.60
     Davidson diagonalization with overlap
     ethr =  6.21E-07,  avg # of iterations =  1.1

     total cpu time spent up to now is     6440.6 secs

     total energy              =    -584.51959032 Ry
     Harris-Foulkes estimate   =    -584.51959411 Ry
     estimated scf accuracy    <       0.00001816 Ry

     iteration # 31     ecut=    50.00 Ry     beta= 0.60
     Davidson diagonalization with overlap
     c_bands:  1 eigenvalues not converged
     ethr =  2.98E-08,  avg # of iterations =  5.1

     total cpu time spent up to now is     6518.9 secs

     total energy              =    -584.51959952 Ry
     Harris-Foulkes estimate   =    -584.51960616 Ry
     estimated scf accuracy    <       0.00005718 Ry

     iteration # 32     ecut=    50.00 Ry     beta= 0.60
     Davidson diagonalization with overlap
     ethr =  2.98E-08,  avg # of iterations =  2.5

     total cpu time spent up to now is     6572.0 secs

     total energy              =    -584.51960060 Ry
     Harris-Foulkes estimate   =    -584.51960147 Ry
     estimated scf accuracy    <       0.00000851 Ry

     iteration # 33     ecut=    50.00 Ry     beta= 0.60
     Davidson diagonalization with overlap
     ethr =  1.39E-08,  avg # of iterations =  4.0

     total cpu time spent up to now is     6637.3 secs

     total energy              =    -584.51960188 Ry
     Harris-Foulkes estimate   =    -584.51960190 Ry
     estimated scf accuracy    <       0.00000023 Ry

     iteration # 34     ecut=    50.00 Ry     beta= 0.60
     Davidson diagonalization with overlap
     ethr =  3.81E-10,  avg # of iterations =  4.9

     total cpu time spent up to now is     6708.7 secs

     total energy              =    -584.51960192 Ry
     Harris-Foulkes estimate   =    -584.51960197 Ry
     estimated scf accuracy    <       0.00000032 Ry

     iteration # 35     ecut=    50.00 Ry     beta= 0.60
     Davidson diagonalization with overlap
     ethr =  3.81E-10,  avg # of iterations =  1.9

     total cpu time spent up to now is     6760.3 secs

     total energy              =    -584.51960194 Ry
     Harris-Foulkes estimate   =    -584.51960194 Ry
     estimated scf accuracy    <       0.00000002 Ry

     iteration # 36     ecut=    50.00 Ry     beta= 0.60
     Davidson diagonalization with overlap
     ethr =  2.51E-11,  avg # of iterations =  5.0

     total cpu time spent up to now is     6838.4 secs

     total energy              =    -584.51960194 Ry
     Harris-Foulkes estimate   =    -584.51960195 Ry
     estimated scf accuracy    <       0.00000003 Ry

     iteration # 37     ecut=    50.00 Ry     beta= 0.60
     Davidson diagonalization with overlap
     ethr =  2.51E-11,  avg # of iterations =  3.5

     total cpu time spent up to now is     6898.7 secs

     total energy              =    -584.51960194 Ry
     Harris-Foulkes estimate   =    -584.51960194 Ry
     estimated scf accuracy    <          7.7E-10 Ry

     iteration # 38     ecut=    50.00 Ry     beta= 0.60
     Davidson diagonalization with overlap
     ethr =  1.27E-12,  avg # of iterations =  4.7

     total cpu time spent up to now is     6971.4 secs

     total energy              =    -584.51960194 Ry
     Harris-Foulkes estimate   =    -584.51960194 Ry
     estimated scf accuracy    <          1.3E-10 Ry

     iteration # 39     ecut=    50.00 Ry     beta= 0.60
     Davidson diagonalization with overlap
     ethr =  2.12E-13,  avg # of iterations =  2.6

     total cpu time spent up to now is     7027.1 secs

     End of self-consistent calculation

     Number of k-points >= 100: set verbosity='high' to print the bands.

     the Fermi energy is    14.4870 ev

!    total energy              =    -584.51960194 Ry
     Harris-Foulkes estimate   =    -584.51960194 Ry
     estimated scf accuracy    <          1.2E-11 Ry

     The total energy is the sum of the following terms:

     one-electron contribution =    -177.86049154 Ry
     hartree contribution      =     111.53670436 Ry
     xc contribution           =     -76.65540548 Ry
     ewald contribution        =    -441.53991083 Ry
     smearing contrib. (-TS)   =      -0.00049845 Ry

     convergence has been achieved in  39 iterations

     Forces acting on atoms (cartesian axes, Ry/au):

     atom    1 type  2   force =    -0.00177170   -0.00177170    0.00130245
     atom    2 type  2   force =    -0.00550122   -0.00550122    0.00251983
     atom    3 type  2   force =     0.00550122    0.00550122   -0.00251983
     atom    4 type  2   force =     0.00177170    0.00177170   -0.00130245
     atom    5 type  1   force =     0.00000000    0.00000000    0.00000000

     Total force =     0.012235     Total SCF correction =     0.000015


     Computing stress (Cartesian axis) and pressure

          total   stress  (Ry/bohr**3)                   (kbar)     P=   14.55
   0.00009804   0.00000420  -0.00000621         14.42      0.62     -0.91
   0.00000420   0.00009804  -0.00000621          0.62     14.42     -0.91
  -0.00000621  -0.00000621   0.00010061         -0.91     -0.91     14.80


     number of scf cycles    =   3
     number of bfgs steps    =   2

     enthalpy old            =    -584.4800110487 Ry
     enthalpy new            =    -584.5196019450 Ry

     CASE: enthalpy_new < enthalpy_old

     new trust radius        =       0.0222913925 bohr
     new conv_thr            =            1.0E-10 Ry

     new unit-cell volume =    585.22100 a.u.^3 (    86.72080 Ang^3 )
     density =      5.44523 g/cm^3

CELL_PARAMETERS (alat=  1.88972599)
   4.891818824   1.628929879   4.892391938
   1.628929879   4.891818824   4.892391938
  -1.629801644  -1.629801644   1.630283668

ATOMIC_POSITIONS (angstrom)
Ti      -0.007228571  -0.007228571   3.255359200
Ti       1.625661666   1.625661666   4.903171961
Ti       3.265285393   3.265285393   6.511895583
Ti       4.898175630   4.898175630   8.159708344
Nb       4.890947059   4.890947059  11.415067544


     NEW-OLD atomic charge density approx. for the potential
     extrapolated charge   61.77894, renormalised to   61.00000

     total cpu time spent up to now is     7049.6 secs

     Self-consistent Calculation

     iteration #  1     ecut=    50.00 Ry     beta= 0.60
     Davidson diagonalization with overlap
     c_bands:  1 eigenvalues not converged
     c_bands:  1 eigenvalues not converged
     c_bands:  1 eigenvalues not converged
     c_bands:  1 eigenvalues not converged
     c_bands:  1 eigenvalues not converged
     c_bands:  1 eigenvalues not converged
     c_bands:  1 eigenvalues not converged
     c_bands:  1 eigenvalues not converged
     c_bands:  1 eigenvalues not converged
     ethr =  1.00E-06,  avg # of iterations =  9.6

     total cpu time spent up to now is     7176.7 secs

     total energy              =    -584.44165998 Ry
     Harris-Foulkes estimate   =    -582.86936115 Ry
     estimated scf accuracy    <       0.06852416 Ry

     iteration #  2     ecut=    50.00 Ry     beta= 0.60
     Davidson diagonalization with overlap
     ethr =  1.12E-04,  avg # of iterations =  5.7

     total cpu time spent up to now is     7281.8 secs

     total energy              =    -584.41602618 Ry
     Harris-Foulkes estimate   =    -584.62849678 Ry
     estimated scf accuracy    <       1.28655370 Ry

     iteration #  3     ecut=    50.00 Ry     beta= 0.60
     Davidson diagonalization with overlap
     ethr =  1.12E-04,  avg # of iterations =  6.2

     total cpu time spent up to now is     7376.4 secs

     total energy              =    -584.47213711 Ry
     Harris-Foulkes estimate   =    -584.57533308 Ry
     estimated scf accuracy    <       0.88629622 Ry

     iteration #  4     ecut=    50.00 Ry     beta= 0.60
     Davidson diagonalization with overlap
     ethr =  1.12E-04,  avg # of iterations =  6.1

     total cpu time spent up to now is     7461.6 secs

     total energy              =    -584.50494285 Ry
     Harris-Foulkes estimate   =    -584.54459256 Ry
     estimated scf accuracy    <       0.30835681 Ry

     iteration #  5     ecut=    50.00 Ry     beta= 0.60
     Davidson diagonalization with overlap
     ethr =  1.12E-04,  avg # of iterations =  3.6

     total cpu time spent up to now is     7524.1 secs

     total energy              =    -584.52156756 Ry
     Harris-Foulkes estimate   =    -584.52381511 Ry
     estimated scf accuracy    <       0.01571772 Ry

     iteration #  6     ecut=    50.00 Ry     beta= 0.60
     Davidson diagonalization with overlap
     c_bands:  1 eigenvalues not converged
     ethr =  2.58E-05,  avg # of iterations =  2.9

     total cpu time spent up to now is     7579.0 secs

     total energy              =    -584.52069689 Ry
     Harris-Foulkes estimate   =    -584.52212560 Ry
     estimated scf accuracy    <       0.00990801 Ry

     iteration #  7     ecut=    50.00 Ry     beta= 0.60
     Davidson diagonalization with overlap
     c_bands:  1 eigenvalues not converged
     ethr =  1.62E-05,  avg # of iterations =  1.5

     total cpu time spent up to now is     7629.2 secs

     total energy              =    -584.52045681 Ry
     Harris-Foulkes estimate   =    -584.52097442 Ry
     estimated scf accuracy    <       0.00543736 Ry

     iteration #  8     ecut=    50.00 Ry     beta= 0.60
     Davidson diagonalization with overlap
     ethr =  8.91E-06,  avg # of iterations =  2.0

     total cpu time spent up to now is     7680.3 secs

     total energy              =    -584.51967406 Ry
     Harris-Foulkes estimate   =    -584.52059271 Ry
     estimated scf accuracy    <       0.00362168 Ry

     iteration #  9     ecut=    50.00 Ry     beta= 0.60
     Davidson diagonalization with overlap
     ethr =  5.94E-06,  avg # of iterations =  5.0

     total cpu time spent up to now is     7745.8 secs

     total energy              =    -584.51999815 Ry
     Harris-Foulkes estimate   =    -584.52004909 Ry
     estimated scf accuracy    <       0.00043814 Ry

     iteration # 10     ecut=    50.00 Ry     beta= 0.60
     Davidson diagonalization with overlap
     c_bands:  1 eigenvalues not converged
     c_bands:  1 eigenvalues not converged
     c_bands:  1 eigenvalues not converged
     c_bands:  1 eigenvalues not converged
     c_bands:  1 eigenvalues not converged
     c_bands:  1 eigenvalues not converged
     c_bands:  1 eigenvalues not converged
     ethr =  7.18E-07,  avg # of iterations =  7.5

     total cpu time spent up to now is     7820.2 secs

     total energy              =    -584.52000638 Ry
     Harris-Foulkes estimate   =    -584.52005664 Ry
     estimated scf accuracy    <       0.00015335 Ry

     iteration # 11     ecut=    50.00 Ry     beta= 0.60
     Davidson diagonalization with overlap
     c_bands:  1 eigenvalues not converged
     ethr =  2.51E-07,  avg # of iterations =  3.8

     total cpu time spent up to now is     7886.5 secs

     total energy              =    -584.52003639 Ry
     Harris-Foulkes estimate   =    -584.52003660 Ry
     estimated scf accuracy    <       0.00000307 Ry

     iteration # 12     ecut=    50.00 Ry     beta= 0.60
     Davidson diagonalization with overlap
     ethr =  5.03E-09,  avg # of iterations =  5.1

     total cpu time spent up to now is     7978.9 secs

     total energy              =    -584.52003864 Ry
     Harris-Foulkes estimate   =    -584.52003874 Ry
     estimated scf accuracy    <       0.00000075 Ry

     iteration # 13     ecut=    50.00 Ry     beta= 0.60
     Davidson diagonalization with overlap
     ethr =  1.23E-09,  avg # of iterations =  1.2

     total cpu time spent up to now is     8029.4 secs

     total energy              =    -584.52003865 Ry
     Harris-Foulkes estimate   =    -584.52003867 Ry
     estimated scf accuracy    <       0.00000015 Ry

     iteration # 14     ecut=    50.00 Ry     beta= 0.60
     Davidson diagonalization with overlap
     c_bands:  1 eigenvalues not converged
     ethr =  2.39E-10,  avg # of iterations =  3.8

     total cpu time spent up to now is     8097.5 secs

     total energy              =    -584.52003868 Ry
     Harris-Foulkes estimate   =    -584.52003868 Ry
     estimated scf accuracy    <       0.00000008 Ry

     iteration # 15     ecut=    50.00 Ry     beta= 0.60
     Davidson diagonalization with overlap
     ethr =  1.25E-10,  avg # of iterations =  1.2

     total cpu time spent up to now is     8147.9 secs

     total energy              =    -584.52003868 Ry
     Harris-Foulkes estimate   =    -584.52003868 Ry
     estimated scf accuracy    <       0.00000007 Ry

     iteration # 16     ecut=    50.00 Ry     beta= 0.60
     Davidson diagonalization with overlap
     ethr =  1.09E-10,  avg # of iterations =  1.8

     total cpu time spent up to now is     8199.8 secs

     total energy              =    -584.52003867 Ry
     Harris-Foulkes estimate   =    -584.52003868 Ry
     estimated scf accuracy    <       0.00000004 Ry

     iteration # 17     ecut=    50.00 Ry     beta= 0.60
     Davidson diagonalization with overlap
     ethr =  7.34E-11,  avg # of iterations =  2.6

     total cpu time spent up to now is     8255.1 secs

     total energy              =    -584.52003868 Ry
     Harris-Foulkes estimate   =    -584.52003868 Ry
     estimated scf accuracy    <          4.0E-09 Ry

     iteration # 18     ecut=    50.00 Ry     beta= 0.60
     Davidson diagonalization with overlap
     ethr =  6.61E-12,  avg # of iterations =  4.4

     total cpu time spent up to now is     8324.7 secs

     total energy              =    -584.52003868 Ry
     Harris-Foulkes estimate   =    -584.52003868 Ry
     estimated scf accuracy    <          2.4E-09 Ry

     iteration # 19     ecut=    50.00 Ry     beta= 0.60
     Davidson diagonalization with overlap
     ethr =  3.86E-12,  avg # of iterations =  2.6

     total cpu time spent up to now is     8378.5 secs

     total energy              =    -584.52003868 Ry
     Harris-Foulkes estimate   =    -584.52003868 Ry
     estimated scf accuracy    <          1.3E-10 Ry

     iteration # 20     ecut=    50.00 Ry     beta= 0.60
     Davidson diagonalization with overlap
     ethr =  2.14E-13,  avg # of iterations =  5.0

     total cpu time spent up to now is     8460.2 secs

     total energy              =    -584.52003868 Ry
     Harris-Foulkes estimate   =    -584.52003868 Ry
     estimated scf accuracy    <          1.0E-09 Ry

     iteration # 21     ecut=    50.00 Ry     beta= 0.60
     Davidson diagonalization with overlap
     ethr =  2.14E-13,  avg # of iterations =  4.3

     total cpu time spent up to now is     8532.7 secs

     End of self-consistent calculation

     Number of k-points >= 100: set verbosity='high' to print the bands.

     the Fermi energy is    14.2544 ev

!    total energy              =    -584.52003868 Ry
     Harris-Foulkes estimate   =    -584.52003868 Ry
     estimated scf accuracy    <          1.1E-11 Ry

     The total energy is the sum of the following terms:

     one-electron contribution =    -180.82244411 Ry
     hartree contribution      =     112.42429159 Ry
     xc contribution           =     -76.59574095 Ry
     ewald contribution        =    -439.52568674 Ry
     smearing contrib. (-TS)   =      -0.00045847 Ry

     convergence has been achieved in  21 iterations

     Forces acting on atoms (cartesian axes, Ry/au):

     atom    1 type  2   force =    -0.00220095   -0.00220095    0.00049299
     atom    2 type  2   force =    -0.00500333   -0.00500333    0.00308162
     atom    3 type  2   force =     0.00500333    0.00500333   -0.00308162
     atom    4 type  2   force =     0.00220095    0.00220095   -0.00049299
     atom    5 type  1   force =     0.00000000    0.00000000    0.00000000

     Total force =     0.011789     Total SCF correction =     0.000008


     Computing stress (Cartesian axis) and pressure

          total   stress  (Ry/bohr**3)                   (kbar)     P=   -2.14
  -0.00001565   0.00000284  -0.00000482         -2.30      0.42     -0.71
   0.00000284  -0.00001565  -0.00000482          0.42     -2.30     -0.71
  -0.00000482  -0.00000482  -0.00001235         -0.71     -0.71     -1.82


     number of scf cycles    =   4
     number of bfgs steps    =   3

     enthalpy old            =    -584.5196019450 Ry
     enthalpy new            =    -584.5200386775 Ry

     CASE: enthalpy_new < enthalpy_old

     new trust radius        =       0.0076498846 bohr
     new conv_thr            =            1.0E-10 Ry

     new unit-cell volume =    585.04278 a.u.^3 (    86.69439 Ang^3 )
     density =      5.44689 g/cm^3

CELL_PARAMETERS (alat=  1.88972599)
   4.890666895   1.628459665   4.891307494
   1.628459665   4.890666895   4.891307494
  -1.629935202  -1.629935202   1.630641265

ATOMIC_POSITIONS (angstrom)
Ti      -0.008781243  -0.008781243   3.255517700
Ti       1.622294637   1.622294637   4.904096023
Ti       3.266896719   3.266896719   6.509160231
Ti       4.897972599   4.897972599   8.157738554
Nb       4.889191357   4.889191357  11.413256253


     NEW-OLD atomic charge density approx. for the potential
     extrapolated charge   60.98264, renormalised to   61.00000

     total cpu time spent up to now is     8555.4 secs

     Self-consistent Calculation

     iteration #  1     ecut=    50.00 Ry     beta= 0.60
     Davidson diagonalization with overlap
     ethr =  1.00E-06,  avg # of iterations =  4.0

     Threshold (ethr) on eigenvalues was too large:
     Diagonalizing with lowered threshold

     Davidson diagonalization with overlap
     ethr =  8.86E-08,  avg # of iterations =  1.2

     total cpu time spent up to now is     8699.7 secs

     total energy              =    -584.52012950 Ry
     Harris-Foulkes estimate   =    -584.55729600 Ry
     estimated scf accuracy    <       0.00005479 Ry

     iteration #  2     ecut=    50.00 Ry     beta= 0.60
     Davidson diagonalization with overlap
     ethr =  8.98E-08,  avg # of iterations =  5.3

     total cpu time spent up to now is     8799.2 secs

     total energy              =    -584.52002037 Ry
     Harris-Foulkes estimate   =    -584.52032370 Ry
     estimated scf accuracy    <       0.00298209 Ry

     iteration #  3     ecut=    50.00 Ry     beta= 0.60
     Davidson diagonalization with overlap
     ethr =  8.98E-08,  avg # of iterations =  5.3

     total cpu time spent up to now is     8883.3 secs

     total energy              =    -584.52017036 Ry
     Harris-Foulkes estimate   =    -584.52020088 Ry
     estimated scf accuracy    <       0.00020663 Ry

     iteration #  4     ecut=    50.00 Ry     beta= 0.60
     Davidson diagonalization with overlap
     ethr =  8.98E-08,  avg # of iterations =  3.0

     total cpu time spent up to now is     8943.1 secs

     total energy              =    -584.52017826 Ry
     Harris-Foulkes estimate   =    -584.52018052 Ry
     estimated scf accuracy    <       0.00000920 Ry

     iteration #  5     ecut=    50.00 Ry     beta= 0.60
     Davidson diagonalization with overlap
     ethr =  1.51E-08,  avg # of iterations =  4.4

     total cpu time spent up to now is     9016.9 secs

     total energy              =    -584.52017824 Ry
     Harris-Foulkes estimate   =    -584.52018098 Ry
     estimated scf accuracy    <       0.00001287 Ry

     iteration #  6     ecut=    50.00 Ry     beta= 0.60
     Davidson diagonalization with overlap
     ethr =  1.51E-08,  avg # of iterations =  2.9

     total cpu time spent up to now is     9076.5 secs

     total energy              =    -584.52017911 Ry
     Harris-Foulkes estimate   =    -584.52017979 Ry
     estimated scf accuracy    <       0.00000393 Ry

     iteration #  7     ecut=    50.00 Ry     beta= 0.60
     Davidson diagonalization with overlap
     ethr =  6.45E-09,  avg # of iterations =  2.4

     total cpu time spent up to now is     9133.0 secs

     total energy              =    -584.52017939 Ry
     Harris-Foulkes estimate   =    -584.52017945 Ry
     estimated scf accuracy    <       0.00000066 Ry

     iteration #  8     ecut=    50.00 Ry     beta= 0.60
     Davidson diagonalization with overlap
     ethr =  1.09E-09,  avg # of iterations =  3.9

     total cpu time spent up to now is     9199.7 secs

     total energy              =    -584.52017949 Ry
     Harris-Foulkes estimate   =    -584.52017950 Ry
     estimated scf accuracy    <       0.00000003 Ry

     iteration #  9     ecut=    50.00 Ry     beta= 0.60
     Davidson diagonalization with overlap
     ethr =  4.57E-11,  avg # of iterations =  4.7

     total cpu time spent up to now is     9275.1 secs

     total energy              =    -584.52017950 Ry
     Harris-Foulkes estimate   =    -584.52017950 Ry
     estimated scf accuracy    <       0.00000002 Ry

     iteration # 10     ecut=    50.00 Ry     beta= 0.60
     Davidson diagonalization with overlap
     ethr =  3.97E-11,  avg # of iterations =  1.0

     total cpu time spent up to now is     9325.4 secs

     total energy              =    -584.52017950 Ry
     Harris-Foulkes estimate   =    -584.52017950 Ry
     estimated scf accuracy    <          3.1E-09 Ry

     iteration # 11     ecut=    50.00 Ry     beta= 0.60
     Davidson diagonalization with overlap
     ethr =  5.11E-12,  avg # of iterations =  4.0

     total cpu time spent up to now is     9396.4 secs

     total energy              =    -584.52017950 Ry
     Harris-Foulkes estimate   =    -584.52017950 Ry
     estimated scf accuracy    <          7.2E-10 Ry

     iteration # 12     ecut=    50.00 Ry     beta= 0.60
     Davidson diagonalization with overlap
     ethr =  1.19E-12,  avg # of iterations =  2.2

     total cpu time spent up to now is     9450.9 secs

     total energy              =    -584.52017950 Ry
     Harris-Foulkes estimate   =    -584.52017950 Ry
     estimated scf accuracy    <          1.4E-10 Ry

     iteration # 13     ecut=    50.00 Ry     beta= 0.60
     Davidson diagonalization with overlap
     ethr =  2.31E-13,  avg # of iterations =  4.0

     total cpu time spent up to now is     9522.2 secs

     End of self-consistent calculation

     Number of k-points >= 100: set verbosity='high' to print the bands.

     the Fermi energy is    14.2587 ev

!    total energy              =    -584.52017950 Ry
     Harris-Foulkes estimate   =    -584.52017950 Ry
     estimated scf accuracy    <          3.2E-11 Ry

     The total energy is the sum of the following terms:

     one-electron contribution =    -180.75600043 Ry
     hartree contribution      =     112.40394540 Ry
     xc contribution           =     -76.59711757 Ry
     ewald contribution        =    -439.57058442 Ry
     smearing contrib. (-TS)   =      -0.00042248 Ry

     convergence has been achieved in  13 iterations

     Forces acting on atoms (cartesian axes, Ry/au):

     atom    1 type  2   force =    -0.00231730   -0.00231730    0.00026676
     atom    2 type  2   force =    -0.00485889   -0.00485889    0.00319916
     atom    3 type  2   force =     0.00485889    0.00485889   -0.00319916
     atom    4 type  2   force =     0.00231730    0.00231730   -0.00026676
     atom    5 type  1   force =     0.00000000    0.00000000    0.00000000

     Total force =     0.011684     Total SCF correction =     0.000015


     Computing stress (Cartesian axis) and pressure

          total   stress  (Ry/bohr**3)                   (kbar)     P=   -1.79
  -0.00001359   0.00000281  -0.00000443         -2.00      0.41     -0.65
   0.00000281  -0.00001359  -0.00000443          0.41     -2.00     -0.65
  -0.00000443  -0.00000443  -0.00000934         -0.65     -0.65     -1.37


     number of scf cycles    =   5
     number of bfgs steps    =   4

     enthalpy old            =    -584.5200386775 Ry
     enthalpy new            =    -584.5201794995 Ry

     CASE: enthalpy_new < enthalpy_old


     WARNING: bfgs curvature condition failed, Theta= 0.811
     new trust radius        =       0.0084155849 bohr
     new conv_thr            =            1.0E-10 Ry

     new unit-cell volume =    584.88464 a.u.^3 (    86.67096 Ang^3 )
     density =      5.44836 g/cm^3

CELL_PARAMETERS (alat=  1.88972599)
   4.889504389   1.627983545   4.890250072
   1.627983545   4.889504389   4.890250072
  -1.630111825  -1.630111825   1.631070803

ATOMIC_POSITIONS (angstrom)
Ti      -0.010500843  -0.010500843   3.255752336
Ti       1.618636633   1.618636633   4.905263022
Ti       3.268739477   3.268739477   6.506307926
Ti       4.897876953   4.897876953   8.155818612
Nb       4.887376110   4.887376110  11.411570948


     NEW-OLD atomic charge density approx. for the potential
     extrapolated charge   60.98459, renormalised to   61.00000

     total cpu time spent up to now is     9545.2 secs

     Self-consistent Calculation

     iteration #  1     ecut=    50.00 Ry     beta= 0.60
     Davidson diagonalization with overlap
     ethr =  1.00E-06,  avg # of iterations =  4.0

     Threshold (ethr) on eigenvalues was too large:
     Diagonalizing with lowered threshold

     Davidson diagonalization with overlap
     ethr =  8.56E-08,  avg # of iterations =  1.5

     total cpu time spent up to now is     9696.4 secs

     total energy              =    -584.52028742 Ry
     Harris-Foulkes estimate   =    -584.55326535 Ry
     estimated scf accuracy    <       0.00005291 Ry

     iteration #  2     ecut=    50.00 Ry     beta= 0.60
     Davidson diagonalization with overlap
     ethr =  8.67E-08,  avg # of iterations =  5.3

     total cpu time spent up to now is     9793.8 secs

     total energy              =    -584.52016901 Ry
     Harris-Foulkes estimate   =    -584.52047833 Ry
     estimated scf accuracy    <       0.00309320 Ry

     iteration #  3     ecut=    50.00 Ry     beta= 0.60
     Davidson diagonalization with overlap
     ethr =  8.67E-08,  avg # of iterations =  5.3

     total cpu time spent up to now is     9873.7 secs

     total energy              =    -584.52032209 Ry
     Harris-Foulkes estimate   =    -584.52034962 Ry
     estimated scf accuracy    <       0.00017779 Ry

     iteration #  4     ecut=    50.00 Ry     beta= 0.60
     Davidson diagonalization with overlap
     ethr =  8.67E-08,  avg # of iterations =  3.1

     total cpu time spent up to now is     9933.7 secs

     total energy              =    -584.52033044 Ry
     Harris-Foulkes estimate   =    -584.52033562 Ry
     estimated scf accuracy    <       0.00003334 Ry

     iteration #  5     ecut=    50.00 Ry     beta= 0.60
     Davidson diagonalization with overlap
     ethr =  5.47E-08,  avg # of iterations =  1.2

     total cpu time spent up to now is     9982.8 secs

     total energy              =    -584.52033020 Ry
     Harris-Foulkes estimate   =    -584.52033237 Ry
     estimated scf accuracy    <       0.00000556 Ry

     iteration #  6     ecut=    50.00 Ry     beta= 0.60
     Davidson diagonalization with overlap
     ethr =  9.11E-09,  avg # of iterations =  4.7

     total cpu time spent up to now is    10055.5 secs

     total energy              =    -584.52033189 Ry
     Harris-Foulkes estimate   =    -584.52033251 Ry
     estimated scf accuracy    <       0.00000648 Ry

     iteration #  7     ecut=    50.00 Ry     beta= 0.60
     Davidson diagonalization with overlap
     ethr =  9.11E-09,  avg # of iterations =  1.0

     total cpu time spent up to now is    10104.4 secs

     total energy              =    -584.52033178 Ry
     Harris-Foulkes estimate   =    -584.52033204 Ry
     estimated scf accuracy    <       0.00000220 Ry

     iteration #  8     ecut=    50.00 Ry     beta= 0.60
     Davidson diagonalization with overlap
     ethr =  3.61E-09,  avg # of iterations =  3.0

     total cpu time spent up to now is    10161.3 secs

     total energy              =    -584.52033198 Ry
     Harris-Foulkes estimate   =    -584.52033198 Ry
     estimated scf accuracy    <       0.00000003 Ry

     iteration #  9     ecut=    50.00 Ry     beta= 0.60
     Davidson diagonalization with overlap
     ethr =  5.65E-11,  avg # of iterations =  5.3

     total cpu time spent up to now is    10243.7 secs

     total energy              =    -584.52033201 Ry
     Harris-Foulkes estimate   =    -584.52033201 Ry
     estimated scf accuracy    <       0.00000003 Ry

     iteration # 10     ecut=    50.00 Ry     beta= 0.60
     Davidson diagonalization with overlap
     ethr =  4.65E-11,  avg # of iterations =  1.0

     total cpu time spent up to now is    10292.7 secs

     total energy              =    -584.52033201 Ry
     Harris-Foulkes estimate   =    -584.52033201 Ry
     estimated scf accuracy    <          3.8E-09 Ry

     iteration # 11     ecut=    50.00 Ry     beta= 0.60
     Davidson diagonalization with overlap
     ethr =  6.19E-12,  avg # of iterations =  4.1

     total cpu time spent up to now is    10362.6 secs

     total energy              =    -584.52033201 Ry
     Harris-Foulkes estimate   =    -584.52033201 Ry
     estimated scf accuracy    <          1.4E-09 Ry

     iteration # 12     ecut=    50.00 Ry     beta= 0.60
     Davidson diagonalization with overlap
     ethr =  2.28E-12,  avg # of iterations =  1.0

     total cpu time spent up to now is    10411.6 secs

     total energy              =    -584.52033201 Ry
     Harris-Foulkes estimate   =    -584.52033201 Ry
     estimated scf accuracy    <          4.8E-10 Ry

     iteration # 13     ecut=    50.00 Ry     beta= 0.60
     Davidson diagonalization with overlap
     ethr =  7.85E-13,  avg # of iterations =  3.3

     total cpu time spent up to now is    10473.2 secs

     End of self-consistent calculation

     Number of k-points >= 100: set verbosity='high' to print the bands.

     the Fermi energy is    14.2623 ev

!    total energy              =    -584.52033201 Ry
     Harris-Foulkes estimate   =    -584.52033201 Ry
     estimated scf accuracy    <          2.5E-11 Ry

     The total energy is the sum of the following terms:

     one-electron contribution =    -180.69795607 Ry
[...]
     c_bands:  1 eigenvalues not converged
     c_bands:  1 eigenvalues not converged
     c_bands:  1 eigenvalues not converged
     c_bands:  1 eigenvalues not converged
     c_bands:  1 eigenvalues not converged
     c_bands:  3 eigenvalues not converged
     c_bands:  3 eigenvalues not converged
     c_bands:  1 eigenvalues not converged
     c_bands:  1 eigenvalues not converged
     c_bands:  2 eigenvalues not converged
     c_bands:  1 eigenvalues not converged
     c_bands:  1 eigenvalues not converged
     c_bands:  1 eigenvalues not converged
     c_bands:  1 eigenvalues not converged
     c_bands:  1 eigenvalues not converged
     c_bands:  2 eigenvalues not converged
     c_bands:  1 eigenvalues not converged
     c_bands:  1 eigenvalues not converged
     c_bands:  1 eigenvalues not converged
     c_bands:  1 eigenvalues not converged
     c_bands:  1 eigenvalues not converged
     c_bands:  1 eigenvalues not converged
     c_bands:  1 eigenvalues not converged
     c_bands:  1 eigenvalues not converged
     c_bands:  1 eigenvalues not converged
     c_bands:  1 eigenvalues not converged
     c_bands:  1 eigenvalues not converged
     c_bands:  1 eigenvalues not converged
     c_bands:  2 eigenvalues not converged
     c_bands:  2 eigenvalues not converged
     c_bands:  2 eigenvalues not converged
     c_bands:  2 eigenvalues not converged
     c_bands:  1 eigenvalues not converged
     c_bands:  1 eigenvalues not converged
     c_bands:  1 eigenvalues not converged
     c_bands:  1 eigenvalues not converged
     c_bands:  1 eigenvalues not converged
     c_bands:  1 eigenvalues not converged
     c_bands:  1 eigenvalues not converged
     c_bands:  1 eigenvalues not converged
     c_bands:  2 eigenvalues not converged
     c_bands:  2 eigenvalues not converged
     c_bands:  2 eigenvalues not converged
     c_bands:  2 eigenvalues not converged
     c_bands:  1 eigenvalues not converged
     c_bands:  1 eigenvalues not converged
     c_bands:  1 eigenvalues not converged
     c_bands:  1 eigenvalues not converged
     c_bands:  2 eigenvalues not converged
     c_bands:  2 eigenvalues not converged
     c_bands:  1 eigenvalues not converged
     c_bands:  1 eigenvalues not converged
     c_bands:  1 eigenvalues not converged
     c_bands:  2 eigenvalues not converged
     c_bands:  3 eigenvalues not converged
     c_bands:  3 eigenvalues not converged
     c_bands:  1 eigenvalues not converged
     c_bands:  1 eigenvalues not converged
     c_bands:  1 eigenvalues not converged
     c_bands:  1 eigenvalues not converged
     c_bands:  1 eigenvalues not converged
     c_bands:  1 eigenvalues not converged
     c_bands:  1 eigenvalues not converged
     c_bands:  1 eigenvalues not converged
     ethr =  1.00E-06,  avg # of iterations = 19.5

     total cpu time spent up to now is    47462.9 secs

     total energy              =    -574.57897980 Ry
     Harris-Foulkes estimate   =    -586.76468534 Ry
     estimated scf accuracy    <      15.29487302 Ry

     iteration #  2     ecut=    50.00 Ry     beta= 0.60
     Davidson diagonalization with overlap
     ethr =  1.00E-02,  avg # of iterations =  5.7

     total cpu time spent up to now is    47544.5 secs

     total energy              =    -581.13376314 Ry
     Harris-Foulkes estimate   =    -607.60881023 Ry
     estimated scf accuracy    <      85.94130852 Ry

     iteration #  3     ecut=    50.00 Ry     beta= 0.60
     Davidson diagonalization with overlap
     ethr =  1.00E-02,  avg # of iterations =  3.9

     total cpu time spent up to now is    47605.3 secs

     total energy              =    -584.69758519 Ry
     Harris-Foulkes estimate   =    -586.79231961 Ry
     estimated scf accuracy    <      25.91894081 Ry

     iteration #  4     ecut=    50.00 Ry     beta= 0.60
     Davidson diagonalization with overlap
     ethr =  1.00E-02,  avg # of iterations =  1.6

     total cpu time spent up to now is    47646.1 secs

     total energy              =    -584.54839744 Ry
     Harris-Foulkes estimate   =    -585.16707345 Ry
     estimated scf accuracy    <      13.36736690 Ry

     iteration #  5     ecut=    50.00 Ry     beta= 0.60
     Davidson diagonalization with overlap
     ethr =  1.00E-02,  avg # of iterations =  2.3

     total cpu time spent up to now is    47689.2 secs

     total energy              =    -583.27726957 Ry
     Harris-Foulkes estimate   =    -584.68755998 Ry
     estimated scf accuracy    <       8.44244432 Ry

     iteration #  6     ecut=    50.00 Ry     beta= 0.60
     Davidson diagonalization with overlap
     ethr =  1.00E-02,  avg # of iterations =  5.7

     total cpu time spent up to now is    47758.2 secs

     total energy              =    -583.93423478 Ry
     Harris-Foulkes estimate   =    -585.12320505 Ry
     estimated scf accuracy    <      13.78178922 Ry

     iteration #  7     ecut=    50.00 Ry     beta= 0.60
     Davidson diagonalization with overlap
     ethr =  1.00E-02,  avg # of iterations =  1.0

     total cpu time spent up to now is    47798.2 secs

     total energy              =    -584.45244899 Ry
     Harris-Foulkes estimate   =    -584.42130890 Ry
     estimated scf accuracy    <       0.44687525 Ry

     iteration #  8     ecut=    50.00 Ry     beta= 0.60
     Davidson diagonalization with overlap
     ethr =  7.33E-04,  avg # of iterations =  5.6

     total cpu time spent up to now is    47860.9 secs

     total energy              =    -584.46212198 Ry
     Harris-Foulkes estimate   =    -584.55197868 Ry
     estimated scf accuracy    <       0.63881547 Ry

     iteration #  9     ecut=    50.00 Ry     beta= 0.60
     Davidson diagonalization with overlap
     ethr =  7.33E-04,  avg # of iterations =  2.6

     total cpu time spent up to now is    47904.8 secs

     total energy              =    -584.52050259 Ry
     Harris-Foulkes estimate   =    -584.52651280 Ry
     estimated scf accuracy    <       0.07852884 Ry

     iteration # 10     ecut=    50.00 Ry     beta= 0.60
     Davidson diagonalization with overlap
     ethr =  1.29E-04,  avg # of iterations =  6.2

     total cpu time spent up to now is    47970.1 secs

     total energy              =    -584.50948068 Ry
     Harris-Foulkes estimate   =    -584.53160817 Ry
     estimated scf accuracy    <       0.08251578 Ry

     iteration # 11     ecut=    50.00 Ry     beta= 0.60
     Davidson diagonalization with overlap
     ethr =  1.29E-04,  avg # of iterations =  5.3

     total cpu time spent up to now is    48031.5 secs

     total energy              =    -584.52029150 Ry
     Harris-Foulkes estimate   =    -584.54872599 Ry
     estimated scf accuracy    <       0.47053662 Ry

     iteration # 12     ecut=    50.00 Ry     beta= 0.60
     Davidson diagonalization with overlap
     ethr =  1.29E-04,  avg # of iterations =  1.1

     total cpu time spent up to now is    48071.7 secs

     total energy              =    -584.52276813 Ry
     Harris-Foulkes estimate   =    -584.52811393 Ry
     estimated scf accuracy    <       0.09310675 Ry

     iteration # 13     ecut=    50.00 Ry     beta= 0.60
     Davidson diagonalization with overlap
     ethr =  1.29E-04,  avg # of iterations =  1.5

     total cpu time spent up to now is    48113.2 secs

     total energy              =    -584.52360775 Ry
     Harris-Foulkes estimate   =    -584.52488166 Ry
     estimated scf accuracy    <       0.02536478 Ry

     iteration # 14     ecut=    50.00 Ry     beta= 0.60
     Davidson diagonalization with overlap
     ethr =  4.16E-05,  avg # of iterations =  5.1

     total cpu time spent up to now is    48171.9 secs

     total energy              =    -584.52646058 Ry
     Harris-Foulkes estimate   =    -584.52666433 Ry
     estimated scf accuracy    <       0.00068617 Ry

     iteration # 15     ecut=    50.00 Ry     beta= 0.60
     Davidson diagonalization with overlap
     ethr =  1.12E-06,  avg # of iterations =  6.5

     total cpu time spent up to now is    48251.0 secs

     total energy              =    -584.52679032 Ry
     Harris-Foulkes estimate   =    -584.52680601 Ry
     estimated scf accuracy    <       0.00052991 Ry

     iteration # 16     ecut=    50.00 Ry     beta= 0.60
     Davidson diagonalization with overlap
     ethr =  8.69E-07,  avg # of iterations =  1.0

     total cpu time spent up to now is    48292.0 secs

     total energy              =    -584.52678813 Ry
     Harris-Foulkes estimate   =    -584.52681178 Ry
     estimated scf accuracy    <       0.00036337 Ry

     iteration # 17     ecut=    50.00 Ry     beta= 0.60
     Davidson diagonalization with overlap
     ethr =  5.96E-07,  avg # of iterations =  1.0

     total cpu time spent up to now is    48332.8 secs

     total energy              =    -584.52678603 Ry
     Harris-Foulkes estimate   =    -584.52679540 Ry
     estimated scf accuracy    <       0.00022480 Ry

     iteration # 18     ecut=    50.00 Ry     beta= 0.60
     Davidson diagonalization with overlap
     ethr =  3.69E-07,  avg # of iterations =  1.0

     total cpu time spent up to now is    48373.7 secs

     total energy              =    -584.52678390 Ry
     Harris-Foulkes estimate   =    -584.52678761 Ry
     estimated scf accuracy    <       0.00017445 Ry

     iteration # 19     ecut=    50.00 Ry     beta= 0.60
     Davidson diagonalization with overlap
     ethr =  2.86E-07,  avg # of iterations =  1.0

     total cpu time spent up to now is    48414.7 secs

     total energy              =    -584.52678191 Ry
     Harris-Foulkes estimate   =    -584.52678455 Ry
     estimated scf accuracy    <       0.00015907 Ry

     iteration # 20     ecut=    50.00 Ry     beta= 0.60
     Davidson diagonalization with overlap
     ethr =  2.61E-07,  avg # of iterations =  1.0

     total cpu time spent up to now is    48455.7 secs

     total energy              =    -584.52677052 Ry
     Harris-Foulkes estimate   =    -584.52678230 Ry
     estimated scf accuracy    <       0.00013503 Ry

     iteration # 21     ecut=    50.00 Ry     beta= 0.60
     Davidson diagonalization with overlap
     ethr =  2.21E-07,  avg # of iterations =  1.0

     total cpu time spent up to now is    48496.6 secs

     total energy              =    -584.52677111 Ry
     Harris-Foulkes estimate   =    -584.52677300 Ry
     estimated scf accuracy    <       0.00004227 Ry

     iteration # 22     ecut=    50.00 Ry     beta= 0.60
     Davidson diagonalization with overlap
     ethr =  6.93E-08,  avg # of iterations =  3.6

     total cpu time spent up to now is    48545.7 secs

     total energy              =    -584.52677136 Ry
     Harris-Foulkes estimate   =    -584.52677315 Ry
     estimated scf accuracy    <       0.00001211 Ry

     iteration # 23     ecut=    50.00 Ry     beta= 0.60
     Davidson diagonalization with overlap
     ethr =  1.98E-08,  avg # of iterations =  4.1

     total cpu time spent up to now is    48600.5 secs

     total energy              =    -584.52677344 Ry
     Harris-Foulkes estimate   =    -584.52677368 Ry
     estimated scf accuracy    <       0.00000189 Ry

     iteration # 24     ecut=    50.00 Ry     beta= 0.60
     Davidson diagonalization with overlap
     ethr =  3.09E-09,  avg # of iterations =  3.4

     total cpu time spent up to now is    48649.7 secs

     total energy              =    -584.52677357 Ry
     Harris-Foulkes estimate   =    -584.52677362 Ry
     estimated scf accuracy    <       0.00000039 Ry

     iteration # 25     ecut=    50.00 Ry     beta= 0.60
     Davidson diagonalization with overlap
     ethr =  6.32E-10,  avg # of iterations =  3.9

     total cpu time spent up to now is    48704.5 secs

     total energy              =    -584.52677361 Ry
     Harris-Foulkes estimate   =    -584.52677365 Ry
     estimated scf accuracy    <       0.00000034 Ry

     iteration # 26     ecut=    50.00 Ry     beta= 0.60
     Davidson diagonalization with overlap
     ethr =  5.52E-10,  avg # of iterations =  1.0

     total cpu time spent up to now is    48744.9 secs

     total energy              =    -584.52677359 Ry
     Harris-Foulkes estimate   =    -584.52677362 Ry
     estimated scf accuracy    <       0.00000014 Ry

     iteration # 27     ecut=    50.00 Ry     beta= 0.60
     Davidson diagonalization with overlap
     ethr =  2.30E-10,  avg # of iterations =  3.6

     total cpu time spent up to now is    48799.7 secs

     total energy              =    -584.52677362 Ry
     Harris-Foulkes estimate   =    -584.52677362 Ry
     estimated scf accuracy    <       0.00000006 Ry

     iteration # 28     ecut=    50.00 Ry     beta= 0.60
     Davidson diagonalization with overlap
     ethr =  9.67E-11,  avg # of iterations =  1.0

     total cpu time spent up to now is    48840.3 secs

     total energy              =    -584.52677362 Ry
     Harris-Foulkes estimate   =    -584.52677362 Ry
     estimated scf accuracy    <       0.00000002 Ry

     iteration # 29     ecut=    50.00 Ry     beta= 0.60
     Davidson diagonalization with overlap
     ethr =  2.85E-11,  avg # of iterations =  3.8

     total cpu time spent up to now is    48896.0 secs

     total energy              =    -584.52677362 Ry
     Harris-Foulkes estimate   =    -584.52677362 Ry
     estimated scf accuracy    <          4.8E-09 Ry

     iteration # 30     ecut=    50.00 Ry     beta= 0.60
     Davidson diagonalization with overlap
     ethr =  7.84E-12,  avg # of iterations =  1.9

     total cpu time spent up to now is    48939.0 secs

     total energy              =    -584.52677362 Ry
     Harris-Foulkes estimate   =    -584.52677362 Ry
     estimated scf accuracy    <          7.4E-10 Ry

     iteration # 31     ecut=    50.00 Ry     beta= 0.60
     Davidson diagonalization with overlap
     ethr =  1.21E-12,  avg # of iterations =  4.6

     total cpu time spent up to now is    48999.7 secs

     total energy              =    -584.52677362 Ry
     Harris-Foulkes estimate   =    -584.52677362 Ry
     estimated scf accuracy    <          1.1E-09 Ry

     iteration # 32     ecut=    50.00 Ry     beta= 0.60
     Davidson diagonalization with overlap
     ethr =  1.21E-12,  avg # of iterations =  2.6

     total cpu time spent up to now is    49041.7 secs

     total energy              =    -584.52677362 Ry
     Harris-Foulkes estimate   =    -584.52677362 Ry
     estimated scf accuracy    <          4.4E-11 Ry

     iteration # 33     ecut=    50.00 Ry     beta= 0.60
     Davidson diagonalization with overlap
     ethr =  1.00E-13,  avg # of iterations =  4.6

     total cpu time spent up to now is    49099.2 secs

     total energy              =    -584.52677362 Ry
     Harris-Foulkes estimate   =    -584.52677362 Ry
     estimated scf accuracy    <          7.1E-12 Ry

     iteration # 34     ecut=    50.00 Ry     beta= 0.60
     Davidson diagonalization with overlap
     ethr =  1.00E-13,  avg # of iterations =  1.0

     total cpu time spent up to now is    49137.5 secs

     total energy              =    -584.52677362 Ry
     Harris-Foulkes estimate   =    -584.52677362 Ry
     estimated scf accuracy    <          8.2E-12 Ry

     iteration # 35     ecut=    50.00 Ry     beta= 0.60
     Davidson diagonalization with overlap
     ethr =  1.00E-13,  avg # of iterations =  1.0

     total cpu time spent up to now is    49175.9 secs

     total energy              =    -584.52677362 Ry
     Harris-Foulkes estimate   =    -584.52677362 Ry
     estimated scf accuracy    <          3.1E-12 Ry

     iteration # 36     ecut=    50.00 Ry     beta= 0.60
     Davidson diagonalization with overlap
     ethr =  1.00E-13,  avg # of iterations =  1.0

     total cpu time spent up to now is    49214.3 secs

     End of self-consistent calculation

     Number of k-points >= 100: set verbosity='high' to print the bands.

     the Fermi energy is    14.1910 ev

!    total energy              =    -584.52677362 Ry
     Harris-Foulkes estimate   =    -584.52677362 Ry
     estimated scf accuracy    <          5.0E-13 Ry

     The total energy is the sum of the following terms:

     one-electron contribution =    -183.10434956 Ry
     hartree contribution      =     113.38733575 Ry
     xc contribution           =     -76.59913558 Ry
     ewald contribution        =    -438.21234688 Ry
     smearing contrib. (-TS)   =       0.00172264 Ry

     convergence has been achieved in  36 iterations

     Forces acting on atoms (cartesian axes, Ry/au):

     atom    1 type  2   force =     0.00002166    0.00002166   -0.00000842
     atom    2 type  2   force =     0.00000404    0.00000404   -0.00003209
     atom    3 type  2   force =    -0.00000404   -0.00000404    0.00003209
     atom    4 type  2   force =    -0.00002166   -0.00002166    0.00000842
     atom    5 type  1   force =     0.00000000    0.00000000    0.00000000

     Total force =     0.000064     Total SCF correction =     0.000002


     Computing stress (Cartesian axis) and pressure

          total   stress  (Ry/bohr**3)                   (kbar)     P=   -0.14
   0.00000031   0.00000023   0.00000059          0.04      0.03      0.09
   0.00000023   0.00000031   0.00000059          0.03      0.04      0.09
   0.00000059   0.00000059  -0.00000345          0.09      0.09     -0.51

 
     init_run     :     49.35s CPU     50.30s WALL (       2 calls)
     electrons    :  47505.25s CPU  48163.72s WALL (      45 calls)
     update_pot   :     75.23s CPU     75.54s WALL (      43 calls)
     forces       :    229.33s CPU    234.51s WALL (      45 calls)
     stress       :    670.03s CPU    684.81s WALL (      45 calls)

     Called by init_run:
     wfcinit      :     46.41s CPU     47.21s WALL (       2 calls)
     potinit      :      0.88s CPU      0.90s WALL (       2 calls)
     hinit0       :      1.59s CPU      1.61s WALL (       2 calls)

     Called by electrons:
     c_bands      :  41164.81s CPU  41619.31s WALL (     700 calls)
     sum_band     :   6121.77s CPU   6250.80s WALL (     700 calls)
     v_of_rho     :     51.28s CPU     51.77s WALL (     731 calls)
     newd         :    172.35s CPU    244.92s WALL (     731 calls)
     mix_rho      :      5.28s CPU      5.31s WALL (     700 calls)

     Called by c_bands:
     init_us_2    :    527.80s CPU    531.50s WALL (  746000 calls)
     cegterg      :  38169.71s CPU  38552.52s WALL (  350000 calls)

     Called by sum_band:
     sum_band:bec :     11.47s CPU     11.89s WALL (  350000 calls)
     addusdens    :    187.33s CPU    250.76s WALL (     700 calls)

     Called by *egterg:
     h_psi        :  28517.38s CPU  28858.71s WALL ( 1615564 calls)
     s_psi        :    973.58s CPU    975.71s WALL ( 1615564 calls)
     g_psi        :    193.49s CPU    198.44s WALL ( 1264564 calls)
     cdiaghg      :   4558.91s CPU   4572.52s WALL ( 1586064 calls)

     Called by h_psi:
     h_psi:pot    :  28436.50s CPU  28776.12s WALL ( 1615564 calls)
     h_psi:calbec :   1089.10s CPU   1097.09s WALL ( 1615564 calls)
     vloc_psi     :  26349.12s CPU  26673.05s WALL ( 1615564 calls)
     add_vuspsi   :    991.52s CPU    996.72s WALL ( 1615564 calls)

     General routines
     calbec       :   1562.80s CPU   1571.14s WALL ( 2078064 calls)
     fft          :     31.60s CPU     32.08s WALL (   10640 calls)
     ffts         :      0.84s CPU      0.89s WALL (    1431 calls)
     fftw         :  27789.94s CPU  28081.02s WALL (83160184 calls)
     interpolate  :      2.70s CPU      2.72s WALL (     731 calls)
 
     Parallel routines
     fft_scatt_xy :   4566.70s CPU   4609.71s WALL (83172255 calls)
     fft_scatt_yz :   4602.55s CPU   4637.37s WALL (83172255 calls)
 
     PWSCF        :    13h29m CPU       29h13m WALL

      40h
 
   This run was terminated on:   7:34:33   3Feb2020            

=------------------------------------------------------------------------------=
   JOB DONE.
=------------------------------------------------------------------------------=
