
     Program PWSCF v.6.3MaX starts on 25Feb2020 at 10:14:39 

     This program is part of the open-source Quantum ESPRESSO suite
     for quantum simulation of materials; please cite
         "P. Giannozzi et al., J. Phys.:Condens. Matter 21 395502 (2009);
         "P. Giannozzi et al., J. Phys.:Condens. Matter 29 465901 (2017);
          URL http://www.quantum-espresso.org", 
     in publications or presentations arising from this work. More details at
     http://www.quantum-espresso.org/quote

     Parallel version (MPI), running on     4 processors

     MPI processes distributed on     1 nodes
     R & G space division:  proc/nbgrp/npool/nimage =       4
     Waiting for input...
     Reading input from standard input

     Current dimensions of program PWSCF are:
     Max number of different atomic species (ntypx) = 10
     Max number of k-points (npk) =  40000
     Max angular momentum in pseudopotentials (lmaxx) =  3
     Message from routine iosys:
     minimal I/O required, wf_collect reset to FALSE

     Subspace diagonalization in iterative solution of the eigenvalue problem:
     a serial algorithm will be used

 
     Parallelization info
     --------------------
     sticks:   dense  smooth     PW     G-vecs:    dense   smooth      PW
     Min         933     371    112                34659     8740    1457
     Max         934     373    113                34662     8741    1460
     Sum        3735    1489    451               138645    34963    5837
 


     bravais-lattice index     =            0
     lattice parameter (alat)  =       1.8897  a.u.
     unit-cell volume          =     733.3418 (a.u.)^3
     number of atoms/cell      =            5
     number of atomic types    =            2
     number of electrons       =        63.00
     number of Kohn-Sham states=           38
     kinetic-energy cutoff     =      50.0000  Ry
     charge density cutoff     =     500.0000  Ry
     convergence threshold     =      1.0E-10
     mixing beta               =       0.6000
     number of iterations used =            8  plain     mixing
     Exchange-correlation      = SLA PW PBE PBE ( 1  4  3  4 0 0)
     nstep                     =           50


     celldm(1)=   1.889726  celldm(2)=   0.000000  celldm(3)=   0.000000
     celldm(4)=   0.000000  celldm(5)=   0.000000  celldm(6)=   0.000000

     crystal axes: (cart. coord. in units of alat)
               a(1) = (  -1.758031   1.758031   5.274095 )  
               a(2) = (  -1.758031   5.274095   1.758031 )  
               a(3) = (  -5.274095   1.758031   1.758031 )  

     reciprocal axes: (cart. coord. in units 2 pi/alat)
               b(1) = (  0.056882 -0.056882  0.227527 )  
               b(2) = (  0.056882  0.227527 -0.056882 )  
               b(3) = ( -0.227527 -0.056882 -0.056882 )  


     PseudoPot. # 1 for Nb read from file:
     ./Nb.pbe-nsp-van.UPF
     MD5 check sum: 0a22fc7fb0ba19a08ca5db297a5d2854
     Pseudo is Ultrasoft + core correction, Zval = 13.0
     Generated by new atomic code, or converted to UPF format
     Using radial grid of  887 points,  6 beta functions with: 
                l(1) =   0
                l(2) =   0
                l(3) =   1
                l(4) =   1
                l(5) =   2
                l(6) =   2
     Q(r) pseudized with  6 coefficients,  rinner =    1.000   1.000   1.000
                                                       1.000   1.000

     PseudoPot. # 2 for Ti read from file:
     ./Ti.pbe-sp-van_ak.UPF
     MD5 check sum: f98fea3e8887528921fefa5636a534ca
     Pseudo is Ultrasoft, Zval = 12.0
     Generated by new atomic code, or converted to UPF format
     Using radial grid of  851 points,  6 beta functions with: 
                l(1) =   0
                l(2) =   0
                l(3) =   1
                l(4) =   1
                l(5) =   2
                l(6) =   2
     Q(r) pseudized with  8 coefficients,  rinner =    1.000   1.000   1.000
                                                       1.000   1.000

     atomic species   valence    mass     pseudopotential
        Nb            13.00    92.90638     Nb( 1.00)
        Ti            12.00    47.86700     Ti( 1.00)

     12 Sym. Ops., with inversion, found ( 6 have fractional translation)



   Cartesian axes

     site n.     atom                  positions (alat units)
         1           Ti  tau(   1) = (  -3.5160633   3.5160633   3.5160633  )
         2           Nb  tau(   2) = (  -5.2740949   5.2740949   5.2740949  )
         3           Ti  tau(   3) = (  -7.0321265   7.0321265   7.0321265  )
         4           Nb  tau(   4) = (  -8.7901582   8.7901582   8.7901582  )
         5           Nb  tau(   5) = (  -1.7580316   1.7580316   1.7580316  )

     number of k points=   189  Marzari-Vanderbilt smearing, width (Ry)=  0.0200

     Number of k-points >= 100: set verbosity='high' to print them.

     Dense  grid:   138645 G-vectors     FFT dimensions: (  80,  80,  80)

     Smooth grid:    34963 G-vectors     FFT dimensions: (  50,  50,  50)

     Estimated max dynamical RAM per process >     254.56 MB

     Estimated total dynamical RAM >    1018.26 MB

     Initial potential from superposition of free atoms

     starting charge   60.99171, renormalised to   63.00000
     Starting wfcs are   59 randomized atomic wfcs

     total cpu time spent up to now is       13.9 secs

     Self-consistent Calculation

     iteration #  1     ecut=    50.00 Ry     beta= 0.60
     Davidson diagonalization with overlap
     ethr =  1.00E-02,  avg # of iterations =  3.0

     total cpu time spent up to now is       40.0 secs

     total energy              =    -567.18890973 Ry
     Harris-Foulkes estimate   =    -589.49185837 Ry
     estimated scf accuracy    <      28.06119400 Ry

     iteration #  2     ecut=    50.00 Ry     beta= 0.60
     Davidson diagonalization with overlap
     ethr =  1.00E-02,  avg # of iterations =  7.5

     total cpu time spent up to now is       86.2 secs

     total energy              =    -562.50198345 Ry
     Harris-Foulkes estimate   =    -617.06095178 Ry
     estimated scf accuracy    <     186.80413319 Ry

     iteration #  3     ecut=    50.00 Ry     beta= 0.60
     Davidson diagonalization with overlap
     ethr =  1.00E-02,  avg # of iterations =  3.2

     total cpu time spent up to now is      118.0 secs

     total energy              =    -588.09667650 Ry
     Harris-Foulkes estimate   =    -588.82737181 Ry
     estimated scf accuracy    <       8.38825156 Ry

     iteration #  4     ecut=    50.00 Ry     beta= 0.60
     Davidson diagonalization with overlap
     ethr =  1.00E-02,  avg # of iterations =  1.0

     total cpu time spent up to now is      138.1 secs

     total energy              =    -587.81650082 Ry
     Harris-Foulkes estimate   =    -588.14476213 Ry
     estimated scf accuracy    <       6.80169432 Ry

     iteration #  5     ecut=    50.00 Ry     beta= 0.60
     Davidson diagonalization with overlap
     ethr =  1.00E-02,  avg # of iterations =  1.0

     total cpu time spent up to now is      158.5 secs

     total energy              =    -586.48115041 Ry
     Harris-Foulkes estimate   =    -587.85583279 Ry
     estimated scf accuracy    <       5.88578154 Ry

     iteration #  6     ecut=    50.00 Ry     beta= 0.60
     Davidson diagonalization with overlap
     ethr =  9.34E-03,  avg # of iterations =  3.5

     total cpu time spent up to now is      181.4 secs

     total energy              =    -586.70809339 Ry
     Harris-Foulkes estimate   =    -586.82872389 Ry
     estimated scf accuracy    <       0.78279457 Ry

     iteration #  7     ecut=    50.00 Ry     beta= 0.60
     Davidson diagonalization with overlap
     ethr =  1.24E-03,  avg # of iterations =  5.0

     total cpu time spent up to now is      215.7 secs

     total energy              =    -586.68530091 Ry
     Harris-Foulkes estimate   =    -587.07048463 Ry
     estimated scf accuracy    <       1.56628826 Ry

     iteration #  8     ecut=    50.00 Ry     beta= 0.60
     Davidson diagonalization with overlap
     ethr =  1.24E-03,  avg # of iterations =  5.9

     total cpu time spent up to now is      246.6 secs

     total energy              =    -587.14416582 Ry
     Harris-Foulkes estimate   =    -587.12515455 Ry
     estimated scf accuracy    <       1.49507845 Ry

     iteration #  9     ecut=    50.00 Ry     beta= 0.60
     Davidson diagonalization with overlap
     ethr =  1.24E-03,  avg # of iterations =  1.1

     total cpu time spent up to now is      266.8 secs

     total energy              =    -586.99258587 Ry
     Harris-Foulkes estimate   =    -587.14762997 Ry
     estimated scf accuracy    <       1.67328865 Ry

     iteration # 10     ecut=    50.00 Ry     beta= 0.60
     Davidson diagonalization with overlap
     ethr =  1.24E-03,  avg # of iterations =  1.0

     total cpu time spent up to now is      286.8 secs

     total energy              =    -586.99011630 Ry
     Harris-Foulkes estimate   =    -587.01365606 Ry
     estimated scf accuracy    <       0.74148708 Ry

     iteration # 11     ecut=    50.00 Ry     beta= 0.60
     Davidson diagonalization with overlap
     ethr =  1.18E-03,  avg # of iterations =  1.0

     total cpu time spent up to now is      306.7 secs

     total energy              =    -586.97297818 Ry
     Harris-Foulkes estimate   =    -586.99551276 Ry
     estimated scf accuracy    <       0.55095157 Ry

     iteration # 12     ecut=    50.00 Ry     beta= 0.60
     Davidson diagonalization with overlap
     ethr =  8.75E-04,  avg # of iterations =  1.0

     total cpu time spent up to now is      326.7 secs

     total energy              =    -586.96412340 Ry
     Harris-Foulkes estimate   =    -586.97901448 Ry
     estimated scf accuracy    <       0.30421877 Ry

     iteration # 13     ecut=    50.00 Ry     beta= 0.60
     Davidson diagonalization with overlap
     ethr =  4.83E-04,  avg # of iterations =  3.1

     total cpu time spent up to now is      349.4 secs

     total energy              =    -586.97569847 Ry
     Harris-Foulkes estimate   =    -586.97530044 Ry
     estimated scf accuracy    <       0.08429424 Ry

     iteration # 14     ecut=    50.00 Ry     beta= 0.60
     Davidson diagonalization with overlap
     ethr =  1.34E-04,  avg # of iterations =  5.5

     total cpu time spent up to now is      377.5 secs

     total energy              =    -586.98525273 Ry
     Harris-Foulkes estimate   =    -586.98338526 Ry
     estimated scf accuracy    <       0.02298768 Ry

     iteration # 15     ecut=    50.00 Ry     beta= 0.60
     Davidson diagonalization with overlap
     ethr =  3.65E-05,  avg # of iterations =  2.6

     total cpu time spent up to now is      399.4 secs

     total energy              =    -586.96646185 Ry
     Harris-Foulkes estimate   =    -586.98585639 Ry
     estimated scf accuracy    <       0.04714513 Ry

     iteration # 16     ecut=    50.00 Ry     beta= 0.60
     Davidson diagonalization with overlap
     ethr =  3.65E-05,  avg # of iterations =  5.5

     total cpu time spent up to now is      435.1 secs

     total energy              =    -586.99085324 Ry
     Harris-Foulkes estimate   =    -587.01030511 Ry
     estimated scf accuracy    <       0.54291265 Ry

     iteration # 17     ecut=    50.00 Ry     beta= 0.60
     Davidson diagonalization with overlap
     ethr =  3.65E-05,  avg # of iterations =  1.0

     total cpu time spent up to now is      455.5 secs

     total energy              =    -586.99599368 Ry
     Harris-Foulkes estimate   =    -586.99333183 Ry
     estimated scf accuracy    <       0.29158775 Ry

     iteration # 18     ecut=    50.00 Ry     beta= 0.60
     Davidson diagonalization with overlap
     ethr =  3.65E-05,  avg # of iterations =  1.0

     total cpu time spent up to now is      475.9 secs

     total energy              =    -586.97618761 Ry
     Harris-Foulkes estimate   =    -586.99624822 Ry
     estimated scf accuracy    <       0.32679664 Ry

     iteration # 19     ecut=    50.00 Ry     beta= 0.60
     Davidson diagonalization with overlap
     ethr =  3.65E-05,  avg # of iterations =  5.3

     total cpu time spent up to now is      505.7 secs

     total energy              =    -586.98680165 Ry
     Harris-Foulkes estimate   =    -586.98441290 Ry
     estimated scf accuracy    <       0.03257698 Ry

     iteration # 20     ecut=    50.00 Ry     beta= 0.60
     Davidson diagonalization with overlap
     ethr =  3.65E-05,  avg # of iterations =  1.0

     total cpu time spent up to now is      526.1 secs

     total energy              =    -586.98665159 Ry
     Harris-Foulkes estimate   =    -586.98737560 Ry
     estimated scf accuracy    <       0.06985118 Ry

     iteration # 21     ecut=    50.00 Ry     beta= 0.60
     Davidson diagonalization with overlap
     ethr =  3.65E-05,  avg # of iterations =  1.0

     total cpu time spent up to now is      546.5 secs

     total energy              =    -586.98614584 Ry
     Harris-Foulkes estimate   =    -586.98672381 Ry
     estimated scf accuracy    <       0.06137150 Ry

     iteration # 22     ecut=    50.00 Ry     beta= 0.60
     Davidson diagonalization with overlap
     ethr =  3.65E-05,  avg # of iterations =  1.0

     total cpu time spent up to now is      566.9 secs

     total energy              =    -586.98615748 Ry
     Harris-Foulkes estimate   =    -586.98618433 Ry
     estimated scf accuracy    <       0.05607906 Ry

     iteration # 23     ecut=    50.00 Ry     beta= 0.60
     Davidson diagonalization with overlap
     ethr =  3.65E-05,  avg # of iterations =  1.0

     total cpu time spent up to now is      587.3 secs

     total energy              =    -586.98225952 Ry
     Harris-Foulkes estimate   =    -586.98619088 Ry
     estimated scf accuracy    <       0.05552169 Ry

     iteration # 24     ecut=    50.00 Ry     beta= 0.60
     Davidson diagonalization with overlap
     ethr =  3.65E-05,  avg # of iterations =  1.0

     total cpu time spent up to now is      607.7 secs

     total energy              =    -586.98186069 Ry
     Harris-Foulkes estimate   =    -586.98308103 Ry
     estimated scf accuracy    <       0.01637113 Ry

     iteration # 25     ecut=    50.00 Ry     beta= 0.60
     Davidson diagonalization with overlap
     ethr =  2.60E-05,  avg # of iterations =  2.4

     total cpu time spent up to now is      629.7 secs

     total energy              =    -586.98237879 Ry
     Harris-Foulkes estimate   =    -586.98250523 Ry
     estimated scf accuracy    <       0.00159705 Ry

     iteration # 26     ecut=    50.00 Ry     beta= 0.60
     Davidson diagonalization with overlap
     ethr =  2.53E-06,  avg # of iterations =  6.4

     total cpu time spent up to now is      663.6 secs

     total energy              =    -586.98269395 Ry
     Harris-Foulkes estimate   =    -586.98270039 Ry
     estimated scf accuracy    <       0.00013377 Ry

     iteration # 27     ecut=    50.00 Ry     beta= 0.60
     Davidson diagonalization with overlap
     ethr =  2.12E-07,  avg # of iterations =  3.0

     total cpu time spent up to now is      686.3 secs

     total energy              =    -586.98267121 Ry
     Harris-Foulkes estimate   =    -586.98270327 Ry
     estimated scf accuracy    <       0.00025623 Ry

     iteration # 28     ecut=    50.00 Ry     beta= 0.60
     Davidson diagonalization with overlap
     ethr =  2.12E-07,  avg # of iterations =  1.2

     total cpu time spent up to now is      706.9 secs

     total energy              =    -586.98268032 Ry
     Harris-Foulkes estimate   =    -586.98268363 Ry
     estimated scf accuracy    <       0.00001530 Ry

     iteration # 29     ecut=    50.00 Ry     beta= 0.60
     Davidson diagonalization with overlap
     ethr =  2.43E-08,  avg # of iterations =  4.4

     total cpu time spent up to now is      736.8 secs

     total energy              =    -586.98267976 Ry
     Harris-Foulkes estimate   =    -586.98268847 Ry
     estimated scf accuracy    <       0.00004849 Ry

     iteration # 30     ecut=    50.00 Ry     beta= 0.60
     Davidson diagonalization with overlap
     ethr =  2.43E-08,  avg # of iterations =  4.2

     total cpu time spent up to now is      765.6 secs

     total energy              =    -586.98268522 Ry
     Harris-Foulkes estimate   =    -586.98268618 Ry
     estimated scf accuracy    <       0.00001307 Ry

     iteration # 31     ecut=    50.00 Ry     beta= 0.60
     Davidson diagonalization with overlap
     ethr =  2.08E-08,  avg # of iterations =  1.0

     total cpu time spent up to now is      786.0 secs

     total energy              =    -586.98268479 Ry
     Harris-Foulkes estimate   =    -586.98268542 Ry
     estimated scf accuracy    <       0.00000699 Ry

     iteration # 32     ecut=    50.00 Ry     beta= 0.60
     Davidson diagonalization with overlap
     ethr =  1.11E-08,  avg # of iterations =  1.9

     total cpu time spent up to now is      807.2 secs

     total energy              =    -586.98268490 Ry
     Harris-Foulkes estimate   =    -586.98268505 Ry
     estimated scf accuracy    <       0.00000166 Ry

     iteration # 33     ecut=    50.00 Ry     beta= 0.60
     Davidson diagonalization with overlap
     ethr =  2.63E-09,  avg # of iterations =  4.0

     total cpu time spent up to now is      834.1 secs

     total energy              =    -586.98268511 Ry
     Harris-Foulkes estimate   =    -586.98268515 Ry
     estimated scf accuracy    <       0.00000026 Ry

     iteration # 34     ecut=    50.00 Ry     beta= 0.60
     Davidson diagonalization with overlap
     ethr =  4.08E-10,  avg # of iterations =  2.3

     total cpu time spent up to now is      856.0 secs

     total energy              =    -586.98268511 Ry
     Harris-Foulkes estimate   =    -586.98268513 Ry
     estimated scf accuracy    <       0.00000010 Ry

     iteration # 35     ecut=    50.00 Ry     beta= 0.60
     Davidson diagonalization with overlap
     ethr =  1.53E-10,  avg # of iterations =  3.4

     total cpu time spent up to now is      880.9 secs

     total energy              =    -586.98268513 Ry
     Harris-Foulkes estimate   =    -586.98268513 Ry
     estimated scf accuracy    <       0.00000005 Ry

     iteration # 36     ecut=    50.00 Ry     beta= 0.60
     Davidson diagonalization with overlap
     ethr =  7.56E-11,  avg # of iterations =  1.2

     total cpu time spent up to now is      901.5 secs

     total energy              =    -586.98268513 Ry
     Harris-Foulkes estimate   =    -586.98268513 Ry
     estimated scf accuracy    <       0.00000001 Ry

     iteration # 37     ecut=    50.00 Ry     beta= 0.60
     Davidson diagonalization with overlap
     ethr =  2.04E-11,  avg # of iterations =  3.2

     total cpu time spent up to now is      925.5 secs

     total energy              =    -586.98268513 Ry
     Harris-Foulkes estimate   =    -586.98268513 Ry
     estimated scf accuracy    <          2.8E-10 Ry

     iteration # 38     ecut=    50.00 Ry     beta= 0.60
     Davidson diagonalization with overlap
     ethr =  4.45E-13,  avg # of iterations =  5.1

     total cpu time spent up to now is      957.8 secs

     total energy              =    -586.98268513 Ry
     Harris-Foulkes estimate   =    -586.98268513 Ry
     estimated scf accuracy    <          2.2E-10 Ry

     iteration # 39     ecut=    50.00 Ry     beta= 0.60
     Davidson diagonalization with overlap
     ethr =  3.54E-13,  avg # of iterations =  1.0

     total cpu time spent up to now is      978.2 secs

     End of self-consistent calculation

     Number of k-points >= 100: set verbosity='high' to print the bands.

     the Fermi energy is    12.6226 ev

!    total energy              =    -586.98268513 Ry
     Harris-Foulkes estimate   =    -586.98268513 Ry
     estimated scf accuracy    <          3.8E-11 Ry

     The total energy is the sum of the following terms:

     one-electron contribution =    -175.21022029 Ry
     hartree contribution      =     106.79480004 Ry
     xc contribution           =     -83.49251435 Ry
     ewald contribution        =    -435.07315947 Ry
     smearing contrib. (-TS)   =      -0.00159106 Ry

     convergence has been achieved in  39 iterations

     Forces acting on atoms (cartesian axes, Ry/au):

     atom    1 type  2   force =     0.00286524   -0.00286524   -0.00286524
     atom    2 type  1   force =     0.00000000    0.00000000    0.00000000
     atom    3 type  2   force =    -0.00286524    0.00286524    0.00286524
     atom    4 type  1   force =    -0.00544079    0.00544079    0.00544079
     atom    5 type  1   force =     0.00544079   -0.00544079   -0.00544079

     Total force =     0.015062     Total SCF correction =     0.000006


     Computing stress (Cartesian axis) and pressure

          total   stress  (Ry/bohr**3)                   (kbar)     P= -203.63
  -0.00138425  -0.00000354  -0.00000354       -203.63     -0.52     -0.52
  -0.00000354  -0.00138425   0.00000354         -0.52   -203.63      0.52
  -0.00000354   0.00000354  -0.00138425         -0.52      0.52   -203.63


     BFGS Geometry Optimization

     number of scf cycles    =   1
     number of bfgs steps    =   0

     enthalpy new            =    -586.9826851270 Ry

     new trust radius        =       0.1874309922 bohr
     new conv_thr            =            1.0E-10 Ry

     new unit-cell volume =    659.81140 a.u.^3 (    97.77396 Ang^3 )
     density =      6.35951 g/cm^3

CELL_PARAMETERS (alat=  1.88972599)
  -1.697815543   1.697815543   5.091889049
  -1.697815543   5.091889049   1.697815543
  -5.091889049   1.697815543   1.697815543

ATOMIC_POSITIONS (angstrom)
Ti      -3.393544035   3.393544035   3.393544035
Nb      -5.092512081   5.092512081   5.092512081
Ti      -6.791480126   6.791480126   6.791480126
Nb      -8.490300151   8.490300151   8.490300151
Nb      -1.694724010   1.694724010   1.694724010


     NEW-OLD atomic charge density approx. for the potential
     extrapolated charge   56.20299, renormalised to   63.00000

     total cpu time spent up to now is      990.2 secs

     Self-consistent Calculation

     iteration #  1     ecut=    50.00 Ry     beta= 0.60
     Davidson diagonalization with overlap
     c_bands:  1 eigenvalues not converged
     c_bands:  1 eigenvalues not converged
     c_bands:  1 eigenvalues not converged
     c_bands:  1 eigenvalues not converged
     c_bands:  1 eigenvalues not converged
     c_bands:  1 eigenvalues not converged
     c_bands:  1 eigenvalues not converged
     c_bands:  1 eigenvalues not converged
     c_bands:  1 eigenvalues not converged
     c_bands:  1 eigenvalues not converged
     c_bands:  1 eigenvalues not converged
     c_bands:  1 eigenvalues not converged
     c_bands:  1 eigenvalues not converged
     c_bands:  1 eigenvalues not converged
     c_bands:  1 eigenvalues not converged
     c_bands:  1 eigenvalues not converged
     c_bands:  1 eigenvalues not converged
     c_bands:  1 eigenvalues not converged
     c_bands:  1 eigenvalues not converged
     c_bands:  1 eigenvalues not converged
     c_bands:  1 eigenvalues not converged
     c_bands:  1 eigenvalues not converged
     c_bands:  1 eigenvalues not converged
     ethr =  1.00E-06,  avg # of iterations = 16.3

     total cpu time spent up to now is     1074.0 secs

     total energy              =    -546.76763210 Ry
     Harris-Foulkes estimate   =    -600.43025986 Ry
     estimated scf accuracy    <      45.92178419 Ry

     iteration #  2     ecut=    50.00 Ry     beta= 0.60
     Davidson diagonalization with overlap
     ethr =  1.00E-02,  avg # of iterations =  5.6

     total cpu time spent up to now is     1115.9 secs

     total energy              =    -572.61596002 Ry
     Harris-Foulkes estimate   =    -646.05130050 Ry
     estimated scf accuracy    <     233.54233561 Ry

     iteration #  3     ecut=    50.00 Ry     beta= 0.60
     Davidson diagonalization with overlap
     ethr =  1.00E-02,  avg # of iterations =  5.0

     total cpu time spent up to now is     1154.3 secs

     total energy              =    -590.30976051 Ry
     Harris-Foulkes estimate   =    -593.91567800 Ry
     estimated scf accuracy    <      17.49211022 Ry

     iteration #  4     ecut=    50.00 Ry     beta= 0.60
     Davidson diagonalization with overlap
     ethr =  1.00E-02,  avg # of iterations =  1.0

     total cpu time spent up to now is     1174.9 secs

     total energy              =    -589.68431142 Ry
     Harris-Foulkes estimate   =    -590.65070633 Ry
     estimated scf accuracy    <      12.57696059 Ry

     iteration #  5     ecut=    50.00 Ry     beta= 0.60
     Davidson diagonalization with overlap
     ethr =  1.00E-02,  avg # of iterations =  1.0

     total cpu time spent up to now is     1195.2 secs

     total energy              =    -587.05694982 Ry
     Harris-Foulkes estimate   =    -589.82706640 Ry
     estimated scf accuracy    <      10.02551929 Ry

     iteration #  6     ecut=    50.00 Ry     beta= 0.60
     Davidson diagonalization with overlap
     ethr =  1.00E-02,  avg # of iterations =  1.1

     total cpu time spent up to now is     1215.7 secs

     total energy              =    -587.20574097 Ry
     Harris-Foulkes estimate   =    -587.32949293 Ry
     estimated scf accuracy    <       4.54982054 Ry

     iteration #  7     ecut=    50.00 Ry     beta= 0.60
     Davidson diagonalization with overlap
     ethr =  7.22E-03,  avg # of iterations =  1.5

     total cpu time spent up to now is     1236.5 secs

     total energy              =    -587.24905590 Ry
     Harris-Foulkes estimate   =    -587.30220738 Ry
     estimated scf accuracy    <       3.90237793 Ry

     iteration #  8     ecut=    50.00 Ry     beta= 0.60
     Davidson diagonalization with overlap
     ethr =  6.19E-03,  avg # of iterations =  1.1

     total cpu time spent up to now is     1257.0 secs

     total energy              =    -586.95791161 Ry
     Harris-Foulkes estimate   =    -587.30193794 Ry
     estimated scf accuracy    <       3.28752683 Ry

     iteration #  9     ecut=    50.00 Ry     beta= 0.60
     Davidson diagonalization with overlap
     ethr =  5.22E-03,  avg # of iterations =  3.1

     total cpu time spent up to now is     1279.7 secs

     total energy              =    -587.05760018 Ry
     Harris-Foulkes estimate   =    -587.09803549 Ry
     estimated scf accuracy    <       1.33545298 Ry

     iteration # 10     ecut=    50.00 Ry     beta= 0.60
     Davidson diagonalization with overlap
     ethr =  2.12E-03,  avg # of iterations =  4.2

     total cpu time spent up to now is     1304.2 secs

     total energy              =    -586.65819189 Ry
     Harris-Foulkes estimate   =    -587.13030399 Ry
     estimated scf accuracy    <       0.65402805 Ry

     iteration # 11     ecut=    50.00 Ry     beta= 0.60
     Davidson diagonalization with overlap
     ethr =  1.04E-03,  avg # of iterations =  4.9

     total cpu time spent up to now is     1340.6 secs

     total energy              =    -587.05699107 Ry
     Harris-Foulkes estimate   =    -588.68109712 Ry
     estimated scf accuracy    <      29.77824943 Ry

     iteration # 12     ecut=    50.00 Ry     beta= 0.60
     Davidson diagonalization with overlap
     ethr =  1.04E-03,  avg # of iterations =  4.2

     total cpu time spent up to now is     1368.7 secs

     total energy              =    -587.64198278 Ry
     Harris-Foulkes estimate   =    -587.50894031 Ry
     estimated scf accuracy    <       7.30680333 Ry

     iteration # 13     ecut=    50.00 Ry     beta= 0.60
     Davidson diagonalization with overlap
     ethr =  1.04E-03,  avg # of iterations =  1.0

     total cpu time spent up to now is     1389.1 secs

     total energy              =    -586.93762730 Ry
     Harris-Foulkes estimate   =    -587.65107367 Ry
     estimated scf accuracy    <       9.03859766 Ry

     iteration # 14     ecut=    50.00 Ry     beta= 0.60
     Davidson diagonalization with overlap
     ethr =  1.04E-03,  avg # of iterations =  4.3

     total cpu time spent up to now is     1416.2 secs

     total energy              =    -587.01690104 Ry
     Harris-Foulkes estimate   =    -587.19688599 Ry
     estimated scf accuracy    <       1.32609905 Ry

     iteration # 15     ecut=    50.00 Ry     beta= 0.60
     Davidson diagonalization with overlap
     ethr =  1.04E-03,  avg # of iterations =  5.0

     total cpu time spent up to now is     1443.8 secs

     total energy              =    -587.41368721 Ry
     Harris-Foulkes estimate   =    -587.19906817 Ry
     estimated scf accuracy    <       0.53284294 Ry

     iteration # 16     ecut=    50.00 Ry     beta= 0.60
     Davidson diagonalization with overlap
     ethr =  8.46E-04,  avg # of iterations =  4.3

     total cpu time spent up to now is     1468.7 secs

     total energy              =    -587.45219240 Ry
     Harris-Foulkes estimate   =    -587.46803622 Ry
     estimated scf accuracy    <       1.57856393 Ry

     iteration # 17     ecut=    50.00 Ry     beta= 0.60
     Davidson diagonalization with overlap
     ethr =  8.46E-04,  avg # of iterations =  1.1

     total cpu time spent up to now is     1489.1 secs

     total energy              =    -587.03763293 Ry
     Harris-Foulkes estimate   =    -587.45750494 Ry
     estimated scf accuracy    <       1.57065312 Ry

     iteration # 18     ecut=    50.00 Ry     beta= 0.60
     Davidson diagonalization with overlap
     ethr =  8.46E-04,  avg # of iterations =  3.3

     total cpu time spent up to now is     1512.9 secs

     total energy              =    -587.10958351 Ry
     Harris-Foulkes estimate   =    -587.10684723 Ry
     estimated scf accuracy    <       0.28550602 Ry

     iteration # 19     ecut=    50.00 Ry     beta= 0.60
     Davidson diagonalization with overlap
     ethr =  4.53E-04,  avg # of iterations =  1.8

     total cpu time spent up to now is     1533.9 secs

     total energy              =    -587.12059562 Ry
     Harris-Foulkes estimate   =    -587.11543974 Ry
     estimated scf accuracy    <       0.34150550 Ry

     iteration # 20     ecut=    50.00 Ry     beta= 0.60
     Davidson diagonalization with overlap
     ethr =  4.53E-04,  avg # of iterations =  1.0

     total cpu time spent up to now is     1554.1 secs

     total energy              =    -587.02735970 Ry
     Harris-Foulkes estimate   =    -587.12465118 Ry
     estimated scf accuracy    <       0.43676286 Ry

     iteration # 21     ecut=    50.00 Ry     beta= 0.60
     Davidson diagonalization with overlap
     ethr =  4.53E-04,  avg # of iterations =  3.4

     total cpu time spent up to now is     1580.8 secs

     total energy              =    -587.04972936 Ry
     Harris-Foulkes estimate   =    -587.07081710 Ry
     estimated scf accuracy    <       0.06085880 Ry

     iteration # 22     ecut=    50.00 Ry     beta= 0.60
     Davidson diagonalization with overlap
     ethr =  9.66E-05,  avg # of iterations =  5.5

     total cpu time spent up to now is     1613.7 secs

     total energy              =    -587.05398149 Ry
     Harris-Foulkes estimate   =    -587.07627491 Ry
     estimated scf accuracy    <       0.16672076 Ry

     iteration # 23     ecut=    50.00 Ry     beta= 0.60
     Davidson diagonalization with overlap
     ethr =  9.66E-05,  avg # of iterations =  3.2

     total cpu time spent up to now is     1636.5 secs

     total energy              =    -587.06361710 Ry
     Harris-Foulkes estimate   =    -587.06394103 Ry
     estimated scf accuracy    <       0.00145817 Ry

     iteration # 24     ecut=    50.00 Ry     beta= 0.60
     Davidson diagonalization with overlap
     ethr =  2.31E-06,  avg # of iterations =  6.4

     total cpu time spent up to now is     1674.8 secs

     total energy              =    -587.06611184 Ry
     Harris-Foulkes estimate   =    -587.06666063 Ry
     estimated scf accuracy    <       0.01013529 Ry

     iteration # 25     ecut=    50.00 Ry     beta= 0.60
     Davidson diagonalization with overlap
     ethr =  2.31E-06,  avg # of iterations =  1.0

     total cpu time spent up to now is     1695.1 secs

     total energy              =    -587.06602892 Ry
     Harris-Foulkes estimate   =    -587.06620208 Ry
     estimated scf accuracy    <       0.00464706 Ry

     iteration # 26     ecut=    50.00 Ry     beta= 0.60
     Davidson diagonalization with overlap
     ethr =  2.31E-06,  avg # of iterations =  2.1

     total cpu time spent up to now is     1716.4 secs

     total energy              =    -587.06573967 Ry
     Harris-Foulkes estimate   =    -587.06606807 Ry
     estimated scf accuracy    <       0.00261963 Ry

     iteration # 27     ecut=    50.00 Ry     beta= 0.60
     Davidson diagonalization with overlap
     ethr =  2.31E-06,  avg # of iterations =  4.8

     total cpu time spent up to now is     1742.2 secs

     total energy              =    -587.06595502 Ry
     Harris-Foulkes estimate   =    -587.06595455 Ry
     estimated scf accuracy    <       0.00000725 Ry

     iteration # 28     ecut=    50.00 Ry     beta= 0.60
     Davidson diagonalization with overlap
     ethr =  1.15E-08,  avg # of iterations =  5.7

     total cpu time spent up to now is     1778.7 secs

     total energy              =    -587.06596637 Ry
     Harris-Foulkes estimate   =    -587.06599301 Ry
     estimated scf accuracy    <       0.00019211 Ry

     iteration # 29     ecut=    50.00 Ry     beta= 0.60
     Davidson diagonalization with overlap
     ethr =  1.15E-08,  avg # of iterations =  4.9

     total cpu time spent up to now is     1809.9 secs

     total energy              =    -587.06598018 Ry
     Harris-Foulkes estimate   =    -587.06598025 Ry
     estimated scf accuracy    <       0.00000151 Ry

     iteration # 30     ecut=    50.00 Ry     beta= 0.60
     Davidson diagonalization with overlap
     ethr =  2.39E-09,  avg # of iterations =  1.1

     total cpu time spent up to now is     1830.3 secs

     total energy              =    -587.06598011 Ry
     Harris-Foulkes estimate   =    -587.06598023 Ry
     estimated scf accuracy    <       0.00000106 Ry

     iteration # 31     ecut=    50.00 Ry     beta= 0.60
     Davidson diagonalization with overlap
     ethr =  1.69E-09,  avg # of iterations =  1.1

     total cpu time spent up to now is     1850.7 secs

     total energy              =    -587.06598013 Ry
     Harris-Foulkes estimate   =    -587.06598015 Ry
     estimated scf accuracy    <       0.00000018 Ry

     iteration # 32     ecut=    50.00 Ry     beta= 0.60
     Davidson diagonalization with overlap
     ethr =  2.78E-10,  avg # of iterations =  4.1

     total cpu time spent up to now is     1878.5 secs

     total energy              =    -587.06598016 Ry
     Harris-Foulkes estimate   =    -587.06598017 Ry
     estimated scf accuracy    <       0.00000005 Ry

     iteration # 33     ecut=    50.00 Ry     beta= 0.60
     Davidson diagonalization with overlap
     ethr =  8.09E-11,  avg # of iterations =  1.2

     total cpu time spent up to now is     1899.0 secs

     total energy              =    -587.06598016 Ry
     Harris-Foulkes estimate   =    -587.06598016 Ry
     estimated scf accuracy    <       0.00000001 Ry

     iteration # 34     ecut=    50.00 Ry     beta= 0.60
     Davidson diagonalization with overlap
     ethr =  2.05E-11,  avg # of iterations =  4.2

     total cpu time spent up to now is     1927.5 secs

     total energy              =    -587.06598016 Ry
     Harris-Foulkes estimate   =    -587.06598017 Ry
     estimated scf accuracy    <       0.00000004 Ry

     iteration # 35     ecut=    50.00 Ry     beta= 0.60
     Davidson diagonalization with overlap
     ethr =  2.05E-11,  avg # of iterations =  1.7

     total cpu time spent up to now is     1948.5 secs

     total energy              =    -587.06598016 Ry
     Harris-Foulkes estimate   =    -587.06598016 Ry
     estimated scf accuracy    <          8.0E-09 Ry

     iteration # 36     ecut=    50.00 Ry     beta= 0.60
     Davidson diagonalization with overlap
     ethr =  1.27E-11,  avg # of iterations =  3.7

     total cpu time spent up to now is     1973.3 secs

     total energy              =    -587.06598016 Ry
     Harris-Foulkes estimate   =    -587.06598016 Ry
     estimated scf accuracy    <          1.5E-10 Ry

     iteration # 37     ecut=    50.00 Ry     beta= 0.60
     Davidson diagonalization with overlap
     ethr =  2.33E-13,  avg # of iterations =  5.1

     total cpu time spent up to now is     2004.8 secs

     total energy              =    -587.06598016 Ry
     Harris-Foulkes estimate   =    -587.06598016 Ry
     estimated scf accuracy    <          1.8E-10 Ry

     iteration # 38     ecut=    50.00 Ry     beta= 0.60
     Davidson diagonalization with overlap
     ethr =  2.33E-13,  avg # of iterations =  1.0

     total cpu time spent up to now is     2025.1 secs

     End of self-consistent calculation

     Number of k-points >= 100: set verbosity='high' to print the bands.

     the Fermi energy is    14.3504 ev

!    total energy              =    -587.06598016 Ry
     Harris-Foulkes estimate   =    -587.06598016 Ry
     estimated scf accuracy    <          3.4E-11 Ry

     The total energy is the sum of the following terms:

     one-electron contribution =    -152.33939866 Ry
     hartree contribution      =      99.87484864 Ry
     xc contribution           =     -83.92781295 Ry
     ewald contribution        =    -450.67205696 Ry
     smearing contrib. (-TS)   =      -0.00156024 Ry

     convergence has been achieved in  38 iterations

     Forces acting on atoms (cartesian axes, Ry/au):

     atom    1 type  2   force =     0.00161523   -0.00161523   -0.00161523
     atom    2 type  1   force =     0.00000000    0.00000000    0.00000000
     atom    3 type  2   force =    -0.00161523    0.00161523    0.00161523
     atom    4 type  1   force =    -0.00732270    0.00732270    0.00732270
     atom    5 type  1   force =     0.00732270   -0.00732270   -0.00732270

     Total force =     0.018368     Total SCF correction =     0.000005


     Computing stress (Cartesian axis) and pressure

          total   stress  (Ry/bohr**3)                   (kbar)     P= -120.52
  -0.00081931   0.00000238   0.00000238       -120.52      0.35      0.35
   0.00000238  -0.00081931  -0.00000238          0.35   -120.52     -0.35
   0.00000238  -0.00000238  -0.00081931          0.35     -0.35   -120.52


     number of scf cycles    =   2
     number of bfgs steps    =   1

     enthalpy old            =    -586.9826851270 Ry
     enthalpy new            =    -587.0659801644 Ry

     CASE: enthalpy_new < enthalpy_old

     new trust radius        =       0.2280701954 bohr
     new conv_thr            =            1.0E-10 Ry

     new unit-cell volume =    575.77954 a.u.^3 (    85.32172 Ang^3 )
     density =      7.28764 g/cm^3

CELL_PARAMETERS (alat=  1.88972599)
  -1.621629491   1.621629491   4.865432498
  -1.621629491   4.865432498   1.621629491
  -4.865432498   1.621629491   1.621629491

ATOMIC_POSITIONS (angstrom)
Ti      -3.240368564   3.240368564   3.240368564
Nb      -4.865214888   4.865214888   4.865214888
Ti      -6.490061212   6.490061212   6.490061212
Nb      -8.119079196   8.119079196   8.119079196
Nb      -1.611350580   1.611350580   1.611350580


     NEW-OLD atomic charge density approx. for the potential
     extrapolated charge   54.09860, renormalised to   63.00000

     total cpu time spent up to now is     2038.1 secs

     Self-consistent Calculation

     iteration #  1     ecut=    50.00 Ry     beta= 0.60
     Davidson diagonalization with overlap
     c_bands:  1 eigenvalues not converged
     c_bands:  1 eigenvalues not converged
     c_bands:  1 eigenvalues not converged
     c_bands:  1 eigenvalues not converged
     c_bands:  1 eigenvalues not converged
     c_bands:  1 eigenvalues not converged
     c_bands:  1 eigenvalues not converged
     c_bands:  1 eigenvalues not converged
     c_bands:  2 eigenvalues not converged
     c_bands:  1 eigenvalues not converged
     c_bands:  1 eigenvalues not converged
     c_bands:  1 eigenvalues not converged
     c_bands:  2 eigenvalues not converged
     c_bands:  1 eigenvalues not converged
     c_bands:  1 eigenvalues not converged
     c_bands:  1 eigenvalues not converged
     c_bands:  1 eigenvalues not converged
     c_bands:  2 eigenvalues not converged
     c_bands:  1 eigenvalues not converged
     c_bands:  1 eigenvalues not converged
     c_bands:  1 eigenvalues not converged
     c_bands:  2 eigenvalues not converged
     c_bands:  1 eigenvalues not converged
     c_bands:  2 eigenvalues not converged
     c_bands:  1 eigenvalues not converged
     c_bands:  1 eigenvalues not converged
     ethr =  1.00E-06,  avg # of iterations = 16.1

     total cpu time spent up to now is     2118.9 secs

     total energy              =    -538.36957133 Ry
     Harris-Foulkes estimate   =    -602.27025316 Ry
     estimated scf accuracy    <      54.86932526 Ry

     iteration #  2     ecut=    50.00 Ry     beta= 0.60
     Davidson diagonalization with overlap
     ethr =  1.00E-02,  avg # of iterations =  5.8

     total cpu time spent up to now is     2160.8 secs

     total energy              =    -572.84042827 Ry
     Harris-Foulkes estimate   =    -654.44181694 Ry
     estimated scf accuracy    <     251.38995989 Ry

     iteration #  3     ecut=    50.00 Ry     beta= 0.60
     Davidson diagonalization with overlap
     ethr =  1.00E-02,  avg # of iterations =  5.0

     total cpu time spent up to now is     2199.7 secs

     total energy              =    -590.64852795 Ry
     Harris-Foulkes estimate   =    -595.00795598 Ry
     estimated scf accuracy    <      20.15248185 Ry

     iteration #  4     ecut=    50.00 Ry     beta= 0.60
     Davidson diagonalization with overlap
     ethr =  1.00E-02,  avg # of iterations =  2.0

     total cpu time spent up to now is     2221.3 secs

     total energy              =    -589.89472528 Ry
     Harris-Foulkes estimate   =    -591.08694880 Ry
     estimated scf accuracy    <      13.52314533 Ry

     iteration #  5     ecut=    50.00 Ry     beta= 0.60
     Davidson diagonalization with overlap
     ethr =  1.00E-02,  avg # of iterations =  1.0

     total cpu time spent up to now is     2241.6 secs

     total energy              =    -587.30421734 Ry
     Harris-Foulkes estimate   =    -590.04412235 Ry
     estimated scf accuracy    <      10.51907294 Ry

     iteration #  6     ecut=    50.00 Ry     beta= 0.60
     Davidson diagonalization with overlap
     ethr =  1.00E-02,  avg # of iterations =  1.0

     total cpu time spent up to now is     2262.0 secs

     total energy              =    -587.34277786 Ry
     Harris-Foulkes estimate   =    -587.56323493 Ry
     estimated scf accuracy    <       4.98847849 Ry

     iteration #  7     ecut=    50.00 Ry     beta= 0.60
     Davidson diagonalization with overlap
     ethr =  7.92E-03,  avg # of iterations =  1.4

     total cpu time spent up to now is     2282.7 secs

     total energy              =    -587.43919721 Ry
     Harris-Foulkes estimate   =    -587.44688940 Ry
     estimated scf accuracy    <       4.12102924 Ry

     iteration #  8     ecut=    50.00 Ry     beta= 0.60
     Davidson diagonalization with overlap
     ethr =  6.54E-03,  avg # of iterations =  1.0

     total cpu time spent up to now is     2303.0 secs

     total energy              =    -587.01110860 Ry
     Harris-Foulkes estimate   =    -587.49075156 Ry
     estimated scf accuracy    <       3.63064255 Ry

     iteration #  9     ecut=    50.00 Ry     beta= 0.60
     Davidson diagonalization with overlap
     ethr =  5.76E-03,  avg # of iterations =  3.0

     total cpu time spent up to now is     2325.9 secs

     total energy              =    -587.18565388 Ry
     Harris-Foulkes estimate   =    -587.18762269 Ry
     estimated scf accuracy    <       1.17217733 Ry

     iteration # 10     ecut=    50.00 Ry     beta= 0.60
     Davidson diagonalization with overlap
     ethr =  1.86E-03,  avg # of iterations =  3.7

     total cpu time spent up to now is     2349.4 secs

     total energy              =    -586.65074136 Ry
     Harris-Foulkes estimate   =    -587.22125773 Ry
     estimated scf accuracy    <       0.94371011 Ry

     iteration # 11     ecut=    50.00 Ry     beta= 0.60
     Davidson diagonalization with overlap
     ethr =  1.50E-03,  avg # of iterations =  4.0

     total cpu time spent up to now is     2383.8 secs

     total energy              =    -587.62784976 Ry
     Harris-Foulkes estimate   =    -587.93035257 Ry
     estimated scf accuracy    <      12.79995858 Ry

     iteration # 12     ecut=    50.00 Ry     beta= 0.60
     Davidson diagonalization with overlap
     ethr =  1.50E-03,  avg # of iterations =  1.0

     total cpu time spent up to now is     2404.1 secs

     total energy              =    -587.87651850 Ry
     Harris-Foulkes estimate   =    -587.65188589 Ry
     estimated scf accuracy    <       9.34792996 Ry

     iteration # 13     ecut=    50.00 Ry     beta= 0.60
     Davidson diagonalization with overlap
     ethr =  1.50E-03,  avg # of iterations =  1.0

     total cpu time spent up to now is     2424.4 secs

     total energy              =    -586.41465619 Ry
     Harris-Foulkes estimate   =    -587.89243665 Ry
     estimated scf accuracy    <      11.98520999 Ry

     iteration # 14     ecut=    50.00 Ry     beta= 0.60
     Davidson diagonalization with overlap
     ethr =  1.50E-03,  avg # of iterations =  4.5

     total cpu time spent up to now is     2455.4 secs

     total energy              =    -587.08850578 Ry
     Harris-Foulkes estimate   =    -587.17189407 Ry
     estimated scf accuracy    <       0.32779736 Ry

     iteration # 15     ecut=    50.00 Ry     beta= 0.60
     Davidson diagonalization with overlap
     ethr =  5.20E-04,  avg # of iterations =  5.4

     total cpu time spent up to now is     2486.4 secs

     total energy              =    -587.26084910 Ry
     Harris-Foulkes estimate   =    -587.23943139 Ry
     estimated scf accuracy    <       0.98178065 Ry

     iteration # 16     ecut=    50.00 Ry     beta= 0.60
     Davidson diagonalization with overlap
     ethr =  5.20E-04,  avg # of iterations =  1.1

     total cpu time spent up to now is     2506.8 secs

     total energy              =    -587.32560334 Ry
     Harris-Foulkes estimate   =    -587.26418841 Ry
     estimated scf accuracy    <       1.18814034 Ry

     iteration # 17     ecut=    50.00 Ry     beta= 0.60
     Davidson diagonalization with overlap
     ethr =  5.20E-04,  avg # of iterations =  1.0

     total cpu time spent up to now is     2527.0 secs

     total energy              =    -587.10353555 Ry
     Harris-Foulkes estimate   =    -587.32869407 Ry
     estimated scf accuracy    <       1.44033488 Ry

     iteration # 18     ecut=    50.00 Ry     beta= 0.60
     Davidson diagonalization with overlap
     ethr =  5.20E-04,  avg # of iterations =  2.4

     total cpu time spent up to now is     2548.8 secs

     total energy              =    -587.09291236 Ry
     Harris-Foulkes estimate   =    -587.13171691 Ry
     estimated scf accuracy    <       0.61747735 Ry

     iteration # 19     ecut=    50.00 Ry     beta= 0.60
     Davidson diagonalization with overlap
     ethr =  5.20E-04,  avg # of iterations =  2.3

     total cpu time spent up to now is     2570.8 secs

     total energy              =    -587.11032636 Ry
     Harris-Foulkes estimate   =    -587.10943988 Ry
     estimated scf accuracy    <       0.22087005 Ry

     iteration # 20     ecut=    50.00 Ry     beta= 0.60
     Davidson diagonalization with overlap
     ethr =  3.51E-04,  avg # of iterations =  1.1

     total cpu time spent up to now is     2591.2 secs

     total energy              =    -587.10870835 Ry
     Harris-Foulkes estimate   =    -587.11216361 Ry
     estimated scf accuracy    <       0.22367584 Ry

     iteration # 21     ecut=    50.00 Ry     beta= 0.60
     Davidson diagonalization with overlap
     ethr =  3.51E-04,  avg # of iterations =  1.0

     total cpu time spent up to now is     2611.4 secs

     total energy              =    -587.10739390 Ry
     Harris-Foulkes estimate   =    -587.10946723 Ry
     estimated scf accuracy    <       0.19641514 Ry

     iteration # 22     ecut=    50.00 Ry     beta= 0.60
     Davidson diagonalization with overlap
     ethr =  3.12E-04,  avg # of iterations =  1.0

     total cpu time spent up to now is     2631.7 secs

     total energy              =    -587.07164072 Ry
     Harris-Foulkes estimate   =    -587.10785097 Ry
     estimated scf accuracy    <       0.18293098 Ry

     iteration # 23     ecut=    50.00 Ry     beta= 0.60
     Davidson diagonalization with overlap
     ethr =  2.90E-04,  avg # of iterations =  3.8

     total cpu time spent up to now is     2655.2 secs

     total energy              =    -587.08469945 Ry
     Harris-Foulkes estimate   =    -587.08592988 Ry
     estimated scf accuracy    <       0.00623524 Ry

     iteration # 24     ecut=    50.00 Ry     beta= 0.60
     Davidson diagonalization with overlap
     ethr =  9.90E-06,  avg # of iterations =  6.0

     total cpu time spent up to now is     2693.1 secs

     total energy              =    -587.08923601 Ry
     Harris-Foulkes estimate   =    -587.09173774 Ry
     estimated scf accuracy    <       0.01310980 Ry

     iteration # 25     ecut=    50.00 Ry     beta= 0.60
     Davidson diagonalization with overlap
     ethr =  9.90E-06,  avg # of iterations =  4.0

     total cpu time spent up to now is     2718.3 secs

     total energy              =    -587.09063036 Ry
     Harris-Foulkes estimate   =    -587.09067272 Ry
     estimated scf accuracy    <       0.00050770 Ry

     iteration # 26     ecut=    50.00 Ry     beta= 0.60
     Davidson diagonalization with overlap
     ethr =  8.06E-07,  avg # of iterations =  5.5

     total cpu time spent up to now is     2748.2 secs

     total energy              =    -587.09062097 Ry
     Harris-Foulkes estimate   =    -587.09074587 Ry
     estimated scf accuracy    <       0.00094985 Ry

     iteration # 27     ecut=    50.00 Ry     beta= 0.60
     Davidson diagonalization with overlap
     ethr =  8.06E-07,  avg # of iterations =  1.6

     total cpu time spent up to now is     2768.9 secs

     total energy              =    -587.09065054 Ry
     Harris-Foulkes estimate   =    -587.09065872 Ry
     estimated scf accuracy    <       0.00012565 Ry

     iteration # 28     ecut=    50.00 Ry     beta= 0.60
     Davidson diagonalization with overlap
     ethr =  1.99E-07,  avg # of iterations =  4.0

     total cpu time spent up to now is     2797.6 secs

     total energy              =    -587.09066738 Ry
     Harris-Foulkes estimate   =    -587.09066877 Ry
     estimated scf accuracy    <       0.00000330 Ry

     iteration # 29     ecut=    50.00 Ry     beta= 0.60
     Davidson diagonalization with overlap
     ethr =  5.25E-09,  avg # of iterations =  4.0

     total cpu time spent up to now is     2828.5 secs

     total energy              =    -587.09066847 Ry
     Harris-Foulkes estimate   =    -587.09066866 Ry
     estimated scf accuracy    <       0.00000098 Ry

     iteration # 30     ecut=    50.00 Ry     beta= 0.60
     Davidson diagonalization with overlap
     ethr =  1.56E-09,  avg # of iterations =  1.7

     total cpu time spent up to now is     2849.5 secs

     total energy              =    -587.09066847 Ry
     Harris-Foulkes estimate   =    -587.09066852 Ry
     estimated scf accuracy    <       0.00000018 Ry

     iteration # 31     ecut=    50.00 Ry     beta= 0.60
     Davidson diagonalization with overlap
     ethr =  2.80E-10,  avg # of iterations =  3.7

     total cpu time spent up to now is     2876.8 secs

     total energy              =    -587.09066850 Ry
     Harris-Foulkes estimate   =    -587.09066850 Ry
     estimated scf accuracy    <       0.00000002 Ry

     iteration # 32     ecut=    50.00 Ry     beta= 0.60
     Davidson diagonalization with overlap
     ethr =  3.12E-11,  avg # of iterations =  3.5

     total cpu time spent up to now is     2908.4 secs

     total energy              =    -587.09066850 Ry
     Harris-Foulkes estimate   =    -587.09066850 Ry
     estimated scf accuracy    <          3.5E-09 Ry

     iteration # 33     ecut=    50.00 Ry     beta= 0.60
     Davidson diagonalization with overlap
     ethr =  5.54E-12,  avg # of iterations =  3.7

     total cpu time spent up to now is     2934.4 secs

     total energy              =    -587.09066850 Ry
     Harris-Foulkes estimate   =    -587.09066850 Ry
     estimated scf accuracy    <          2.7E-10 Ry

     iteration # 34     ecut=    50.00 Ry     beta= 0.60
     Davidson diagonalization with overlap
     ethr =  4.30E-13,  avg # of iterations =  4.1

     total cpu time spent up to now is     2962.5 secs

     End of self-consistent calculation

     Number of k-points >= 100: set verbosity='high' to print the bands.

     the Fermi energy is    16.8400 ev

!    total energy              =    -587.09066850 Ry
     Harris-Foulkes estimate   =    -587.09066850 Ry
     estimated scf accuracy    <          2.7E-11 Ry

     The total energy is the sum of the following terms:

     one-electron contribution =    -122.10431114 Ry
     hartree contribution      =      91.20764053 Ry
     xc contribution           =     -84.58010323 Ry
     ewald contribution        =    -471.61220912 Ry
     smearing contrib. (-TS)   =      -0.00168554 Ry

     convergence has been achieved in  34 iterations

     Forces acting on atoms (cartesian axes, Ry/au):

     atom    1 type  2   force =     0.00013013   -0.00013013   -0.00013013
     atom    2 type  1   force =     0.00000000   -0.00000000    0.00000000
     atom    3 type  2   force =    -0.00013013    0.00013013    0.00013013
     atom    4 type  1   force =    -0.00876587    0.00876587    0.00876587
     atom    5 type  1   force =     0.00876587   -0.00876587   -0.00876587

     Total force =     0.021474     Total SCF correction =     0.000010


     Computing stress (Cartesian axis) and pressure

          total   stress  (Ry/bohr**3)                   (kbar)     P=   55.50
   0.00037725   0.00001427   0.00001427         55.50      2.10      2.10
   0.00001427   0.00037725  -0.00001427          2.10     55.50     -2.10
   0.00001427  -0.00001427   0.00037725          2.10     -2.10     55.50


     number of scf cycles    =   3
     number of bfgs steps    =   2

     enthalpy old            =    -587.0659801644 Ry
     enthalpy new            =    -587.0906684986 Ry

     CASE: enthalpy_new < enthalpy_old

     new trust radius        =       0.0642456573 bohr
     new conv_thr            =            1.0E-10 Ry

     new unit-cell volume =    599.20841 a.u.^3 (    88.79352 Ang^3 )
     density =      7.00270 g/cm^3

CELL_PARAMETERS (alat=  1.88972599)
  -1.641952470   1.641952470   4.929859798
  -1.641952470   4.929859798   1.641952470
  -4.929859798   1.641952470   1.641952470

ATOMIC_POSITIONS (angstrom)
Ti      -3.282583438   3.282583438   3.282583438
Nb      -4.928258843   4.928258843   4.928258843
Ti      -6.573934247   6.573934247   6.573934247
Nb      -8.225905951   8.225905951   8.225905951
Nb      -1.630611734   1.630611734   1.630611734


     NEW-OLD atomic charge density approx. for the potential
     extrapolated charge   65.38476, renormalised to   63.00000

     total cpu time spent up to now is     2976.3 secs

     Self-consistent Calculation

     iteration #  1     ecut=    50.00 Ry     beta= 0.60
     Davidson diagonalization with overlap
     ethr =  1.00E-06,  avg # of iterations = 12.4

     total cpu time spent up to now is     3042.0 secs

     total energy              =    -586.65787503 Ry
     Harris-Foulkes estimate   =    -583.62310522 Ry
     estimated scf accuracy    <       0.36223459 Ry

     iteration #  2     ecut=    50.00 Ry     beta= 0.60
     Davidson diagonalization with overlap
     ethr =  5.75E-04,  avg # of iterations =  6.4

     total cpu time spent up to now is     3085.1 secs

     total energy              =    -586.07014311 Ry
     Harris-Foulkes estimate   =    -588.23693399 Ry
     estimated scf accuracy    <      18.98893726 Ry

     iteration #  3     ecut=    50.00 Ry     beta= 0.60
     Davidson diagonalization with overlap
     ethr =  5.75E-04,  avg # of iterations =  5.0

     total cpu time spent up to now is     3121.7 secs

     total energy              =    -587.08922128 Ry
     Harris-Foulkes estimate   =    -587.16652718 Ry
     estimated scf accuracy    <       0.20992525 Ry

     iteration #  4     ecut=    50.00 Ry     beta= 0.60
     Davidson diagonalization with overlap
     ethr =  3.33E-04,  avg # of iterations =  2.0

     total cpu time spent up to now is     3144.4 secs

     total energy              =    -587.10580782 Ry
     Harris-Foulkes estimate   =    -587.11230775 Ry
     estimated scf accuracy    <       0.08993611 Ry

     iteration #  5     ecut=    50.00 Ry     beta= 0.60
     Davidson diagonalization with overlap
     ethr =  1.43E-04,  avg # of iterations =  1.1

     total cpu time spent up to now is     3164.8 secs

     total energy              =    -587.10409690 Ry
     Harris-Foulkes estimate   =    -587.10756991 Ry
     estimated scf accuracy    <       0.06994440 Ry

     iteration #  6     ecut=    50.00 Ry     beta= 0.60
     Davidson diagonalization with overlap
     ethr =  1.11E-04,  avg # of iterations =  1.0

     total cpu time spent up to now is     3185.1 secs

     total energy              =    -587.09871528 Ry
     Harris-Foulkes estimate   =    -587.10480765 Ry
     estimated scf accuracy    <       0.06158561 Ry

     iteration #  7     ecut=    50.00 Ry     beta= 0.60
     Davidson diagonalization with overlap
     ethr =  9.78E-05,  avg # of iterations =  1.1

     total cpu time spent up to now is     3205.5 secs

     total energy              =    -587.09470302 Ry
     Harris-Foulkes estimate   =    -587.09965269 Ry
     estimated scf accuracy    <       0.03488383 Ry

     iteration #  8     ecut=    50.00 Ry     beta= 0.60
     Davidson diagonalization with overlap
     ethr =  5.54E-05,  avg # of iterations =  1.2

     total cpu time spent up to now is     3226.0 secs

     total energy              =    -587.09469710 Ry
     Harris-Foulkes estimate   =    -587.09576724 Ry
     estimated scf accuracy    <       0.01241503 Ry

     iteration #  9     ecut=    50.00 Ry     beta= 0.60
     Davidson diagonalization with overlap
     ethr =  1.97E-05,  avg # of iterations =  2.0

     total cpu time spent up to now is     3247.3 secs

     total energy              =    -587.09441098 Ry
     Harris-Foulkes estimate   =    -587.09505287 Ry
     estimated scf accuracy    <       0.00599746 Ry

     iteration # 10     ecut=    50.00 Ry     beta= 0.60
     Davidson diagonalization with overlap
     ethr =  9.52E-06,  avg # of iterations =  2.8

     total cpu time spent up to now is     3269.5 secs

     total energy              =    -587.09449146 Ry
     Harris-Foulkes estimate   =    -587.09466140 Ry
     estimated scf accuracy    <       0.00229736 Ry

     iteration # 11     ecut=    50.00 Ry     beta= 0.60
     Davidson diagonalization with overlap
     ethr =  3.65E-06,  avg # of iterations =  3.5

     total cpu time spent up to now is     3293.8 secs

     total energy              =    -587.09460967 Ry
     Harris-Foulkes estimate   =    -587.09466245 Ry
     estimated scf accuracy    <       0.00046164 Ry

     iteration # 12     ecut=    50.00 Ry     beta= 0.60
     Davidson diagonalization with overlap
     ethr =  7.33E-07,  avg # of iterations =  3.5

     total cpu time spent up to now is     3317.6 secs

     total energy              =    -587.09464367 Ry
     Harris-Foulkes estimate   =    -587.09464925 Ry
     estimated scf accuracy    <       0.00003391 Ry

     iteration # 13     ecut=    50.00 Ry     beta= 0.60
     Davidson diagonalization with overlap
     ethr =  5.38E-08,  avg # of iterations =  4.6

     total cpu time spent up to now is     3346.4 secs

     total energy              =    -587.09465359 Ry
     Harris-Foulkes estimate   =    -587.09465445 Ry
     estimated scf accuracy    <       0.00000385 Ry

     iteration # 14     ecut=    50.00 Ry     beta= 0.60
     Davidson diagonalization with overlap
     ethr =  6.11E-09,  avg # of iterations =  3.7

     total cpu time spent up to now is     3372.7 secs

     total energy              =    -587.09465454 Ry
     Harris-Foulkes estimate   =    -587.09465463 Ry
     estimated scf accuracy    <       0.00000354 Ry

     iteration # 15     ecut=    50.00 Ry     beta= 0.60
     Davidson diagonalization with overlap
     ethr =  5.61E-09,  avg # of iterations =  1.0

     total cpu time spent up to now is     3393.1 secs

     total energy              =    -587.09465415 Ry
     Harris-Foulkes estimate   =    -587.09465459 Ry
     estimated scf accuracy    <       0.00000356 Ry

     iteration # 16     ecut=    50.00 Ry     beta= 0.60
     Davidson diagonalization with overlap
     ethr =  5.61E-09,  avg # of iterations =  1.0

     total cpu time spent up to now is     3413.4 secs

     total energy              =    -587.09465399 Ry
     Harris-Foulkes estimate   =    -587.09465422 Ry
     estimated scf accuracy    <       0.00000183 Ry

     iteration # 17     ecut=    50.00 Ry     beta= 0.60
     Davidson diagonalization with overlap
     ethr =  2.91E-09,  avg # of iterations =  2.0

     total cpu time spent up to now is     3435.2 secs

     total energy              =    -587.09465411 Ry
     Harris-Foulkes estimate   =    -587.09465409 Ry
     estimated scf accuracy    <       0.00000028 Ry

     iteration # 18     ecut=    50.00 Ry     beta= 0.60
     Davidson diagonalization with overlap
     ethr =  4.41E-10,  avg # of iterations =  2.0

     total cpu time spent up to now is     3457.0 secs

     total energy              =    -587.09465411 Ry
     Harris-Foulkes estimate   =    -587.09465412 Ry
     estimated scf accuracy    <       0.00000049 Ry

     iteration # 19     ecut=    50.00 Ry     beta= 0.60
     Davidson diagonalization with overlap
     ethr =  4.41E-10,  avg # of iterations =  1.0

     total cpu time spent up to now is     3477.3 secs

     total energy              =    -587.09465409 Ry
     Harris-Foulkes estimate   =    -587.09465411 Ry
     estimated scf accuracy    <       0.00000031 Ry

     iteration # 20     ecut=    50.00 Ry     beta= 0.60
     Davidson diagonalization with overlap
     ethr =  4.41E-10,  avg # of iterations =  1.1

     total cpu time spent up to now is     3497.6 secs

     total energy              =    -587.09465409 Ry
     Harris-Foulkes estimate   =    -587.09465409 Ry
     estimated scf accuracy    <       0.00000015 Ry

     iteration # 21     ecut=    50.00 Ry     beta= 0.60
     Davidson diagonalization with overlap
     ethr =  2.44E-10,  avg # of iterations =  1.0

     total cpu time spent up to now is     3518.0 secs

     total energy              =    -587.09465408 Ry
     Harris-Foulkes estimate   =    -587.09465409 Ry
     estimated scf accuracy    <       0.00000011 Ry

     iteration # 22     ecut=    50.00 Ry     beta= 0.60
     Davidson diagonalization with overlap
     ethr =  1.72E-10,  avg # of iterations =  3.6

     total cpu time spent up to now is     3542.7 secs

     total energy              =    -587.09465409 Ry
     Harris-Foulkes estimate   =    -587.09465409 Ry
     estimated scf accuracy    <          1.1E-09 Ry

     iteration # 23     ecut=    50.00 Ry     beta= 0.60
     Davidson diagonalization with overlap
     ethr =  1.73E-12,  avg # of iterations =  4.7

     total cpu time spent up to now is     3574.6 secs

     total energy              =    -587.09465409 Ry
     Harris-Foulkes estimate   =    -587.09465409 Ry
     estimated scf accuracy    <          8.0E-10 Ry

     iteration # 24     ecut=    50.00 Ry     beta= 0.60
     Davidson diagonalization with overlap
     ethr =  1.26E-12,  avg # of iterations =  1.0

     total cpu time spent up to now is     3595.0 secs

     total energy              =    -587.09465409 Ry
     Harris-Foulkes estimate   =    -587.09465409 Ry
     estimated scf accuracy    <          8.7E-10 Ry

     iteration # 25     ecut=    50.00 Ry     beta= 0.60
     Davidson diagonalization with overlap
     ethr =  1.26E-12,  avg # of iterations =  1.0

     total cpu time spent up to now is     3615.3 secs

     total energy              =    -587.09465409 Ry
     Harris-Foulkes estimate   =    -587.09465409 Ry
     estimated scf accuracy    <          1.8E-10 Ry

     iteration # 26     ecut=    50.00 Ry     beta= 0.60
     Davidson diagonalization with overlap
     ethr =  2.82E-13,  avg # of iterations =  3.6

     total cpu time spent up to now is     3640.8 secs

     End of self-consistent calculation

     Number of k-points >= 100: set verbosity='high' to print the bands.

     the Fermi energy is    16.0766 ev

!    total energy              =    -587.09465409 Ry
     Harris-Foulkes estimate   =    -587.09465409 Ry
     estimated scf accuracy    <          2.5E-12 Ry

     The total energy is the sum of the following terms:

     one-electron contribution =    -131.04494504 Ry
     hartree contribution      =      93.71269709 Ry
     xc contribution           =     -84.37793839 Ry
     ewald contribution        =    -465.38298474 Ry
     smearing contrib. (-TS)   =      -0.00148300 Ry

     convergence has been achieved in  26 iterations

     Forces acting on atoms (cartesian axes, Ry/au):

     atom    1 type  2   force =     0.00063860   -0.00063860   -0.00063860
     atom    2 type  1   force =     0.00000000    0.00000000    0.00000000
     atom    3 type  2   force =    -0.00063860    0.00063860    0.00063860
     atom    4 type  1   force =    -0.00771044    0.00771044    0.00771044
     atom    5 type  1   force =     0.00771044   -0.00771044   -0.00771044

     Total force =     0.018951     Total SCF correction =     0.000001


     Computing stress (Cartesian axis) and pressure

          total   stress  (Ry/bohr**3)                   (kbar)     P=   -5.61
  -0.00003812   0.00000992   0.00000992         -5.61      1.46      1.46
   0.00000992  -0.00003812  -0.00000992          1.46     -5.61     -1.46
   0.00000992  -0.00000992  -0.00003812          1.46     -1.46     -5.61


     number of scf cycles    =   4
     number of bfgs steps    =   3

     enthalpy old            =    -587.0906684986 Ry
     enthalpy new            =    -587.0946540901 Ry

     CASE: enthalpy_new < enthalpy_old

     new trust radius        =       0.0119689375 bohr
     new conv_thr            =            1.0E-10 Ry

     new unit-cell volume =    597.24132 a.u.^3 (    88.50203 Ang^3 )
     density =      7.02576 g/cm^3

CELL_PARAMETERS (alat=  1.88972599)
  -1.638603093   1.638603093   4.923684632
  -1.638603093   4.923684632   1.638603093
  -4.923684632   1.638603093   1.638603093

ATOMIC_POSITIONS (angstrom)
Ti      -3.277132695   3.277132695   3.277132695
Nb      -4.920534490   4.920534490   4.920534490
Ti      -6.563936286   6.563936286   6.563936286
Nb      -8.216664026   8.216664026   8.216664026
Nb      -1.624404954   1.624404954   1.624404954


     NEW-OLD atomic charge density approx. for the potential
     extrapolated charge   62.79912, renormalised to   63.00000

     total cpu time spent up to now is     3653.9 secs

     Self-consistent Calculation

     iteration #  1     ecut=    50.00 Ry     beta= 0.60
     Davidson diagonalization with overlap
     ethr =  1.00E-06,  avg # of iterations =  4.9

     total cpu time spent up to now is     3696.4 secs

     total energy              =    -587.08986436 Ry
     Harris-Foulkes estimate   =    -587.39186183 Ry
     estimated scf accuracy    <       0.00486453 Ry

     iteration #  2     ecut=    50.00 Ry     beta= 0.60
     Davidson diagonalization with overlap
     ethr =  7.72E-06,  avg # of iterations =  5.9

     total cpu time spent up to now is     3737.9 secs

     total energy              =    -587.08572880 Ry
     Harris-Foulkes estimate   =    -587.10926766 Ry
     estimated scf accuracy    <       0.16360158 Ry

     iteration #  3     ecut=    50.00 Ry     beta= 0.60
     Davidson diagonalization with overlap
     ethr =  7.72E-06,  avg # of iterations =  5.3

     total cpu time spent up to now is     3774.6 secs

     total energy              =    -587.09512965 Ry
     Harris-Foulkes estimate   =    -587.09579976 Ry
     estimated scf accuracy    <       0.00261654 Ry

     iteration #  4     ecut=    50.00 Ry     beta= 0.60
     Davidson diagonalization with overlap
     ethr =  4.15E-06,  avg # of iterations =  1.0

     total cpu time spent up to now is     3795.2 secs

     total energy              =    -587.09511709 Ry
     Harris-Foulkes estimate   =    -587.09524686 Ry
     estimated scf accuracy    <       0.00178428 Ry

     iteration #  5     ecut=    50.00 Ry     beta= 0.60
     Davidson diagonalization with overlap
     ethr =  2.83E-06,  avg # of iterations =  1.0

     total cpu time spent up to now is     3815.5 secs

     total energy              =    -587.09499931 Ry
     Harris-Foulkes estimate   =    -587.09515480 Ry
     estimated scf accuracy    <       0.00119790 Ry

     iteration #  6     ecut=    50.00 Ry     beta= 0.60
     Davidson diagonalization with overlap
     ethr =  1.90E-06,  avg # of iterations =  1.0

     total cpu time spent up to now is     3835.9 secs

     total energy              =    -587.09491956 Ry
     Harris-Foulkes estimate   =    -587.09503194 Ry
     estimated scf accuracy    <       0.00047494 Ry

     iteration #  7     ecut=    50.00 Ry     beta= 0.60
     Davidson diagonalization with overlap
     ethr =  7.54E-07,  avg # of iterations =  3.9

     total cpu time spent up to now is     3862.0 secs

     total energy              =    -587.09501536 Ry
     Harris-Foulkes estimate   =    -587.09501728 Ry
     estimated scf accuracy    <       0.00004030 Ry

     iteration #  8     ecut=    50.00 Ry     beta= 0.60
     Davidson diagonalization with overlap
     ethr =  6.40E-08,  avg # of iterations =  3.2

     total cpu time spent up to now is     3886.0 secs

     total energy              =    -587.09501652 Ry
     Harris-Foulkes estimate   =    -587.09501898 Ry
     estimated scf accuracy    <       0.00003757 Ry

     iteration #  9     ecut=    50.00 Ry     beta= 0.60
     Davidson diagonalization with overlap
     ethr =  5.96E-08,  avg # of iterations =  1.0

     total cpu time spent up to now is     3906.3 secs

     total energy              =    -587.09501460 Ry
     Harris-Foulkes estimate   =    -587.09501709 Ry
     estimated scf accuracy    <       0.00001962 Ry

     iteration # 10     ecut=    50.00 Ry     beta= 0.60
     Davidson diagonalization with overlap
     ethr =  3.11E-08,  avg # of iterations =  1.5

     total cpu time spent up to now is     3927.1 secs

     total energy              =    -587.09501434 Ry
     Harris-Foulkes estimate   =    -587.09501520 Ry
     estimated scf accuracy    <       0.00000532 Ry

     iteration # 11     ecut=    50.00 Ry     beta= 0.60
     Davidson diagonalization with overlap
     ethr =  8.45E-09,  avg # of iterations =  3.8

     total cpu time spent up to now is     3952.6 secs

     total energy              =    -587.09501501 Ry
     Harris-Foulkes estimate   =    -587.09501506 Ry
     estimated scf accuracy    <       0.00000019 Ry

     iteration # 12     ecut=    50.00 Ry     beta= 0.60
     Davidson diagonalization with overlap
     ethr =  2.94E-10,  avg # of iterations =  4.0

     total cpu time spent up to now is     3980.7 secs

     total energy              =    -587.09501502 Ry
     Harris-Foulkes estimate   =    -587.09501505 Ry
     estimated scf accuracy    <       0.00000024 Ry

     iteration # 13     ecut=    50.00 Ry     beta= 0.60
     Davidson diagonalization with overlap
     ethr =  2.94E-10,  avg # of iterations =  1.1

     total cpu time spent up to now is     4001.1 secs

     total energy              =    -587.09501503 Ry
     Harris-Foulkes estimate   =    -587.09501503 Ry
     estimated scf accuracy    <       0.00000002 Ry

     iteration # 14     ecut=    50.00 Ry     beta= 0.60
     Davidson diagonalization with overlap
     ethr =  3.09E-11,  avg # of iterations =  4.3

     total cpu time spent up to now is     4030.9 secs

     total energy              =    -587.09501503 Ry
     Harris-Foulkes estimate   =    -587.09501504 Ry
     estimated scf accuracy    <       0.00000004 Ry

     iteration # 15     ecut=    50.00 Ry     beta= 0.60
     Davidson diagonalization with overlap
     ethr =  3.09E-11,  avg # of iterations =  3.3

     total cpu time spent up to now is     4053.9 secs

     total energy              =    -587.09501503 Ry
     Harris-Foulkes estimate   =    -587.09501503 Ry
     estimated scf accuracy    <          3.2E-09 Ry

     iteration # 16     ecut=    50.00 Ry     beta= 0.60
     Davidson diagonalization with overlap
     ethr =  5.06E-12,  avg # of iterations =  4.1

     total cpu time spent up to now is     4081.7 secs

     total energy              =    -587.09501503 Ry
     Harris-Foulkes estimate   =    -587.09501503 Ry
     estimated scf accuracy    <          6.1E-10 Ry

     iteration # 17     ecut=    50.00 Ry     beta= 0.60
     Davidson diagonalization with overlap
     ethr =  9.74E-13,  avg # of iterations =  3.0

     total cpu time spent up to now is     4104.1 secs

     total energy              =    -587.09501503 Ry
     Harris-Foulkes estimate   =    -587.09501503 Ry
     estimated scf accuracy    <          1.2E-09 Ry

     iteration # 18     ecut=    50.00 Ry     beta= 0.60
     Davidson diagonalization with overlap
     ethr =  9.74E-13,  avg # of iterations =  1.0

     total cpu time spent up to now is     4124.5 secs

     total energy              =    -587.09501503 Ry
     Harris-Foulkes estimate   =    -587.09501503 Ry
     estimated scf accuracy    <          2.6E-10 Ry

     iteration # 19     ecut=    50.00 Ry     beta= 0.60
     Davidson diagonalization with overlap
     ethr =  4.15E-13,  avg # of iterations =  3.0

     total cpu time spent up to now is     4148.0 secs

     End of self-consistent calculation

     Number of k-points >= 100: set verbosity='high' to print the bands.

     the Fermi energy is    16.1368 ev

!    total energy              =    -587.09501503 Ry
     Harris-Foulkes estimate   =    -587.09501503 Ry
     estimated scf accuracy    <          2.9E-12 Ry

     The total energy is the sum of the following terms:

     one-electron contribution =    -130.32162938 Ry
     hartree contribution      =      93.50918536 Ry
     xc contribution           =     -84.39417437 Ry
     ewald contribution        =    -465.88701974 Ry
     smearing contrib. (-TS)   =      -0.00137691 Ry

     convergence has been achieved in  19 iterations

     Forces acting on atoms (cartesian axes, Ry/au):

     atom    1 type  2   force =     0.00073674   -0.00073674   -0.00073674
     atom    2 type  1   force =    -0.00000000    0.00000000   -0.00000000
     atom    3 type  2   force =    -0.00073674    0.00073674    0.00073674
     atom    4 type  1   force =    -0.00703579    0.00703579    0.00703579
     atom    5 type  1   force =     0.00703579   -0.00703579   -0.00703579

     Total force =     0.017328     Total SCF correction =     0.000002


     Computing stress (Cartesian axis) and pressure

          total   stress  (Ry/bohr**3)                   (kbar)     P=   -1.04
  -0.00000708   0.00001000   0.00001000         -1.04      1.47      1.47
   0.00001000  -0.00000708  -0.00001000          1.47     -1.04     -1.47
   0.00001000  -0.00001000  -0.00000708          1.47     -1.47     -1.04


     number of scf cycles    =   5
     number of bfgs steps    =   4

     enthalpy old            =    -587.0946540901 Ry
     enthalpy new            =    -587.0950150347 Ry

     CASE: enthalpy_new < enthalpy_old

     new trust radius        =       0.0179252668 bohr
     new conv_thr            =            1.0E-10 Ry

     new unit-cell volume =    596.12319 a.u.^3 (    88.33634 Ang^3 )
     density =      7.03894 g/cm^3

CELL_PARAMETERS (alat=  1.88972599)
  -1.635074702   1.635074702   4.919359583
  -1.635074702   4.919359583   1.635074702
  -4.919359583   1.635074702   1.635074702

ATOMIC_POSITIONS (angstrom)
Ti      -3.272054925   3.272054925   3.272054925
Nb      -4.913705392   4.913705392   4.913705392
Ti      -6.555355859   6.555355859   6.555355859
Nb      -8.210729242   8.210729242   8.210729242
Nb      -1.616681542   1.616681542   1.616681542


     NEW-OLD atomic charge density approx. for the potential
     extrapolated charge   62.88560, renormalised to   63.00000

     total cpu time spent up to now is     4160.9 secs

     Self-consistent Calculation

     iteration #  1     ecut=    50.00 Ry     beta= 0.60
     Davidson diagonalization with overlap
     ethr =  1.00E-06,  avg # of iterations =  4.4

     total cpu time spent up to now is     4203.9 secs

     total energy              =    -587.09367878 Ry
     Harris-Foulkes estimate   =    -587.26395372 Ry
     estimated scf accuracy    <       0.00174303 Ry

     iteration #  2     ecut=    50.00 Ry     beta= 0.60
     Davidson diagonalization with overlap
     ethr =  2.77E-06,  avg # of iterations =  5.5

     total cpu time spent up to now is     4244.5 secs

     total energy              =    -587.09191366 Ry
     Harris-Foulkes estimate   =    -587.10046765 Ry
     estimated scf accuracy    <       0.05974884 Ry

     iteration #  3     ecut=    50.00 Ry     beta= 0.60
     Davidson diagonalization with overlap
     ethr =  2.77E-06,  avg # of iterations =  5.3

     total cpu time spent up to now is     4280.8 secs

     total energy              =    -587.09542978 Ry
     Harris-Foulkes estimate   =    -587.09568331 Ry
     estimated scf accuracy    <       0.00087015 Ry

     iteration #  4     ecut=    50.00 Ry     beta= 0.60
     Davidson diagonalization with overlap
     ethr =  1.38E-06,  avg # of iterations =  2.0

     total cpu time spent up to now is     4303.5 secs

     total energy              =    -587.09547768 Ry
     Harris-Foulkes estimate   =    -587.09552636 Ry
     estimated scf accuracy    <       0.00063963 Ry

     iteration #  5     ecut=    50.00 Ry     beta= 0.60
     Davidson diagonalization with overlap
     ethr =  1.02E-06,  avg # of iterations =  1.0

     total cpu time spent up to now is     4323.8 secs

     total energy              =    -587.09540638 Ry
     Harris-Foulkes estimate   =    -587.09549065 Ry
     estimated scf accuracy    <       0.00040723 Ry

     iteration #  6     ecut=    50.00 Ry     beta= 0.60
     Davidson diagonalization with overlap
     ethr =  6.46E-07,  avg # of iterations =  1.8

     total cpu time spent up to now is     4344.8 secs

     total energy              =    -587.09541449 Ry
     Harris-Foulkes estimate   =    -587.09542954 Ry
     estimated scf accuracy    <       0.00006345 Ry

     iteration #  7     ecut=    50.00 Ry     beta= 0.60
     Davidson diagonalization with overlap
     ethr =  1.01E-07,  avg # of iterations =  4.1

     total cpu time spent up to now is     4374.5 secs

     total energy              =    -587.09543495 Ry
     Harris-Foulkes estimate   =    -587.09543986 Ry
     estimated scf accuracy    <       0.00005522 Ry

     iteration #  8     ecut=    50.00 Ry     beta= 0.60
     Davidson diagonalization with overlap
[...]
               a(1) = (  -1.607471   1.607471   4.906991 )  
               a(2) = (  -1.607471   4.906991   1.607471 )  
               a(3) = (  -4.906991   1.607471   1.607471 )  

     reciprocal axes: (cart. coord. in units 2 pi/alat)
               b(1) = (  0.059984 -0.059984  0.243091 )  
               b(2) = (  0.059984  0.243091 -0.059984 )  
               b(3) = ( -0.243091 -0.059984 -0.059984 )  


     PseudoPot. # 1 for Nb read from file:
     ./Nb.pbe-nsp-van.UPF
     MD5 check sum: 0a22fc7fb0ba19a08ca5db297a5d2854
     Pseudo is Ultrasoft + core correction, Zval = 13.0
     Generated by new atomic code, or converted to UPF format
     Using radial grid of  887 points,  6 beta functions with: 
                l(1) =   0
                l(2) =   0
                l(3) =   1
                l(4) =   1
                l(5) =   2
                l(6) =   2
     Q(r) pseudized with  6 coefficients,  rinner =    1.000   1.000   1.000
                                                       1.000   1.000

     PseudoPot. # 2 for Ti read from file:
     ./Ti.pbe-sp-van_ak.UPF
     MD5 check sum: f98fea3e8887528921fefa5636a534ca
     Pseudo is Ultrasoft, Zval = 12.0
     Generated by new atomic code, or converted to UPF format
     Using radial grid of  851 points,  6 beta functions with: 
                l(1) =   0
                l(2) =   0
                l(3) =   1
                l(4) =   1
                l(5) =   2
                l(6) =   2
     Q(r) pseudized with  8 coefficients,  rinner =    1.000   1.000   1.000
                                                       1.000   1.000

     atomic species   valence    mass     pseudopotential
        Nb            13.00    92.90638     Nb( 1.00)
        Ti            12.00    47.86700     Ti( 1.00)

     12 Sym. Ops., with inversion, found ( 6 have fractional translation)



   Cartesian axes

     site n.     atom                  positions (alat units)
         1           Ti  tau(   1) = (  -3.2342638   3.2342638   3.2342638  )
         2           Nb  tau(   2) = (  -4.8731600   4.8731600   4.8731600  )
         3           Ti  tau(   3) = (  -6.5120561   6.5120561   6.5120561  )
         4           Nb  tau(   4) = (  -8.1672262   8.1672262   8.1672262  )
         5           Nb  tau(   5) = (  -1.5790937   1.5790937   1.5790937  )

     number of k points=   189  Marzari-Vanderbilt smearing, width (Ry)=  0.0200

     Number of k-points >= 100: set verbosity='high' to print them.

     Dense  grid:   112701 G-vectors     FFT dimensions: (  75,  75,  75)

     Smooth grid:    28425 G-vectors     FFT dimensions: (  45,  45,  45)

     Estimated max dynamical RAM per process >     208.14 MB

     Estimated total dynamical RAM >     832.55 MB

     Initial potential from superposition of free atoms

     starting charge   60.99171, renormalised to   63.00000
     Starting wfcs are   59 randomized atomic wfcs

     total cpu time spent up to now is    10749.6 secs

     Self-consistent Calculation

     iteration #  1     ecut=    50.00 Ry     beta= 0.60
     Davidson diagonalization with overlap
     ethr =  1.00E-06,  avg # of iterations = 11.5

     total cpu time spent up to now is    10806.1 secs

     total energy              =    -574.67853157 Ry
     Harris-Foulkes estimate   =    -589.04044642 Ry
     estimated scf accuracy    <      18.17252925 Ry

     iteration #  2     ecut=    50.00 Ry     beta= 0.60
     Davidson diagonalization with overlap
     ethr =  1.00E-02,  avg # of iterations =  5.2

     total cpu time spent up to now is    10838.8 secs

     total energy              =    -585.29787154 Ry
     Harris-Foulkes estimate   =    -604.10721632 Ry
     estimated scf accuracy    <      49.79693282 Ry

     iteration #  3     ecut=    50.00 Ry     beta= 0.60
     Davidson diagonalization with overlap
     ethr =  1.00E-02,  avg # of iterations =  3.1

     total cpu time spent up to now is    10862.4 secs

     total energy              =    -588.11255080 Ry
     Harris-Foulkes estimate   =    -589.83891013 Ry
     estimated scf accuracy    <      14.13389980 Ry

     iteration #  4     ecut=    50.00 Ry     beta= 0.60
     Davidson diagonalization with overlap
     ethr =  1.00E-02,  avg # of iterations =  1.1

     total cpu time spent up to now is    10878.4 secs

     total energy              =    -588.20690272 Ry
     Harris-Foulkes estimate   =    -588.54253165 Ry
     estimated scf accuracy    <       7.44524272 Ry

     iteration #  5     ecut=    50.00 Ry     beta= 0.60
     Davidson diagonalization with overlap
     ethr =  1.00E-02,  avg # of iterations =  1.0

     total cpu time spent up to now is    10894.5 secs

     total energy              =    -587.00955503 Ry
     Harris-Foulkes estimate   =    -588.24922727 Ry
     estimated scf accuracy    <       6.60295801 Ry

     iteration #  6     ecut=    50.00 Ry     beta= 0.60
     Davidson diagonalization with overlap
     ethr =  1.00E-02,  avg # of iterations =  1.6

     total cpu time spent up to now is    10910.9 secs

     total energy              =    -586.23581214 Ry
     Harris-Foulkes estimate   =    -587.16771714 Ry
     estimated scf accuracy    <       3.15872525 Ry

     iteration #  7     ecut=    50.00 Ry     beta= 0.60
     Davidson diagonalization with overlap
     ethr =  5.01E-03,  avg # of iterations =  4.1

     total cpu time spent up to now is    10935.8 secs

     total energy              =    -587.01980350 Ry
     Harris-Foulkes estimate   =    -587.42650735 Ry
     estimated scf accuracy    <       4.88011789 Ry

     iteration #  8     ecut=    50.00 Ry     beta= 0.60
     Davidson diagonalization with overlap
     ethr =  5.01E-03,  avg # of iterations =  1.0

     total cpu time spent up to now is    10951.8 secs

     total energy              =    -586.92335191 Ry
     Harris-Foulkes estimate   =    -587.11207693 Ry
     estimated scf accuracy    <       1.36748464 Ry

     iteration #  9     ecut=    50.00 Ry     beta= 0.60
     Davidson diagonalization with overlap
     ethr =  2.17E-03,  avg # of iterations =  3.2

     total cpu time spent up to now is    10971.5 secs

     total energy              =    -587.12268407 Ry
     Harris-Foulkes estimate   =    -587.10159666 Ry
     estimated scf accuracy    <       0.08618800 Ry

     iteration # 10     ecut=    50.00 Ry     beta= 0.60
     Davidson diagonalization with overlap
     ethr =  1.37E-04,  avg # of iterations =  6.4

     total cpu time spent up to now is    10997.7 secs

     total energy              =    -587.07742249 Ry
     Harris-Foulkes estimate   =    -587.13937841 Ry
     estimated scf accuracy    <       0.43513814 Ry

     iteration # 11     ecut=    50.00 Ry     beta= 0.60
     Davidson diagonalization with overlap
     ethr =  1.37E-04,  avg # of iterations =  4.5

     total cpu time spent up to now is    11018.4 secs

     total energy              =    -587.09802649 Ry
     Harris-Foulkes estimate   =    -587.09673165 Ry
     estimated scf accuracy    <       0.03448291 Ry

     iteration # 12     ecut=    50.00 Ry     beta= 0.60
     Davidson diagonalization with overlap
     ethr =  5.47E-05,  avg # of iterations =  4.5

     total cpu time spent up to now is    11037.7 secs

     total energy              =    -587.09547661 Ry
     Harris-Foulkes estimate   =    -587.09893313 Ry
     estimated scf accuracy    <       0.04149134 Ry

     iteration # 13     ecut=    50.00 Ry     beta= 0.60
     Davidson diagonalization with overlap
     ethr =  5.47E-05,  avg # of iterations =  1.2

     total cpu time spent up to now is    11053.9 secs

     total energy              =    -587.09427088 Ry
     Harris-Foulkes estimate   =    -587.09618753 Ry
     estimated scf accuracy    <       0.01859695 Ry

     iteration # 14     ecut=    50.00 Ry     beta= 0.60
     Davidson diagonalization with overlap
     ethr =  2.95E-05,  avg # of iterations =  4.6

     total cpu time spent up to now is    11074.9 secs

     total energy              =    -587.09572464 Ry
     Harris-Foulkes estimate   =    -587.09580218 Ry
     estimated scf accuracy    <       0.00048118 Ry

     iteration # 15     ecut=    50.00 Ry     beta= 0.60
     Davidson diagonalization with overlap
     ethr =  7.64E-07,  avg # of iterations =  5.9

     total cpu time spent up to now is    11102.1 secs

     total energy              =    -587.09601446 Ry
     Harris-Foulkes estimate   =    -587.09594509 Ry
     estimated scf accuracy    <       0.00049284 Ry

     iteration # 16     ecut=    50.00 Ry     beta= 0.60
     Davidson diagonalization with overlap
     ethr =  7.64E-07,  avg # of iterations =  1.2

     total cpu time spent up to now is    11118.3 secs

     total energy              =    -587.09604069 Ry
     Harris-Foulkes estimate   =    -587.09604670 Ry
     estimated scf accuracy    <       0.00154992 Ry

     iteration # 17     ecut=    50.00 Ry     beta= 0.60
     Davidson diagonalization with overlap
     ethr =  7.64E-07,  avg # of iterations =  2.5

     total cpu time spent up to now is    11136.8 secs

     total energy              =    -587.09592807 Ry
     Harris-Foulkes estimate   =    -587.09608085 Ry
     estimated scf accuracy    <       0.00206059 Ry

     iteration # 18     ecut=    50.00 Ry     beta= 0.60
     Davidson diagonalization with overlap
     ethr =  7.64E-07,  avg # of iterations =  1.0

     total cpu time spent up to now is    11152.8 secs

     total energy              =    -587.09587128 Ry
     Harris-Foulkes estimate   =    -587.09595281 Ry
     estimated scf accuracy    <       0.00090358 Ry

     iteration # 19     ecut=    50.00 Ry     beta= 0.60
     Davidson diagonalization with overlap
     ethr =  7.64E-07,  avg # of iterations =  2.4

     total cpu time spent up to now is    11170.3 secs

     total energy              =    -587.09587740 Ry
     Harris-Foulkes estimate   =    -587.09589910 Ry
     estimated scf accuracy    <       0.00016635 Ry

     iteration # 20     ecut=    50.00 Ry     beta= 0.60
     Davidson diagonalization with overlap
     ethr =  2.64E-07,  avg # of iterations =  3.3

     total cpu time spent up to now is    11189.4 secs

     total energy              =    -587.09589119 Ry
     Harris-Foulkes estimate   =    -587.09589406 Ry
     estimated scf accuracy    <       0.00001114 Ry

     iteration # 21     ecut=    50.00 Ry     beta= 0.60
     Davidson diagonalization with overlap
     ethr =  1.77E-08,  avg # of iterations =  4.4

     total cpu time spent up to now is    11211.8 secs

     total energy              =    -587.09589341 Ry
     Harris-Foulkes estimate   =    -587.09589433 Ry
     estimated scf accuracy    <       0.00000709 Ry

     iteration # 22     ecut=    50.00 Ry     beta= 0.60
     Davidson diagonalization with overlap
     ethr =  1.13E-08,  avg # of iterations =  1.0

     total cpu time spent up to now is    11227.9 secs

     total energy              =    -587.09589265 Ry
     Harris-Foulkes estimate   =    -587.09589356 Ry
     estimated scf accuracy    <       0.00000298 Ry

     iteration # 23     ecut=    50.00 Ry     beta= 0.60
     Davidson diagonalization with overlap
     ethr =  4.73E-09,  avg # of iterations =  3.9

     total cpu time spent up to now is    11249.8 secs

     total energy              =    -587.09589335 Ry
     Harris-Foulkes estimate   =    -587.09589355 Ry
     estimated scf accuracy    <       0.00000216 Ry

     iteration # 24     ecut=    50.00 Ry     beta= 0.60
     Davidson diagonalization with overlap
     ethr =  3.43E-09,  avg # of iterations =  1.0

     total cpu time spent up to now is    11265.8 secs

     total energy              =    -587.09589318 Ry
     Harris-Foulkes estimate   =    -587.09589339 Ry
     estimated scf accuracy    <       0.00000085 Ry

     iteration # 25     ecut=    50.00 Ry     beta= 0.60
     Davidson diagonalization with overlap
     ethr =  1.35E-09,  avg # of iterations =  3.6

     total cpu time spent up to now is    11286.6 secs

     total energy              =    -587.09589331 Ry
     Harris-Foulkes estimate   =    -587.09589336 Ry
     estimated scf accuracy    <       0.00000027 Ry

     iteration # 26     ecut=    50.00 Ry     beta= 0.60
     Davidson diagonalization with overlap
     ethr =  4.21E-10,  avg # of iterations =  1.5

     total cpu time spent up to now is    11303.0 secs

     total energy              =    -587.09589333 Ry
     Harris-Foulkes estimate   =    -587.09589333 Ry
     estimated scf accuracy    <       0.00000002 Ry

     iteration # 27     ecut=    50.00 Ry     beta= 0.60
     Davidson diagonalization with overlap
     ethr =  3.05E-11,  avg # of iterations =  4.7

     total cpu time spent up to now is    11327.5 secs

     total energy              =    -587.09589333 Ry
     Harris-Foulkes estimate   =    -587.09589334 Ry
     estimated scf accuracy    <       0.00000010 Ry

     iteration # 28     ecut=    50.00 Ry     beta= 0.60
     Davidson diagonalization with overlap
     ethr =  3.05E-11,  avg # of iterations =  3.8

     total cpu time spent up to now is    11347.8 secs

     total energy              =    -587.09589333 Ry
     Harris-Foulkes estimate   =    -587.09589334 Ry
     estimated scf accuracy    <       0.00000001 Ry

     iteration # 29     ecut=    50.00 Ry     beta= 0.60
     Davidson diagonalization with overlap
     ethr =  2.25E-11,  avg # of iterations =  2.3

     total cpu time spent up to now is    11365.1 secs

     total energy              =    -587.09589333 Ry
     Harris-Foulkes estimate   =    -587.09589333 Ry
     estimated scf accuracy    <          1.6E-09 Ry

     iteration # 30     ecut=    50.00 Ry     beta= 0.60
     Davidson diagonalization with overlap
     ethr =  2.49E-12,  avg # of iterations =  4.0

     total cpu time spent up to now is    11388.3 secs

     total energy              =    -587.09589333 Ry
     Harris-Foulkes estimate   =    -587.09589334 Ry
     estimated scf accuracy    <          1.6E-09 Ry

     iteration # 31     ecut=    50.00 Ry     beta= 0.60
     Davidson diagonalization with overlap
     ethr =  2.46E-12,  avg # of iterations =  1.0

     total cpu time spent up to now is    11404.3 secs

     total energy              =    -587.09589334 Ry
     Harris-Foulkes estimate   =    -587.09589334 Ry
     estimated scf accuracy    <          1.9E-10 Ry

     iteration # 32     ecut=    50.00 Ry     beta= 0.60
     Davidson diagonalization with overlap
     ethr =  2.99E-13,  avg # of iterations =  4.0

     total cpu time spent up to now is    11426.6 secs

     total energy              =    -587.09589334 Ry
     Harris-Foulkes estimate   =    -587.09589334 Ry
     estimated scf accuracy    <          2.3E-11 Ry

     iteration # 33     ecut=    50.00 Ry     beta= 0.60
     Davidson diagonalization with overlap
     ethr =  1.00E-13,  avg # of iterations =  1.0

     total cpu time spent up to now is    11442.7 secs

     total energy              =    -587.09589334 Ry
     Harris-Foulkes estimate   =    -587.09589334 Ry
     estimated scf accuracy    <          1.1E-11 Ry

     iteration # 34     ecut=    50.00 Ry     beta= 0.60
     Davidson diagonalization with overlap
     ethr =  1.00E-13,  avg # of iterations =  1.0

     total cpu time spent up to now is    11458.7 secs

     total energy              =    -587.09589334 Ry
     Harris-Foulkes estimate   =    -587.09589334 Ry
     estimated scf accuracy    <          1.0E-12 Ry

     iteration # 35     ecut=    50.00 Ry     beta= 0.60
     Davidson diagonalization with overlap
     ethr =  1.00E-13,  avg # of iterations =  1.0

     total cpu time spent up to now is    11474.7 secs

     End of self-consistent calculation

     Number of k-points >= 100: set verbosity='high' to print the bands.

     the Fermi energy is    16.1402 ev

!    total energy              =    -587.09589334 Ry
     Harris-Foulkes estimate   =    -587.09589334 Ry
     estimated scf accuracy    <          3.1E-13 Ry

     The total energy is the sum of the following terms:

     one-electron contribution =    -130.55373367 Ry
     hartree contribution      =      93.66060641 Ry
     xc contribution           =     -84.40610023 Ry
     ewald contribution        =    -465.79686746 Ry
     smearing contrib. (-TS)   =       0.00020161 Ry

     convergence has been achieved in  35 iterations

     Forces acting on atoms (cartesian axes, Ry/au):

     atom    1 type  2   force =     0.00000723   -0.00000723   -0.00000723
     atom    2 type  1   force =     0.00000000    0.00000000    0.00000000
     atom    3 type  2   force =    -0.00000723    0.00000723    0.00000723
     atom    4 type  1   force =     0.00000271   -0.00000271   -0.00000271
     atom    5 type  1   force =    -0.00000271    0.00000271    0.00000271

     Total force =     0.000019     Total SCF correction =     0.000001


     Computing stress (Cartesian axis) and pressure

          total   stress  (Ry/bohr**3)                   (kbar)     P=   -1.05
  -0.00000716  -0.00000014  -0.00000014         -1.05     -0.02     -0.02
  -0.00000014  -0.00000716   0.00000014         -0.02     -1.05      0.02
  -0.00000014   0.00000014  -0.00000716         -0.02      0.02     -1.05

 
     init_run     :     22.64s CPU     23.24s WALL (       2 calls)
     electrons    :  10922.05s CPU  11167.66s WALL (      23 calls)
     update_pot   :     36.64s CPU     36.78s WALL (      21 calls)
     forces       :     61.39s CPU     63.99s WALL (      23 calls)
     stress       :    171.47s CPU    178.90s WALL (      23 calls)

     Called by init_run:
     wfcinit      :     20.25s CPU     20.62s WALL (       2 calls)
     potinit      :      0.70s CPU      0.72s WALL (       2 calls)
     hinit0       :      1.31s CPU      1.34s WALL (       2 calls)

     Called by electrons:
     c_bands      :   9050.10s CPU   9185.01s WALL (     436 calls)
     sum_band     :   1733.04s CPU   1793.87s WALL (     436 calls)
     v_of_rho     :     28.41s CPU     28.72s WALL (     450 calls)
     newd         :    112.77s CPU    158.81s WALL (     450 calls)
     mix_rho      :      3.07s CPU      3.10s WALL (     436 calls)

     Called by c_bands:
     init_us_2    :    118.53s CPU    119.30s WALL (  173880 calls)
     cegterg      :   8358.56s CPU   8459.54s WALL (   82404 calls)

     Called by sum_band:
     sum_band:bec :      2.29s CPU      2.47s WALL (   82404 calls)
     addusdens    :    128.62s CPU    169.68s WALL (     436 calls)

     Called by *egterg:
     h_psi        :   6517.57s CPU   6610.87s WALL (  323912 calls)
     s_psi        :    204.57s CPU    204.93s WALL (  323912 calls)
     g_psi        :     42.64s CPU     42.25s WALL (  241130 calls)
     cdiaghg      :    869.78s CPU    871.65s WALL (  317864 calls)

     Called by h_psi:
     h_psi:pot    :   6503.36s CPU   6596.09s WALL (  323912 calls)
     h_psi:calbec :    222.69s CPU    223.51s WALL (  323912 calls)
     vloc_psi     :   6074.39s CPU   6165.18s WALL (  323912 calls)
     add_vuspsi   :    205.05s CPU    205.66s WALL (  323912 calls)

     General routines
     calbec       :    327.13s CPU    328.13s WALL (  428051 calls)
     fft          :     16.90s CPU     17.18s WALL (    6432 calls)
     ffts         :      0.64s CPU      0.64s WALL (     886 calls)
     fftw         :   6738.40s CPU   6824.37s WALL (18933572 calls)
     interpolate  :      1.60s CPU      1.60s WALL (     450 calls)
 
     Parallel routines
     fft_scatt_xy :   1268.23s CPU   1281.95s WALL (18940890 calls)
     fft_scatt_yz :   1343.91s CPU   1337.26s WALL (18940890 calls)
 
     PWSCF        :     3h 7m CPU        7h 3m WALL

      11h
 
   This run was terminated on:  13:26: 1  25Feb2020            

=------------------------------------------------------------------------------=
   JOB DONE.
=------------------------------------------------------------------------------=
