
     Program PWSCF v.6.3MaX starts on  1Feb2020 at 12: 5:44 

     This program is part of the open-source Quantum ESPRESSO suite
     for quantum simulation of materials; please cite
         "P. Giannozzi et al., J. Phys.:Condens. Matter 21 395502 (2009);
         "P. Giannozzi et al., J. Phys.:Condens. Matter 29 465901 (2017);
          URL http://www.quantum-espresso.org", 
     in publications or presentations arising from this work. More details at
     http://www.quantum-espresso.org/quote

     Parallel version (MPI), running on     4 processors

     MPI processes distributed on     1 nodes
     R & G space division:  proc/nbgrp/npool/nimage =       4
     Waiting for input...
     Reading input from standard input

     Current dimensions of program PWSCF are:
     Max number of different atomic species (ntypx) = 10
     Max number of k-points (npk) =  40000
     Max angular momentum in pseudopotentials (lmaxx) =  3
     Message from routine iosys:
     minimal I/O required, wf_collect reset to FALSE

     Subspace diagonalization in iterative solution of the eigenvalue problem:
     a serial algorithm will be used

 
     Parallelization info
     --------------------
     sticks:   dense  smooth     PW     G-vecs:    dense   smooth      PW
     Min         861     343    104                36404     9203    1522
     Max         862     344    105                36405     9204    1524
     Sum        3447    1375    417               145617    36815    6091
 


     bravais-lattice index     =            0
     lattice parameter (alat)  =       1.8897  a.u.
     unit-cell volume          =    1077.7903 (a.u.)^3
     number of atoms/cell      =            8
     number of atomic types    =            2
     number of electrons       =       103.00
     number of Kohn-Sham states=           62
     kinetic-energy cutoff     =      40.0000  Ry
     charge density cutoff     =     400.0000  Ry
     convergence threshold     =      1.0E-10
     mixing beta               =       0.6000
     number of iterations used =            8  plain     mixing
     Exchange-correlation      = SLA PW PBE PBE ( 1  4  3  4 0 0)
     nstep                     =           50


     celldm(1)=   1.889726  celldm(2)=   0.000000  celldm(3)=   0.000000
     celldm(4)=   0.000000  celldm(5)=   0.000000  celldm(6)=   0.000000

     crystal axes: (cart. coord. in units of alat)
               a(1) = (  -1.522502   2.637051   4.972461 )  
               a(2) = (  -1.522502   2.637051  -4.972461 )  
               a(3) = (  -4.567506  -2.637051   0.000000 )  

     reciprocal axes: (cart. coord. in units 2 pi/alat)
               b(1) = ( -0.082102  0.142204  0.100554 )  
               b(2) = ( -0.082102  0.142204 -0.100554 )  
               b(3) = ( -0.164203 -0.094803  0.000000 )  


     PseudoPot. # 1 for Nb read from file:
     ./Nb.pbe-nsp-van.UPF
     MD5 check sum: 0a22fc7fb0ba19a08ca5db297a5d2854
     Pseudo is Ultrasoft + core correction, Zval = 13.0
     Generated by new atomic code, or converted to UPF format
     Using radial grid of  887 points,  6 beta functions with: 
                l(1) =   0
                l(2) =   0
                l(3) =   1
                l(4) =   1
                l(5) =   2
                l(6) =   2
     Q(r) pseudized with  6 coefficients,  rinner =    1.000   1.000   1.000
                                                       1.000   1.000

     PseudoPot. # 2 for Ti read from file:
     ./Ti.pbe-sp-van_ak.UPF
     MD5 check sum: f98fea3e8887528921fefa5636a534ca
     Pseudo is Ultrasoft, Zval = 12.0
     Generated by new atomic code, or converted to UPF format
     Using radial grid of  851 points,  6 beta functions with: 
                l(1) =   0
                l(2) =   0
                l(3) =   1
                l(4) =   1
                l(5) =   2
                l(6) =   2
     Q(r) pseudized with  8 coefficients,  rinner =    1.000   1.000   1.000
                                                       1.000   1.000

     atomic species   valence    mass     pseudopotential
        Nb            13.00    92.90638     Nb( 1.00)
        Ti            12.00    47.86700     Ti( 1.00)

      4 Sym. Ops. (no inversion) found



   Cartesian axes

     site n.     atom                  positions (alat units)
         1           Ti  tau(   1) = (  -7.6125106   2.6370512   0.0000000  )
         2           Nb  tau(   2) = (  -3.0450027   3.5160674  -2.4862307  )
         3           Nb  tau(   3) = (  -4.5675063   2.6370512   0.0000000  )
         4           Nb  tau(   4) = (  -4.5675048   0.8790162  -2.4862307  )
         5           Nb  tau(   5) = (  -6.0900085   0.0000000   0.0000000  )
         6           Nb  tau(   6) = (  -3.0450027   3.5160674   2.4862307  )
         7           Nb  tau(   7) = (  -3.0450042   0.0000000   0.0000000  )
         8           Nb  tau(   8) = (  -4.5675048   0.8790162   2.4862307  )

     number of k points=   186  Marzari-Vanderbilt smearing, width (Ry)=  0.0200

     Number of k-points >= 100: set verbosity='high' to print them.

     Dense  grid:   145617 G-vectors     FFT dimensions: (  72,  72,  64)

     Smooth grid:    36815 G-vectors     FFT dimensions: (  45,  45,  45)

     Estimated max dynamical RAM per process >     345.68 MB

     Estimated total dynamical RAM >       1.35 GB

     Check: negative/imaginary core charge=   -0.000001    0.000000

     Initial potential from superposition of free atoms

     starting charge  101.98082, renormalised to  103.00000
     Starting wfcs are  101 randomized atomic wfcs

     total cpu time spent up to now is       19.9 secs

     Self-consistent Calculation

     iteration #  1     ecut=    40.00 Ry     beta= 0.60
     Davidson diagonalization with overlap
     ethr =  1.00E-02,  avg # of iterations =  2.0

     total cpu time spent up to now is       55.2 secs

     total energy              =    -919.16765658 Ry
     Harris-Foulkes estimate   =    -944.63228111 Ry
     estimated scf accuracy    <      31.85647216 Ry

     iteration #  2     ecut=    40.00 Ry     beta= 0.60
     Davidson diagonalization with overlap
     ethr =  1.00E-02,  avg # of iterations =  5.2

     total cpu time spent up to now is      117.4 secs

     total energy              =    -925.57942012 Ry
     Harris-Foulkes estimate   =    -976.55816046 Ry
     estimated scf accuracy    <     159.47086172 Ry

     iteration #  3     ecut=    40.00 Ry     beta= 0.60
     Davidson diagonalization with overlap
     ethr =  1.00E-02,  avg # of iterations =  5.0

     total cpu time spent up to now is      175.1 secs

     total energy              =    -942.67768669 Ry
     Harris-Foulkes estimate   =    -945.94848383 Ry
     estimated scf accuracy    <      17.73106560 Ry

     iteration #  4     ecut=    40.00 Ry     beta= 0.60
     Davidson diagonalization with overlap
     ethr =  1.00E-02,  avg # of iterations =  2.6

     total cpu time spent up to now is      210.3 secs

     total energy              =    -943.23035513 Ry
     Harris-Foulkes estimate   =    -943.83321960 Ry
     estimated scf accuracy    <       6.45098544 Ry

     iteration #  5     ecut=    40.00 Ry     beta= 0.60
     Davidson diagonalization with overlap
     ethr =  6.26E-03,  avg # of iterations =  1.1

     total cpu time spent up to now is      240.4 secs

     total energy              =    -942.86972432 Ry
     Harris-Foulkes estimate   =    -943.39747632 Ry
     estimated scf accuracy    <       5.04340122 Ry

     iteration #  6     ecut=    40.00 Ry     beta= 0.60
     Davidson diagonalization with overlap
     ethr =  4.90E-03,  avg # of iterations =  1.0

     total cpu time spent up to now is      270.3 secs

     total energy              =    -942.17970858 Ry
     Harris-Foulkes estimate   =    -942.93903410 Ry
     estimated scf accuracy    <       3.98519201 Ry

     iteration #  7     ecut=    40.00 Ry     beta= 0.60
     Davidson diagonalization with overlap
     ethr =  3.87E-03,  avg # of iterations =  1.1

     total cpu time spent up to now is      300.6 secs

     total energy              =    -941.72369904 Ry
     Harris-Foulkes estimate   =    -942.30095173 Ry
     estimated scf accuracy    <       2.60542431 Ry

     iteration #  8     ecut=    40.00 Ry     beta= 0.60
     Davidson diagonalization with overlap
     ethr =  2.53E-03,  avg # of iterations =  3.8

     total cpu time spent up to now is      339.4 secs

     total energy              =    -941.96492643 Ry
     Harris-Foulkes estimate   =    -941.98221848 Ry
     estimated scf accuracy    <       0.07651040 Ry

     iteration #  9     ecut=    40.00 Ry     beta= 0.60
     Davidson diagonalization with overlap
     ethr =  7.43E-05,  avg # of iterations =  5.4

     total cpu time spent up to now is      389.8 secs

     total energy              =    -941.89462334 Ry
     Harris-Foulkes estimate   =    -941.98537160 Ry
     estimated scf accuracy    <       0.14263574 Ry

     iteration # 10     ecut=    40.00 Ry     beta= 0.60
     Davidson diagonalization with overlap
     ethr =  7.43E-05,  avg # of iterations =  5.9

     total cpu time spent up to now is      460.6 secs

     total energy              =    -941.23091169 Ry
     Harris-Foulkes estimate   =    -942.31732651 Ry
     estimated scf accuracy    <       9.38683246 Ry

     iteration # 11     ecut=    40.00 Ry     beta= 0.60
     Davidson diagonalization with overlap
     ethr =  7.43E-05,  avg # of iterations =  6.9

     total cpu time spent up to now is      530.4 secs

     total energy              =    -941.96975294 Ry
     Harris-Foulkes estimate   =    -942.01807607 Ry
     estimated scf accuracy    <       0.47889156 Ry

     iteration # 12     ecut=    40.00 Ry     beta= 0.60
     Davidson diagonalization with overlap
     ethr =  7.43E-05,  avg # of iterations =  4.4

     total cpu time spent up to now is      570.2 secs

     total energy              =    -941.97452451 Ry
     Harris-Foulkes estimate   =    -941.97858682 Ry
     estimated scf accuracy    <       0.14180435 Ry

     iteration # 13     ecut=    40.00 Ry     beta= 0.60
     Davidson diagonalization with overlap
     ethr =  7.43E-05,  avg # of iterations =  2.1

     total cpu time spent up to now is      603.2 secs

     total energy              =    -941.97262234 Ry
     Harris-Foulkes estimate   =    -941.97566015 Ry
     estimated scf accuracy    <       0.10162457 Ry

     iteration # 14     ecut=    40.00 Ry     beta= 0.60
     Davidson diagonalization with overlap
     ethr =  7.43E-05,  avg # of iterations =  1.0

     total cpu time spent up to now is      633.8 secs

     total energy              =    -941.96611741 Ry
     Harris-Foulkes estimate   =    -941.97310633 Ry
     estimated scf accuracy    <       0.07013361 Ry

     iteration # 15     ecut=    40.00 Ry     beta= 0.60
     Davidson diagonalization with overlap
     ethr =  6.81E-05,  avg # of iterations =  3.1

     total cpu time spent up to now is      669.5 secs

     total energy              =    -941.96810325 Ry
     Harris-Foulkes estimate   =    -941.96877569 Ry
     estimated scf accuracy    <       0.00848028 Ry

     iteration # 16     ecut=    40.00 Ry     beta= 0.60
     Davidson diagonalization with overlap
     ethr =  8.23E-06,  avg # of iterations =  5.5

     total cpu time spent up to now is      720.0 secs

     total energy              =    -941.96940634 Ry
     Harris-Foulkes estimate   =    -941.96943663 Ry
     estimated scf accuracy    <       0.00016800 Ry

     iteration # 17     ecut=    40.00 Ry     beta= 0.60
     Davidson diagonalization with overlap
     ethr =  1.63E-07,  avg # of iterations =  4.3

     total cpu time spent up to now is      763.1 secs

     total energy              =    -941.96939191 Ry
     Harris-Foulkes estimate   =    -941.96945692 Ry
     estimated scf accuracy    <       0.00042688 Ry

     iteration # 18     ecut=    40.00 Ry     beta= 0.60
     Davidson diagonalization with overlap
     ethr =  1.63E-07,  avg # of iterations =  4.1

     total cpu time spent up to now is      803.0 secs

     total energy              =    -941.96940903 Ry
     Harris-Foulkes estimate   =    -941.96942767 Ry
     estimated scf accuracy    <       0.00009964 Ry

     iteration # 19     ecut=    40.00 Ry     beta= 0.60
     Davidson diagonalization with overlap
     ethr =  9.67E-08,  avg # of iterations =  4.0

     total cpu time spent up to now is      843.3 secs

     total energy              =    -941.96940247 Ry
     Harris-Foulkes estimate   =    -941.96943375 Ry
     estimated scf accuracy    <       0.00026426 Ry

     iteration # 20     ecut=    40.00 Ry     beta= 0.60
     Davidson diagonalization with overlap
     ethr =  9.67E-08,  avg # of iterations =  3.9

     total cpu time spent up to now is      881.8 secs

     total energy              =    -941.96940868 Ry
     Harris-Foulkes estimate   =    -941.96941264 Ry
     estimated scf accuracy    <       0.00003441 Ry

     iteration # 21     ecut=    40.00 Ry     beta= 0.60
     Davidson diagonalization with overlap
     ethr =  3.34E-08,  avg # of iterations =  3.7

     total cpu time spent up to now is      918.9 secs

     total energy              =    -941.96941135 Ry
     Harris-Foulkes estimate   =    -941.96941140 Ry
     estimated scf accuracy    <       0.00000045 Ry

     iteration # 22     ecut=    40.00 Ry     beta= 0.60
     Davidson diagonalization with overlap
     ethr =  4.32E-10,  avg # of iterations =  5.0

     total cpu time spent up to now is      970.2 secs

     total energy              =    -941.96941167 Ry
     Harris-Foulkes estimate   =    -941.96941170 Ry
     estimated scf accuracy    <       0.00000017 Ry

     iteration # 23     ecut=    40.00 Ry     beta= 0.60
     Davidson diagonalization with overlap
     ethr =  1.64E-10,  avg # of iterations =  3.3

     total cpu time spent up to now is     1005.3 secs

     total energy              =    -941.96941169 Ry
     Harris-Foulkes estimate   =    -941.96941169 Ry
     estimated scf accuracy    <       0.00000002 Ry

     iteration # 24     ecut=    40.00 Ry     beta= 0.60
     Davidson diagonalization with overlap
     ethr =  1.65E-11,  avg # of iterations =  4.0

     total cpu time spent up to now is     1047.2 secs

     total energy              =    -941.96941169 Ry
     Harris-Foulkes estimate   =    -941.96941169 Ry
     estimated scf accuracy    <       0.00000002 Ry

     iteration # 25     ecut=    40.00 Ry     beta= 0.60
     Davidson diagonalization with overlap
     ethr =  1.65E-11,  avg # of iterations =  1.6

     total cpu time spent up to now is     1078.8 secs

     End of self-consistent calculation

     Number of k-points >= 100: set verbosity='high' to print the bands.

     the Fermi energy is    15.6984 ev

!    total energy              =    -941.96941169 Ry
     Harris-Foulkes estimate   =    -941.96941169 Ry
     estimated scf accuracy    <          6.3E-11 Ry

     The total energy is the sum of the following terms:

     one-electron contribution =    -191.78133110 Ry
     hartree contribution      =     139.89978564 Ry
     xc contribution           =    -142.75502347 Ry
     ewald contribution        =    -747.33135165 Ry
     smearing contrib. (-TS)   =      -0.00149111 Ry

     convergence has been achieved in  25 iterations

     Forces acting on atoms (cartesian axes, Ry/au):

     atom    1 type  2   force =     0.00002199    0.00001270    0.00000000
     atom    2 type  1   force =     0.00131045    0.00075659    0.00000000
     atom    3 type  1   force =    -0.00055500    0.00439682    0.00000000
     atom    4 type  1   force =    -0.00126886   -0.00073258   -0.00702496
     atom    5 type  1   force =    -0.00308044   -0.00177849    0.00000000
     atom    6 type  1   force =     0.00131045    0.00075659    0.00000000
     atom    7 type  1   force =     0.00353026   -0.00267905    0.00000000
     atom    8 type  1   force =    -0.00126886   -0.00073258    0.00702496

     Total force =     0.012630     Total SCF correction =     0.000037


     Computing stress (Cartesian axis) and pressure

          total   stress  (Ry/bohr**3)                   (kbar)     P= -108.34
  -0.00088946   0.00000014   0.00000000       -130.84      0.02      0.00
   0.00000014  -0.00088962   0.00000000          0.02   -130.87      0.00
   0.00000000   0.00000000  -0.00043045          0.00      0.00    -63.32


     BFGS Geometry Optimization

     number of scf cycles    =   1
     number of bfgs steps    =   0

     enthalpy new            =    -941.9694116906 Ry

     new trust radius        =       0.1460296206 bohr
     new conv_thr            =            1.0E-10 Ry

     new unit-cell volume =   1019.29830 a.u.^3 (   151.04442 Ang^3 )
     density =      7.67594 g/cm^3

CELL_PARAMETERS (alat=  1.88972599)
  -1.488637783   2.578396460   4.918950998
  -1.488637783   2.578396460  -4.918950998
  -4.465950104  -2.578417680  -0.000000000

ATOMIC_POSITIONS (angstrom)
Ti      -7.443214294   2.578381809  -0.000000000
Nb      -2.976602160   3.438249019  -2.459475499
Nb      -4.466218880   2.580660802  -0.000000000
Nb      -4.466592886   0.859071437  -2.463152945
Nb      -5.956181743  -0.000941433  -0.000000000
Nb      -2.976602160   3.438249019   2.459475499
Nb      -2.975467355  -0.001396767  -0.000000000
Nb      -4.466592886   0.859071437   2.463152945


     NEW-OLD atomic charge density approx. for the potential

     Check: negative/imaginary core charge=   -0.000001    0.000000
     extrapolated charge   97.14787, renormalised to  103.00000

     total cpu time spent up to now is     1098.9 secs

     Self-consistent Calculation

     iteration #  1     ecut=    40.00 Ry     beta= 0.60
     Davidson diagonalization with overlap
     c_bands:  1 eigenvalues not converged
     c_bands:  1 eigenvalues not converged
     c_bands:  1 eigenvalues not converged
     c_bands:  1 eigenvalues not converged
     c_bands:  1 eigenvalues not converged
     c_bands:  1 eigenvalues not converged
     c_bands:  1 eigenvalues not converged
     c_bands:  1 eigenvalues not converged
     c_bands:  1 eigenvalues not converged
     c_bands:  1 eigenvalues not converged
     c_bands:  1 eigenvalues not converged
     c_bands:  1 eigenvalues not converged
     c_bands:  1 eigenvalues not converged
     c_bands:  1 eigenvalues not converged
     c_bands:  1 eigenvalues not converged
     c_bands:  1 eigenvalues not converged
     c_bands:  2 eigenvalues not converged
     c_bands:  2 eigenvalues not converged
     c_bands:  1 eigenvalues not converged
     c_bands:  1 eigenvalues not converged
     c_bands:  1 eigenvalues not converged
     c_bands:  1 eigenvalues not converged
     c_bands:  1 eigenvalues not converged
     c_bands:  1 eigenvalues not converged
     c_bands:  1 eigenvalues not converged
     c_bands:  1 eigenvalues not converged
     c_bands:  1 eigenvalues not converged
     c_bands:  2 eigenvalues not converged
     c_bands:  1 eigenvalues not converged
     c_bands:  1 eigenvalues not converged
     c_bands:  1 eigenvalues not converged
     c_bands:  1 eigenvalues not converged
     c_bands:  1 eigenvalues not converged
     c_bands:  1 eigenvalues not converged
     c_bands:  1 eigenvalues not converged
     ethr =  1.00E-06,  avg # of iterations = 14.5

     total cpu time spent up to now is     1224.7 secs

     total energy              =    -937.82470955 Ry
     Harris-Foulkes estimate   =    -948.99694134 Ry
     estimated scf accuracy    <       4.40566855 Ry

     iteration #  2     ecut=    40.00 Ry     beta= 0.60
     Davidson diagonalization with overlap
     ethr =  4.28E-03,  avg # of iterations =  5.4

     total cpu time spent up to now is     1282.4 secs

     total energy              =    -942.04420255 Ry
     Harris-Foulkes estimate   =    -947.19513333 Ry
     estimated scf accuracy    <      14.58561586 Ry

     iteration #  3     ecut=    40.00 Ry     beta= 0.60
     Davidson diagonalization with overlap
     ethr =  4.28E-03,  avg # of iterations =  3.0

     total cpu time spent up to now is     1322.1 secs

     total energy              =    -942.36425075 Ry
     Harris-Foulkes estimate   =    -943.11768767 Ry
     estimated scf accuracy    <       4.24526459 Ry

     iteration #  4     ecut=    40.00 Ry     beta= 0.60
     Davidson diagonalization with overlap
     ethr =  4.12E-03,  avg # of iterations =  1.1

     total cpu time spent up to now is     1352.6 secs

     total energy              =    -942.08847811 Ry
     Harris-Foulkes estimate   =    -942.63117245 Ry
     estimated scf accuracy    <       3.29631303 Ry

     iteration #  5     ecut=    40.00 Ry     beta= 0.60
     Davidson diagonalization with overlap
     ethr =  3.20E-03,  avg # of iterations =  1.2

     total cpu time spent up to now is     1383.2 secs

     total energy              =    -941.91151611 Ry
     Harris-Foulkes estimate   =    -942.19329521 Ry
     estimated scf accuracy    <       1.84261554 Ry

     iteration #  6     ecut=    40.00 Ry     beta= 0.60
     Davidson diagonalization with overlap
     ethr =  1.79E-03,  avg # of iterations =  3.9

     total cpu time spent up to now is     1420.0 secs

     total energy              =    -941.94085830 Ry
     Harris-Foulkes estimate   =    -942.02216518 Ry
     estimated scf accuracy    <       0.56042093 Ry

     iteration #  7     ecut=    40.00 Ry     beta= 0.60
     Davidson diagonalization with overlap
     ethr =  5.44E-04,  avg # of iterations =  4.5

     total cpu time spent up to now is     1465.3 secs

     total energy              =    -942.02755469 Ry
     Harris-Foulkes estimate   =    -942.03166489 Ry
     estimated scf accuracy    <       0.08814599 Ry

     iteration #  8     ecut=    40.00 Ry     beta= 0.60
     Davidson diagonalization with overlap
     ethr =  8.56E-05,  avg # of iterations =  5.5

     total cpu time spent up to now is     1519.3 secs

     total energy              =    -942.07433523 Ry
     Harris-Foulkes estimate   =    -942.09332483 Ry
     estimated scf accuracy    <       0.62507990 Ry

     iteration #  9     ecut=    40.00 Ry     beta= 0.60
     Davidson diagonalization with overlap
     ethr =  8.56E-05,  avg # of iterations =  1.0

     total cpu time spent up to now is     1549.6 secs

     total energy              =    -942.09490300 Ry
     Harris-Foulkes estimate   =    -942.07487603 Ry
     estimated scf accuracy    <       0.55596176 Ry

     iteration # 10     ecut=    40.00 Ry     beta= 0.60
     Davidson diagonalization with overlap
     ethr =  8.56E-05,  avg # of iterations =  1.0

     total cpu time spent up to now is     1579.9 secs

     total energy              =    -941.88040369 Ry
     Harris-Foulkes estimate   =    -942.09537341 Ry
     estimated scf accuracy    <       0.63403370 Ry

     iteration # 11     ecut=    40.00 Ry     beta= 0.60
     Davidson diagonalization with overlap
     ethr =  8.56E-05,  avg # of iterations =  5.9

     total cpu time spent up to now is     1648.0 secs

     total energy              =    -942.01415992 Ry
     Harris-Foulkes estimate   =    -942.05880932 Ry
     estimated scf accuracy    <       1.16999346 Ry

     iteration # 12     ecut=    40.00 Ry     beta= 0.60
     Davidson diagonalization with overlap
     ethr =  8.56E-05,  avg # of iterations =  1.4

     total cpu time spent up to now is     1679.1 secs

     total energy              =    -942.00262692 Ry
     Harris-Foulkes estimate   =    -942.02169980 Ry
     estimated scf accuracy    <       0.48572227 Ry

     iteration # 13     ecut=    40.00 Ry     beta= 0.60
     Davidson diagonalization with overlap
     ethr =  8.56E-05,  avg # of iterations =  3.6

     total cpu time spent up to now is     1716.7 secs

     total energy              =    -942.00177038 Ry
     Harris-Foulkes estimate   =    -942.00995123 Ry
     estimated scf accuracy    <       0.13153944 Ry

     iteration # 14     ecut=    40.00 Ry     beta= 0.60
     Davidson diagonalization with overlap
     ethr =  8.56E-05,  avg # of iterations =  1.1

     total cpu time spent up to now is     1747.2 secs

     total energy              =    -942.00233576 Ry
     Harris-Foulkes estimate   =    -942.00390585 Ry
     estimated scf accuracy    <       0.03479235 Ry

     iteration # 15     ecut=    40.00 Ry     beta= 0.60
     Davidson diagonalization with overlap
     ethr =  3.38E-05,  avg # of iterations =  4.1

     total cpu time spent up to now is     1784.4 secs

     total energy              =    -942.00271048 Ry
     Harris-Foulkes estimate   =    -942.00332444 Ry
     estimated scf accuracy    <       0.00946646 Ry

     iteration # 16     ecut=    40.00 Ry     beta= 0.60
     Davidson diagonalization with overlap
     ethr =  9.19E-06,  avg # of iterations =  5.6

     total cpu time spent up to now is     1827.8 secs

     total energy              =    -942.00308757 Ry
     Harris-Foulkes estimate   =    -942.00316808 Ry
     estimated scf accuracy    <       0.00138252 Ry

     iteration # 17     ecut=    40.00 Ry     beta= 0.60
     Davidson diagonalization with overlap
     c_bands:  1 eigenvalues not converged
     ethr =  1.34E-06,  avg # of iterations =  4.1

     total cpu time spent up to now is     1865.9 secs

     total energy              =    -942.00313693 Ry
     Harris-Foulkes estimate   =    -942.00312965 Ry
     estimated scf accuracy    <       0.00039830 Ry

     iteration # 18     ecut=    40.00 Ry     beta= 0.60
     Davidson diagonalization with overlap
     ethr =  3.87E-07,  avg # of iterations =  1.4

     total cpu time spent up to now is     1896.9 secs

     total energy              =    -942.00307058 Ry
     Harris-Foulkes estimate   =    -942.00314034 Ry
     estimated scf accuracy    <       0.00049610 Ry

     iteration # 19     ecut=    40.00 Ry     beta= 0.60
     Davidson diagonalization with overlap
     ethr =  3.87E-07,  avg # of iterations =  3.7

     total cpu time spent up to now is     1933.7 secs

     total energy              =    -942.00310881 Ry
     Harris-Foulkes estimate   =    -942.00310889 Ry
     estimated scf accuracy    <       0.00000153 Ry

     iteration # 20     ecut=    40.00 Ry     beta= 0.60
     Davidson diagonalization with overlap
     ethr =  1.48E-09,  avg # of iterations =  5.8

     total cpu time spent up to now is     1992.2 secs

     total energy              =    -942.00311330 Ry
     Harris-Foulkes estimate   =    -942.00311431 Ry
     estimated scf accuracy    <       0.00001531 Ry

     iteration # 21     ecut=    40.00 Ry     beta= 0.60
     Davidson diagonalization with overlap
     ethr =  1.48E-09,  avg # of iterations =  3.9

     total cpu time spent up to now is     2029.7 secs

     total energy              =    -942.00311300 Ry
     Harris-Foulkes estimate   =    -942.00311347 Ry
     estimated scf accuracy    <       0.00000675 Ry

     iteration # 22     ecut=    40.00 Ry     beta= 0.60
     Davidson diagonalization with overlap
     ethr =  1.48E-09,  avg # of iterations =  3.1

     total cpu time spent up to now is     2065.4 secs

     total energy              =    -942.00311298 Ry
     Harris-Foulkes estimate   =    -942.00311313 Ry
     estimated scf accuracy    <       0.00000204 Ry

     iteration # 23     ecut=    40.00 Ry     beta= 0.60
     Davidson diagonalization with overlap
     ethr =  1.48E-09,  avg # of iterations =  2.6

     total cpu time spent up to now is     2099.7 secs

     total energy              =    -942.00311299 Ry
     Harris-Foulkes estimate   =    -942.00311304 Ry
     estimated scf accuracy    <       0.00000048 Ry

     iteration # 24     ecut=    40.00 Ry     beta= 0.60
     Davidson diagonalization with overlap
     ethr =  4.68E-10,  avg # of iterations =  3.1

     total cpu time spent up to now is     2135.6 secs

     total energy              =    -942.00311302 Ry
     Harris-Foulkes estimate   =    -942.00311302 Ry
     estimated scf accuracy    <       0.00000003 Ry

     iteration # 25     ecut=    40.00 Ry     beta= 0.60
     Davidson diagonalization with overlap
     ethr =  2.57E-11,  avg # of iterations =  4.5

     total cpu time spent up to now is     2179.4 secs

     total energy              =    -942.00311302 Ry
     Harris-Foulkes estimate   =    -942.00311303 Ry
     estimated scf accuracy    <          4.1E-09 Ry

     iteration # 26     ecut=    40.00 Ry     beta= 0.60
     Davidson diagonalization with overlap
     ethr =  4.00E-12,  avg # of iterations =  2.3

     total cpu time spent up to now is     2213.0 secs

     total energy              =    -942.00311303 Ry
     Harris-Foulkes estimate   =    -942.00311303 Ry
     estimated scf accuracy    <          3.7E-10 Ry

     iteration # 27     ecut=    40.00 Ry     beta= 0.60
     Davidson diagonalization with overlap
     ethr =  3.61E-13,  avg # of iterations =  4.1

     total cpu time spent up to now is     2256.1 secs

     total energy              =    -942.00311303 Ry
     Harris-Foulkes estimate   =    -942.00311303 Ry
     estimated scf accuracy    <          1.2E-10 Ry

     iteration # 28     ecut=    40.00 Ry     beta= 0.60
     Davidson diagonalization with overlap
     ethr =  1.12E-13,  avg # of iterations =  3.9

     total cpu time spent up to now is     2295.2 secs

     End of self-consistent calculation

     Number of k-points >= 100: set verbosity='high' to print the bands.

     the Fermi energy is    16.7502 ev

!    total energy              =    -942.00311303 Ry
     Harris-Foulkes estimate   =    -942.00311303 Ry
     estimated scf accuracy    <          5.5E-11 Ry

     The total energy is the sum of the following terms:

     one-electron contribution =    -171.72340152 Ry
     hartree contribution      =     134.28291513 Ry
     xc contribution           =    -143.20293787 Ry
     ewald contribution        =    -761.35901028 Ry
     smearing contrib. (-TS)   =      -0.00067849 Ry

     convergence has been achieved in  28 iterations

     Forces acting on atoms (cartesian axes, Ry/au):

     atom    1 type  2   force =    -0.00050819   -0.00029340    0.00000000
     atom    2 type  1   force =     0.00216660    0.00125089    0.00000000
     atom    3 type  1   force =    -0.00149863    0.00538388    0.00000000
     atom    4 type  1   force =    -0.00221134   -0.00127672   -0.00779279
     atom    5 type  1   force =    -0.00181696   -0.00104902    0.00000000
     atom    6 type  1   force =     0.00216660    0.00125089    0.00000000
     atom    7 type  1   force =     0.00391326   -0.00398979    0.00000000
     atom    8 type  1   force =    -0.00221134   -0.00127672    0.00779279

     Total force =     0.014636     Total SCF correction =     0.000016


     Computing stress (Cartesian axis) and pressure

          total   stress  (Ry/bohr**3)                   (kbar)     P=  -37.21
  -0.00042174   0.00000077  -0.00000000        -62.04      0.11     -0.00
   0.00000077  -0.00042263   0.00000000          0.11    -62.17      0.00
   0.00000000  -0.00000000   0.00008562          0.00     -0.00     12.59


     number of scf cycles    =   2
     number of bfgs steps    =   1

     enthalpy old            =    -941.9694116906 Ry
     enthalpy new            =    -942.0031130251 Ry

     CASE: enthalpy_new < enthalpy_old

     new trust radius        =       0.1263502286 bohr
     new conv_thr            =            1.0E-10 Ry

     new unit-cell volume =    981.53791 a.u.^3 (   145.44891 Ang^3 )
     density =      7.97124 g/cm^3

CELL_PARAMETERS (alat=  1.88972599)
  -1.459153613   2.527328384   4.929712636
  -1.459153613   2.527328384  -4.929712636
  -4.377826643  -2.527539580  -0.000000000

ATOMIC_POSITIONS (angstrom)
Ti      -7.296536962   2.526884462  -0.000000000
Nb      -2.915855964   3.371184731  -2.464856318
Nb      -4.379181848   2.534104807  -0.000000000
Nb      -4.380227133   0.840843990  -2.475623587
Nb      -5.840203783  -0.002072300  -0.000000000
Nb      -2.915855964   3.371184731   2.464856318
Nb      -2.913299176  -0.004878648  -0.000000000
Nb      -4.380227133   0.840843990   2.475623587


     NEW-OLD atomic charge density approx. for the potential

     Check: negative/imaginary core charge=   -0.000001    0.000000
     extrapolated charge   99.07673, renormalised to  103.00000

     total cpu time spent up to now is     2315.5 secs

     Self-consistent Calculation

     iteration #  1     ecut=    40.00 Ry     beta= 0.60
     Davidson diagonalization with overlap
     c_bands:  1 eigenvalues not converged
     ethr =  1.00E-06,  avg # of iterations = 11.6

     total cpu time spent up to now is     2438.1 secs

     total energy              =    -940.87836778 Ry
     Harris-Foulkes estimate   =    -946.32744323 Ry
     estimated scf accuracy    <       1.12080692 Ry

     iteration #  2     ecut=    40.00 Ry     beta= 0.60
     Davidson diagonalization with overlap
     ethr =  1.09E-03,  avg # of iterations =  6.3

     total cpu time spent up to now is     2507.4 secs

     total energy              =    -941.89311128 Ry
     Harris-Foulkes estimate   =    -943.68404395 Ry
     estimated scf accuracy    <       5.96077935 Ry

     iteration #  3     ecut=    40.00 Ry     beta= 0.60
     Davidson diagonalization with overlap
     ethr =  1.09E-03,  avg # of iterations =  4.1

     total cpu time spent up to now is     2555.1 secs

     total energy              =    -942.04302420 Ry
     Harris-Foulkes estimate   =    -942.28627898 Ry
     estimated scf accuracy    <       1.32043574 Ry

     iteration #  4     ecut=    40.00 Ry     beta= 0.60
     Davidson diagonalization with overlap
     ethr =  1.09E-03,  avg # of iterations =  1.9

     total cpu time spent up to now is     2587.3 secs

     total energy              =    -941.98914514 Ry
     Harris-Foulkes estimate   =    -942.14216707 Ry
     estimated scf accuracy    <       1.09319485 Ry

     iteration #  5     ecut=    40.00 Ry     beta= 0.60
     Davidson diagonalization with overlap
     ethr =  1.06E-03,  avg # of iterations =  2.2

     total cpu time spent up to now is     2620.3 secs

     total energy              =    -942.01221022 Ry
     Harris-Foulkes estimate   =    -942.04651307 Ry
     estimated scf accuracy    <       0.26943245 Ry

     iteration #  6     ecut=    40.00 Ry     beta= 0.60
     Davidson diagonalization with overlap
     ethr =  2.62E-04,  avg # of iterations =  3.9

     total cpu time spent up to now is     2657.7 secs

     total energy              =    -942.02158240 Ry
     Harris-Foulkes estimate   =    -942.02851537 Ry
     estimated scf accuracy    <       0.09074512 Ry

     iteration #  7     ecut=    40.00 Ry     beta= 0.60
     Davidson diagonalization with overlap
     ethr =  8.81E-05,  avg # of iterations =  3.9

     total cpu time spent up to now is     2694.4 secs

     total energy              =    -942.02295877 Ry
     Harris-Foulkes estimate   =    -942.02531722 Ry
     estimated scf accuracy    <       0.06693670 Ry

     iteration #  8     ecut=    40.00 Ry     beta= 0.60
     Davidson diagonalization with overlap
     ethr =  6.50E-05,  avg # of iterations =  1.1

     total cpu time spent up to now is     2724.8 secs

     total energy              =    -942.01799943 Ry
     Harris-Foulkes estimate   =    -942.02367790 Ry
     estimated scf accuracy    <       0.06619466 Ry

     iteration #  9     ecut=    40.00 Ry     beta= 0.60
     Davidson diagonalization with overlap
     ethr =  6.43E-05,  avg # of iterations =  1.1

     total cpu time spent up to now is     2755.2 secs

     total energy              =    -942.00430128 Ry
     Harris-Foulkes estimate   =    -942.01864237 Ry
     estimated scf accuracy    <       0.04553660 Ry

     iteration # 10     ecut=    40.00 Ry     beta= 0.60
     Davidson diagonalization with overlap
     ethr =  4.42E-05,  avg # of iterations =  6.1

     total cpu time spent up to now is     2808.2 secs

     total energy              =    -942.01464858 Ry
     Harris-Foulkes estimate   =    -942.01590915 Ry
     estimated scf accuracy    <       0.04006321 Ry

     iteration # 11     ecut=    40.00 Ry     beta= 0.60
     Davidson diagonalization with overlap
     ethr =  3.89E-05,  avg # of iterations =  1.0

     total cpu time spent up to now is     2838.5 secs

     total energy              =    -942.01105154 Ry
     Harris-Foulkes estimate   =    -942.01480618 Ry
     estimated scf accuracy    <       0.02527691 Ry

     iteration # 12     ecut=    40.00 Ry     beta= 0.60
     Davidson diagonalization with overlap
     ethr =  2.45E-05,  avg # of iterations =  3.4

     total cpu time spent up to now is     2874.1 secs

     total energy              =    -942.01318495 Ry
     Harris-Foulkes estimate   =    -942.01325946 Ry
     estimated scf accuracy    <       0.00050916 Ry

     iteration # 13     ecut=    40.00 Ry     beta= 0.60
     Davidson diagonalization with overlap
     ethr =  4.94E-07,  avg # of iterations =  5.8

     total cpu time spent up to now is     2930.2 secs

     total energy              =    -942.01342391 Ry
     Harris-Foulkes estimate   =    -942.01343478 Ry
     estimated scf accuracy    <       0.00020742 Ry

     iteration # 14     ecut=    40.00 Ry     beta= 0.60
     Davidson diagonalization with overlap
     ethr =  2.01E-07,  avg # of iterations =  1.0

     total cpu time spent up to now is     2960.6 secs

     total energy              =    -942.01341054 Ry
     Harris-Foulkes estimate   =    -942.01342556 Ry
     estimated scf accuracy    <       0.00010568 Ry

     iteration # 15     ecut=    40.00 Ry     beta= 0.60
     Davidson diagonalization with overlap
     ethr =  1.03E-07,  avg # of iterations =  2.9

     total cpu time spent up to now is     2996.4 secs

     total energy              =    -942.01342010 Ry
     Harris-Foulkes estimate   =    -942.01342032 Ry
     estimated scf accuracy    <       0.00000265 Ry

     iteration # 16     ecut=    40.00 Ry     beta= 0.60
     Davidson diagonalization with overlap
     ethr =  2.58E-09,  avg # of iterations =  3.8

     total cpu time spent up to now is     3036.0 secs

     total energy              =    -942.01342044 Ry
     Harris-Foulkes estimate   =    -942.01342039 Ry
     estimated scf accuracy    <       0.00000091 Ry

     iteration # 17     ecut=    40.00 Ry     beta= 0.60
     Davidson diagonalization with overlap
     ethr =  8.79E-10,  avg # of iterations =  1.6

     total cpu time spent up to now is     3067.4 secs

     total energy              =    -942.01342025 Ry
     Harris-Foulkes estimate   =    -942.01342047 Ry
     estimated scf accuracy    <       0.00000171 Ry

     iteration # 18     ecut=    40.00 Ry     beta= 0.60
     Davidson diagonalization with overlap
     ethr =  8.79E-10,  avg # of iterations =  2.1

     total cpu time spent up to now is     3099.8 secs

     total energy              =    -942.01342030 Ry
     Harris-Foulkes estimate   =    -942.01342032 Ry
     estimated scf accuracy    <       0.00000015 Ry

     iteration # 19     ecut=    40.00 Ry     beta= 0.60
     Davidson diagonalization with overlap
     ethr =  1.43E-10,  avg # of iterations =  4.1

     total cpu time spent up to now is     3142.8 secs

     total energy              =    -942.01342033 Ry
     Harris-Foulkes estimate   =    -942.01342033 Ry
     estimated scf accuracy    <       0.00000003 Ry

     iteration # 20     ecut=    40.00 Ry     beta= 0.60
     Davidson diagonalization with overlap
     ethr =  2.57E-11,  avg # of iterations =  3.7

     total cpu time spent up to now is     3180.3 secs

     total energy              =    -942.01342032 Ry
     Harris-Foulkes estimate   =    -942.01342033 Ry
     estimated scf accuracy    <       0.00000010 Ry

     iteration # 21     ecut=    40.00 Ry     beta= 0.60
     Davidson diagonalization with overlap
     ethr =  2.57E-11,  avg # of iterations =  3.3

     total cpu time spent up to now is     3215.4 secs

     total energy              =    -942.01342032 Ry
     Harris-Foulkes estimate   =    -942.01342033 Ry
     estimated scf accuracy    <       0.00000002 Ry

     iteration # 22     ecut=    40.00 Ry     beta= 0.60
     Davidson diagonalization with overlap
     ethr =  2.20E-11,  avg # of iterations =  3.0

     total cpu time spent up to now is     3250.7 secs

     total energy              =    -942.01342033 Ry
     Harris-Foulkes estimate   =    -942.01342033 Ry
     estimated scf accuracy    <          3.2E-10 Ry

     iteration # 23     ecut=    40.00 Ry     beta= 0.60
     Davidson diagonalization with overlap
     ethr =  3.15E-13,  avg # of iterations =  5.1

     total cpu time spent up to now is     3301.5 secs

     total energy              =    -942.01342033 Ry
     Harris-Foulkes estimate   =    -942.01342033 Ry
     estimated scf accuracy    <          3.3E-10 Ry

     iteration # 24     ecut=    40.00 Ry     beta= 0.60
     Davidson diagonalization with overlap
     ethr =  3.15E-13,  avg # of iterations =  3.4

     total cpu time spent up to now is     3337.7 secs

     End of self-consistent calculation

     Number of k-points >= 100: set verbosity='high' to print the bands.

     the Fermi energy is    17.4839 ev

!    total energy              =    -942.01342033 Ry
     Harris-Foulkes estimate   =    -942.01342033 Ry
     estimated scf accuracy    <          3.5E-11 Ry

     The total energy is the sum of the following terms:

     one-electron contribution =    -158.20645694 Ry
     hartree contribution      =     130.62505046 Ry
     xc contribution           =    -143.52791498 Ry
     ewald contribution        =    -770.90369370 Ry
     smearing contrib. (-TS)   =      -0.00040516 Ry

     convergence has been achieved in  24 iterations

     Forces acting on atoms (cartesian axes, Ry/au):

     atom    1 type  2   force =    -0.00172496   -0.00099591    0.00000000
     atom    2 type  1   force =     0.00196647    0.00113534    0.00000000
     atom    3 type  1   force =    -0.00166510    0.00472314    0.00000000
     atom    4 type  1   force =    -0.00233709   -0.00134932   -0.00630942
     atom    5 type  1   force =     0.00087350    0.00050431    0.00000000
     atom    6 type  1   force =     0.00196647    0.00113534    0.00000000
     atom    7 type  1   force =     0.00325781   -0.00380359    0.00000000
     atom    8 type  1   force =    -0.00233709   -0.00134932    0.00630942

     Total force =     0.012635     Total SCF correction =     0.000005


     Computing stress (Cartesian axis) and pressure

          total   stress  (Ry/bohr**3)                   (kbar)     P=   19.63
  -0.00003190   0.00000110   0.00000000         -4.69      0.16      0.00
   0.00000110  -0.00003318   0.00000000          0.16     -4.88      0.00
   0.00000000   0.00000000   0.00046548          0.00      0.00     68.48


     number of scf cycles    =   3
     number of bfgs steps    =   2

     enthalpy old            =    -942.0031130251 Ry
     enthalpy new            =    -942.0134203264 Ry

     CASE: enthalpy_new < enthalpy_old

     new trust radius        =       0.0740533148 bohr
     new conv_thr            =            1.0E-10 Ry

     new unit-cell volume =    975.62274 a.u.^3 (   144.57237 Ang^3 )
     density =      8.01957 g/cm^3

CELL_PARAMETERS (alat=  1.88972599)
  -1.446160183   2.504823105   4.987974259
  -1.446160183   2.504823105  -4.987974259
  -4.339257378  -2.505271606  -0.000000000

ATOMIC_POSITIONS (angstrom)
Ti      -7.233052135   2.503523364  -0.000000000
Nb      -2.888312726   3.342076282  -2.493987130
Nb      -4.341677075   2.515507272  -0.000000000
Nb      -4.343360809   0.832121746  -2.511018272
Nb      -5.788721665  -0.002356127  -0.000000000
Nb      -2.888312726   3.342076282   2.493987130
Nb      -2.884665868  -0.008110355  -0.000000000
Nb      -4.343360809   0.832121746   2.511018272


     NEW-OLD atomic charge density approx. for the potential

     Check: negative/imaginary core charge=   -0.000001    0.000000
     extrapolated charge  102.38169, renormalised to  103.00000

     total cpu time spent up to now is     3358.0 secs

     Self-consistent Calculation

     iteration #  1     ecut=    40.00 Ry     beta= 0.60
     Davidson diagonalization with overlap
     c_bands:  1 eigenvalues not converged
     c_bands:  1 eigenvalues not converged
     c_bands:  1 eigenvalues not converged
     c_bands:  1 eigenvalues not converged
     c_bands:  1 eigenvalues not converged
     c_bands:  1 eigenvalues not converged
     c_bands:  1 eigenvalues not converged
     c_bands:  1 eigenvalues not converged
     c_bands:  1 eigenvalues not converged
     c_bands:  1 eigenvalues not converged
     c_bands:  1 eigenvalues not converged
     c_bands:  1 eigenvalues not converged
     c_bands:  1 eigenvalues not converged
     ethr =  1.00E-06,  avg # of iterations = 11.3

     total cpu time spent up to now is     3456.1 secs

     total energy              =    -941.99972938 Ry
     Harris-Foulkes estimate   =    -942.68260986 Ry
     estimated scf accuracy    <       0.01839020 Ry

     iteration #  2     ecut=    40.00 Ry     beta= 0.60
     Davidson diagonalization with overlap
     c_bands:  1 eigenvalues not converged
     c_bands:  1 eigenvalues not converged
     ethr =  1.79E-05,  avg # of iterations =  8.4

     total cpu time spent up to now is     3529.4 secs

     total energy              =    -941.99025403 Ry
     Harris-Foulkes estimate   =    -942.06491457 Ry
     estimated scf accuracy    <       0.47637689 Ry

     iteration #  3     ecut=    40.00 Ry     beta= 0.60
     Davidson diagonalization with overlap
     ethr =  1.79E-05,  avg # of iterations =  5.1

     total cpu time spent up to now is     3587.8 secs

     total energy              =    -942.01823438 Ry
     Harris-Foulkes estimate   =    -942.02183959 Ry
     estimated scf accuracy    <       0.01006531 Ry

     iteration #  4     ecut=    40.00 Ry     beta= 0.60
     Davidson diagonalization with overlap
     ethr =  9.77E-06,  avg # of iterations =  3.3

     total cpu time spent up to now is     3627.0 secs

     total energy              =    -942.01858400 Ry
     Harris-Foulkes estimate   =    -942.02050218 Ry
     estimated scf accuracy    <       0.01409734 Ry

     iteration #  5     ecut=    40.00 Ry     beta= 0.60
     Davidson diagonalization with overlap
     ethr =  9.77E-06,  avg # of iterations =  1.7

     total cpu time spent up to now is     3658.6 secs

     total energy              =    -942.01896338 Ry
     Harris-Foulkes estimate   =    -942.01938246 Ry
     estimated scf accuracy    <       0.00389345 Ry

     iteration #  6     ecut=    40.00 Ry     beta= 0.60
     Davidson diagonalization with overlap
     ethr =  3.78E-06,  avg # of iterations =  2.0

     total cpu time spent up to now is     3690.8 secs

     total energy              =    -942.01878122 Ry
     Harris-Foulkes estimate   =    -942.01911360 Ry
     estimated scf accuracy    <       0.00199950 Ry

     iteration #  7     ecut=    40.00 Ry     beta= 0.60
     Davidson diagonalization with overlap
     ethr =  1.94E-06,  avg # of iterations =  2.8

     total cpu time spent up to now is     3724.8 secs

     total energy              =    -942.01876374 Ry
     Harris-Foulkes estimate   =    -942.01889514 Ry
     estimated scf accuracy    <       0.00054511 Ry

     iteration #  8     ecut=    40.00 Ry     beta= 0.60
     Davidson diagonalization with overlap
     ethr =  5.29E-07,  avg # of iterations =  4.3

     total cpu time spent up to now is     3767.2 secs

     total energy              =    -942.01883204 Ry
     Harris-Foulkes estimate   =    -942.01886180 Ry
     estimated scf accuracy    <       0.00021798 Ry

     iteration #  9     ecut=    40.00 Ry     beta= 0.60
     Davidson diagonalization with overlap
     ethr =  2.12E-07,  avg # of iterations =  1.3

     total cpu time spent up to now is     3798.0 secs

     total energy              =    -942.01883212 Ry
     Harris-Foulkes estimate   =    -942.01884334 Ry
     estimated scf accuracy    <       0.00006991 Ry

     iteration # 10     ecut=    40.00 Ry     beta= 0.60
     Davidson diagonalization with overlap
     ethr =  6.79E-08,  avg # of iterations =  3.1

     total cpu time spent up to now is     3835.6 secs

     total energy              =    -942.01883957 Ry
     Harris-Foulkes estimate   =    -942.01884101 Ry
     estimated scf accuracy    <       0.00000563 Ry

     iteration # 11     ecut=    40.00 Ry     beta= 0.60
     Davidson diagonalization with overlap
     ethr =  5.47E-09,  avg # of iterations =  3.0

     total cpu time spent up to now is     3874.4 secs

     total energy              =    -942.01884021 Ry
     Harris-Foulkes estimate   =    -942.01884039 Ry
     estimated scf accuracy    <       0.00000134 Ry

     iteration # 12     ecut=    40.00 Ry     beta= 0.60
     Davidson diagonalization with overlap
     ethr =  1.31E-09,  avg # of iterations =  3.3

     total cpu time spent up to now is     3910.7 secs

     total energy              =    -942.01884031 Ry
     Harris-Foulkes estimate   =    -942.01884033 Ry
     estimated scf accuracy    <       0.00000010 Ry

     iteration # 13     ecut=    40.00 Ry     beta= 0.60
     Davidson diagonalization with overlap
     ethr =  9.50E-11,  avg # of iterations =  4.2

     total cpu time spent up to now is     3957.4 secs

     total energy              =    -942.01884034 Ry
     Harris-Foulkes estimate   =    -942.01884034 Ry
     estimated scf accuracy    <       0.00000004 Ry

     iteration # 14     ecut=    40.00 Ry     beta= 0.60
     Davidson diagonalization with overlap
     ethr =  4.23E-11,  avg # of iterations =  1.0

     total cpu time spent up to now is     3987.7 secs

     total energy              =    -942.01884034 Ry
     Harris-Foulkes estimate   =    -942.01884034 Ry
     estimated scf accuracy    <       0.00000002 Ry

     iteration # 15     ecut=    40.00 Ry     beta= 0.60
     Davidson diagonalization with overlap
     ethr =  1.47E-11,  avg # of iterations =  3.2

     total cpu time spent up to now is     4025.3 secs

     total energy              =    -942.01884034 Ry
     Harris-Foulkes estimate   =    -942.01884034 Ry
     estimated scf accuracy    <          2.8E-09 Ry

     iteration # 16     ecut=    40.00 Ry     beta= 0.60
     Davidson diagonalization with overlap
     ethr =  2.69E-12,  avg # of iterations =  2.0

     total cpu time spent up to now is     4057.6 secs

     total energy              =    -942.01884034 Ry
     Harris-Foulkes estimate   =    -942.01884034 Ry
     estimated scf accuracy    <          5.9E-10 Ry

     iteration # 17     ecut=    40.00 Ry     beta= 0.60
     Davidson diagonalization with overlap
     ethr =  5.68E-13,  avg # of iterations =  3.5

     total cpu time spent up to now is     4097.3 secs

     End of self-consistent calculation

     Number of k-points >= 100: set verbosity='high' to print the bands.

     the Fermi energy is    17.5929 ev

!    total energy              =    -942.01884034 Ry
     Harris-Foulkes estimate   =    -942.01884034 Ry
     estimated scf accuracy    <          5.0E-11 Ry

     The total energy is the sum of the following terms:

     one-electron contribution =    -156.40743181 Ry
     hartree contribution      =     130.23252183 Ry
     xc contribution           =    -143.59113894 Ry
     ewald contribution        =    -772.25231841 Ry
     smearing contrib. (-TS)   =      -0.00047301 Ry

     convergence has been achieved in  17 iterations

     Forces acting on atoms (cartesian axes, Ry/au):

     atom    1 type  2   force =    -0.00260101   -0.00150169    0.00000000
     atom    2 type  1   force =     0.00081009    0.00046770    0.00000000
     atom    3 type  1   force =    -0.00128483    0.00333794    0.00000000
     atom    4 type  1   force =    -0.00153934   -0.00088874   -0.00434784
     atom    5 type  1   force =     0.00309602    0.00178749    0.00000000
     atom    6 type  1   force =     0.00081009    0.00046770    0.00000000
     atom    7 type  1   force =     0.00224832   -0.00278167    0.00000000
     atom    8 type  1   force =    -0.00153934   -0.00088874    0.00434784

     Total force =     0.009657     Total SCF correction =     0.000016


     Computing stress (Cartesian axis) and pressure

          total   stress  (Ry/bohr**3)                   (kbar)     P=   28.79
   0.00005983   0.00000086   0.00000000          8.80      0.13      0.00
   0.00000086   0.00005884  -0.00000000          0.13      8.66     -0.00
  -0.00000000   0.00000000   0.00046838         -0.00      0.00     68.90


     number of scf cycles    =   4
     number of bfgs steps    =   3

     enthalpy old            =    -942.0134203264 Ry
     enthalpy new            =    -942.0188403373 Ry

     CASE: enthalpy_new < enthalpy_old

     new trust radius        =       0.1094512134 bohr
     new conv_thr            =            1.0E-10 Ry

     new unit-cell volume =    976.66969 a.u.^3 (   144.72751 Ang^3 )
     density =      8.01097 g/cm^3

CELL_PARAMETERS (alat=  1.88972599)
  -1.434338522   2.484347388   5.075366693
  -1.434338522   2.484347388  -5.075366693
  -4.304301863  -2.485090032  -0.000000000

ATOMIC_POSITIONS (angstrom)
Ti      -7.176547867   2.481544205   0.000000000
Nb      -2.863226583   3.315608352  -2.537683347
Nb      -4.308002130   2.499567332   0.000000000
Nb      -4.310300865   0.823907971  -2.562354000
Nb      -5.740527147  -0.001831966   0.000000000
Nb      -2.863226583   3.315608352   2.537683347
Nb      -2.857989467  -0.011928463   0.000000000
Nb      -4.310300865   0.823907971   2.562354000


     NEW-OLD atomic charge density approx. for the potential

     Check: negative/imaginary core charge=   -0.000001    0.000000
     extrapolated charge  103.10932, renormalised to  103.00000

     total cpu time spent up to now is     4117.7 secs

     Self-consistent Calculation

     iteration #  1     ecut=    40.00 Ry     beta= 0.60
     Davidson diagonalization with overlap
     c_bands:  2 eigenvalues not converged
     c_bands:  1 eigenvalues not converged
     c_bands:  1 eigenvalues not converged
     c_bands:  1 eigenvalues not converged
     c_bands:  1 eigenvalues not converged
     c_bands:  1 eigenvalues not converged
     c_bands:  1 eigenvalues not converged
     c_bands:  1 eigenvalues not converged
     ethr =  1.00E-06,  avg # of iterations = 10.4

     total cpu time spent up to now is     4210.9 secs

     total energy              =    -942.02398620 Ry
     Harris-Foulkes estimate   =    -941.90689537 Ry
     estimated scf accuracy    <       0.00148259 Ry

     iteration #  2     ecut=    40.00 Ry     beta= 0.60
     Davidson diagonalization with overlap
     ethr =  1.44E-06,  avg # of iterations =  4.9

     total cpu time spent up to now is     4271.0 secs

     total energy              =    -942.02254779 Ry
     Harris-Foulkes estimate   =    -942.02626351 Ry
     estimated scf accuracy    <       0.02055742 Ry

     iteration #  3     ecut=    40.00 Ry     beta= 0.60
     Davidson diagonalization with overlap
     ethr =  1.44E-06,  avg # of iterations =  4.9

     total cpu time spent up to now is     4324.4 secs

     total energy              =    -942.02435460 Ry
     Harris-Foulkes estimate   =    -942.02488902 Ry
     estimated scf accuracy    <       0.00281349 Ry

     iteration #  4     ecut=    40.00 Ry     beta= 0.60
     Davidson diagonalization with overlap
     ethr =  1.44E-06,  avg # of iterations =  5.1

     total cpu time spent up to now is     4370.6 secs

     total energy              =    -942.02435420 Ry
     Harris-Foulkes estimate   =    -942.02490873 Ry
     estimated scf accuracy    <       0.00312881 Ry

     iteration #  5     ecut=    40.00 Ry     beta= 0.60
     Davidson diagonalization with overlap
     ethr =  1.44E-06,  avg # of iterations =  3.7

     total cpu time spent up to now is     4409.5 secs

     total energy              =    -942.02462161 Ry
     Harris-Foulkes estimate   =    -942.02466648 Ry
     estimated scf accuracy    <       0.00015491 Ry

     iteration #  6     ecut=    40.00 Ry     beta= 0.60
     Davidson diagonalization with overlap
     ethr =  1.50E-07,  avg # of iterations =  3.6

     total cpu time spent up to now is     4452.1 secs

     total energy              =    -942.02462876 Ry
     Harris-Foulkes estimate   =    -942.02468494 Ry
     estimated scf accuracy    <       0.00026184 Ry

     iteration #  7     ecut=    40.00 Ry     beta= 0.60
     Davidson diagonalization with overlap
     ethr =  1.50E-07,  avg # of iterations =  2.9

     total cpu time spent up to now is     4490.2 secs

     total energy              =    -942.02465611 Ry
     Harris-Foulkes estimate   =    -942.02465748 Ry
     estimated scf accuracy    <       0.00000397 Ry

     iteration #  8     ecut=    40.00 Ry     beta= 0.60
     Davidson diagonalization with overlap
     ethr =  3.85E-09,  avg # of iterations =  3.7

     total cpu time spent up to now is     4532.9 secs

     total energy              =    -942.02465697 Ry
     Harris-Foulkes estimate   =    -942.02465760 Ry
     estimated scf accuracy    <       0.00000209 Ry

     iteration #  9     ecut=    40.00 Ry     beta= 0.60
     Davidson diagonalization with overlap
     ethr =  2.03E-09,  avg # of iterations =  3.4

     total cpu time spent up to now is     4573.8 secs

     total energy              =    -942.02465723 Ry
     Harris-Foulkes estimate   =    -942.02465764 Ry
     estimated scf accuracy    <       0.00000229 Ry

     iteration # 10     ecut=    40.00 Ry     beta= 0.60
     Davidson diagonalization with overlap
     ethr =  2.03E-09,  avg # of iterations =  2.3

     total cpu time spent up to now is     4607.1 secs

     total energy              =    -942.02465742 Ry
     Harris-Foulkes estimate   =    -942.02465744 Ry
     estimated scf accuracy    <       0.00000009 Ry

     iteration # 11     ecut=    40.00 Ry     beta= 0.60
     Davidson diagonalization with overlap
     ethr =  8.46E-11,  avg # of iterations =  4.0

     total cpu time spent up to now is     4652.2 secs

     total energy              =    -942.02465745 Ry
     Harris-Foulkes estimate   =    -942.02465745 Ry
     estimated scf accuracy    <       0.00000002 Ry

     iteration # 12     ecut=    40.00 Ry     beta= 0.60
     Davidson diagonalization with overlap
     ethr =  2.07E-11,  avg # of iterations =  2.2

     total cpu time spent up to now is     4685.1 secs

     total energy              =    -942.02465745 Ry
     Harris-Foulkes estimate   =    -942.02465745 Ry
     estimated scf accuracy    <          2.4E-09 Ry

     iteration # 13     ecut=    40.00 Ry     beta= 0.60
     Davidson diagonalization with overlap
     ethr =  2.37E-12,  avg # of iterations =  4.0

     total cpu time spent up to now is     4729.0 secs

     total energy              =    -942.02465745 Ry
     Harris-Foulkes estimate   =    -942.02465745 Ry
     estimated scf accuracy    <          2.8E-09 Ry

     iteration # 14     ecut=    40.00 Ry     beta= 0.60
     Davidson diagonalization with overlap
     ethr =  2.37E-12,  avg # of iterations =  2.0

     total cpu time spent up to now is     4760.9 secs

     total energy              =    -942.02465745 Ry
     Harris-Foulkes estimate   =    -942.02465745 Ry
     estimated scf accuracy    <          2.8E-10 Ry

     iteration # 15     ecut=    40.00 Ry     beta= 0.60
     Davidson diagonalization with overlap
     ethr =  2.68E-13,  avg # of iterations =  3.8

     total cpu time spent up to now is     4802.9 secs

     End of self-consistent calculation

     Number of k-points >= 100: set verbosity='high' to print the bands.

     the Fermi energy is    17.5571 ev

!    total energy              =    -942.02465745 Ry
     Harris-Foulkes estimate   =    -942.02465745 Ry
     estimated scf accuracy    <          8.6E-11 Ry

     The total energy is the sum of the following terms:

     one-electron contribution =    -157.61350703 Ry
     hartree contribution      =     130.75045671 Ry
     xc contribution           =    -143.60283021 Ry
     ewald contribution        =    -771.55802062 Ry
     smearing contrib. (-TS)   =      -0.00075630 Ry

     convergence has been achieved in  15 iterations

     Forces acting on atoms (cartesian axes, Ry/au):

     atom    1 type  2   force =    -0.00327916   -0.00189323    0.00000000
     atom    2 type  1   force =    -0.00092444   -0.00053373    0.00000000
     atom    3 type  1   force =    -0.00082823    0.00150320    0.00000000
     atom    4 type  1   force =    -0.00013676   -0.00007896   -0.00228299
     atom    5 type  1   force =     0.00534211    0.00308427    0.00000000
     atom    6 type  1   force =    -0.00092444   -0.00053373    0.00000000
     atom    7 type  1   force =     0.00088770   -0.00146887    0.00000000
     atom    8 type  1   force =    -0.00013676   -0.00007896    0.00228299

     Total force =     0.008428     Total SCF correction =     0.000019


     Computing stress (Cartesian axis) and pressure

          total   stress  (Ry/bohr**3)                   (kbar)     P=   26.68
   0.00010271   0.00000078   0.00000000         15.11      0.11      0.00
   0.00000078   0.00010181  -0.00000000          0.11     14.98     -0.00
   0.00000000  -0.00000000   0.00033957          0.00     -0.00     49.95


     number of scf cycles    =   5
     number of bfgs steps    =   4

     enthalpy old            =    -942.0188403373 Ry
     enthalpy new            =    -942.0246574496 Ry

     CASE: enthalpy_new < enthalpy_old

     new trust radius        =       0.1614364191 bohr
     new conv_thr            =            1.0E-10 Ry

     new unit-cell volume =    988.13058 a.u.^3 (   146.42584 Ang^3 )
     density =      7.91805 g/cm^3

CELL_PARAMETERS (alat=  1.88972599)
  -1.424309642   2.466976859   5.206455345
  -1.424309642   2.466976859  -5.206455345
  -4.275056665  -2.468205310  -0.000000000

ATOMIC_POSITIONS (angstrom)
Ti      -7.131750568   2.461086525   0.000000000
Nb      -2.842706453   3.292714608  -2.603227672
Nb      -4.280443679   2.487667750   0.000000000
Nb      -4.282715324   0.816673795  -2.638290795
Nb      -5.695859534   0.000796185  -0.000000000
Nb      -2.842706453   3.292714608   2.603227672
Nb      -2.834457822  -0.016853412   0.000000000
Nb      -4.282715324   0.816673795   2.638290795


     NEW-OLD atomic charge density approx. for the potential
     extrapolated charge  104.18283, renormalised to  103.00000

     total cpu time spent up to now is     4823.3 secs

     Self-consistent Calculation

     iteration #  1     ecut=    40.00 Ry     beta= 0.60
     Davidson diagonalization with overlap
     c_bands:  1 eigenvalues not converged
     c_bands:  1 eigenvalues not converged
     c_bands:  1 eigenvalues not converged
     c_bands:  1 eigenvalues not converged
     ethr =  1.00E-06,  avg # of iterations = 11.4

     total cpu time spent up to now is     4928.0 secs

     total energy              =    -941.98534615 Ry
     Harris-Foulkes estimate   =    -940.70982247 Ry
     estimated scf accuracy    <       0.03306095 Ry

     iteration #  2     ecut=    40.00 Ry     beta= 0.60
     Davidson diagonalization with overlap
     ethr =  3.21E-05,  avg # of iterations =  6.1

     total cpu time spent up to now is     4999.7 secs

     total energy              =    -941.95309693 Ry
     Harris-Foulkes estimate   =    -942.10768039 Ry
     estimated scf accuracy    <       1.35978290 Ry

     iteration #  3     ecut=    40.00 Ry     beta= 0.60
     Davidson diagonalization with overlap
     ethr =  3.21E-05,  avg # of iterations =  5.5

     total cpu time spent up to now is     5058.1 secs

     total energy              =    -942.02262181 Ry
     Harris-Foulkes estimate   =    -942.03961055 Ry
     estimated scf accuracy    <       0.05588844 Ry

     iteration #  4     ecut=    40.00 Ry     beta= 0.60
     Davidson diagonalization with overlap
     ethr =  3.21E-05,  avg # of iterations =  4.3

     total cpu time spent up to now is     5102.1 secs

     total energy              =    -942.02627169 Ry
     Harris-Foulkes estimate   =    -942.03610480 Ry
     estimated scf accuracy    <       0.07568838 Ry

     iteration #  5     ecut=    40.00 Ry     beta= 0.60
     Davidson diagonalization with overlap
     ethr =  3.21E-05,  avg # of iterations =  2.4

     total cpu time spent up to now is     5135.5 secs

     total energy              =    -942.02926413 Ry
     Harris-Foulkes estimate   =    -942.03027536 Ry
     estimated scf accuracy    <       0.01094884 Ry

     iteration #  6     ecut=    40.00 Ry     beta= 0.60
     Davidson diagonalization with overlap
     ethr =  1.06E-05,  avg # of iterations =  3.2

     total cpu time spent up to now is     5170.2 secs

     total energy              =    -942.02830382 Ry
     Harris-Foulkes estimate   =    -942.02966777 Ry
     estimated scf accuracy    <       0.00798133 Ry

     iteration #  7     ecut=    40.00 Ry     beta= 0.60
     Davidson diagonalization with overlap
     ethr =  7.75E-06,  avg # of iterations =  1.6

     total cpu time spent up to now is     5201.5 secs

     total energy              =    -942.02820163 Ry
     Harris-Foulkes estimate   =    -942.02865306 Ry
     estimated scf accuracy    <       0.00331210 Ry

     iteration #  8     ecut=    40.00 Ry     beta= 0.60
     Davidson diagonalization with overlap
     ethr =  3.22E-06,  avg # of iterations =  3.9

     total cpu time spent up to now is     5240.4 secs

     total energy              =    -942.02835853 Ry
     Harris-Foulkes estimate   =    -942.02844902 Ry
     estimated scf accuracy    <       0.00113561 Ry

     iteration #  9     ecut=    40.00 Ry     beta= 0.60
     Davidson diagonalization with overlap
     ethr =  1.10E-06,  avg # of iterations =  1.7

     total cpu time spent up to now is     5272.0 secs

     total energy              =    -942.02835634 Ry
     Harris-Foulkes estimate   =    -942.02839175 Ry
     estimated scf accuracy    <       0.00060425 Ry

     iteration # 10     ecut=    40.00 Ry     beta= 0.60
     Davidson diagonalization with overlap
     ethr =  5.87E-07,  avg # of iterations =  2.1

     total cpu time spent up to now is     5304.2 secs

     total energy              =    -942.02834015 Ry
     Harris-Foulkes estimate   =    -942.02837031 Ry
     estimated scf accuracy    <       0.00026441 Ry

     iteration # 11     ecut=    40.00 Ry     beta= 0.60
     Davidson diagonalization with overlap
     ethr =  2.57E-07,  avg # of iterations =  3.4

     total cpu time spent up to now is     5340.6 secs

     total energy              =    -942.02835408 Ry
     Harris-Foulkes estimate   =    -942.02835754 Ry
     estimated scf accuracy    <       0.00002044 Ry

     iteration # 12     ecut=    40.00 Ry     beta= 0.60
     Davidson diagonalization with overlap
     ethr =  1.98E-08,  avg # of iterations =  4.0

     total cpu time spent up to now is     5384.7 secs

     total energy              =    -942.02835917 Ry
     Harris-Foulkes estimate   =    -942.02835963 Ry
     estimated scf accuracy    <       0.00000280 Ry

     iteration # 13     ecut=    40.00 Ry     beta= 0.60
     Davidson diagonalization with overlap
     ethr =  2.72E-09,  avg # of iterations =  2.2

     total cpu time spent up to now is     5417.9 secs

     total energy              =    -942.02835933 Ry
     Harris-Foulkes estimate   =    -942.02835938 Ry
     estimated scf accuracy    <       0.00000029 Ry

     iteration # 14     ecut=    40.00 Ry     beta= 0.60
     Davidson diagonalization with overlap
     ethr =  2.79E-10,  avg # of iterations =  3.9

     total cpu time spent up to now is     5462.1 secs

     total energy              =    -942.02835939 Ry
     Harris-Foulkes estimate   =    -942.02835941 Ry
     estimated scf accuracy    <       0.00000009 Ry

     iteration # 15     ecut=    40.00 Ry     beta= 0.60
     Davidson diagonalization with overlap
     ethr =  9.20E-11,  avg # of iterations =  2.2

     total cpu time spent up to now is     5495.1 secs

     total energy              =    -942.02835940 Ry
     Harris-Foulkes estimate   =    -942.02835940 Ry
     estimated scf accuracy    <          5.3E-09 Ry

     iteration # 16     ecut=    40.00 Ry     beta= 0.60
     Davidson diagonalization with overlap
     ethr =  5.18E-12,  avg # of iterations =  4.0

     total cpu time spent up to now is     5542.1 secs

     total energy              =    -942.02835940 Ry
     Harris-Foulkes estimate   =    -942.02835940 Ry
     estimated scf accuracy    <          1.8E-09 Ry

     iteration # 17     ecut=    40.00 Ry     beta= 0.60
     Davidson diagonalization with overlap
     ethr =  1.78E-12,  avg # of iterations =  3.0

     total cpu time spent up to now is     5579.9 secs

     total energy              =    -942.02835940 Ry
     Harris-Foulkes estimate   =    -942.02835940 Ry
     estimated scf accuracy    <          9.5E-10 Ry

     iteration # 18     ecut=    40.00 Ry     beta= 0.60
     Davidson diagonalization with overlap
     ethr =  9.24E-13,  avg # of iterations =  2.9

     total cpu time spent up to now is     5617.1 secs

     total energy              =    -942.02835940 Ry
     Harris-Foulkes estimate   =    -942.02835940 Ry
     estimated scf accuracy    <          2.2E-10 Ry

     iteration # 19     ecut=    40.00 Ry     beta= 0.60
     Davidson diagonalization with overlap
     ethr =  2.18E-13,  avg # of iterations =  2.1

     total cpu time spent up to now is     5650.7 secs

     End of self-consistent calculation

     Number of k-points >= 100: set verbosity='high' to print the bands.

     the Fermi energy is    17.3097 ev

!    total energy              =    -942.02835940 Ry
     Harris-Foulkes estimate   =    -942.02835940 Ry
     estimated scf accuracy    <          3.2E-11 Ry

     The total energy is the sum of the following terms:

     one-electron contribution =    -163.41836205 Ry
     hartree contribution      =     132.69028937 Ry
     xc contribution           =    -143.54050827 Ry
     ewald contribution        =    -767.75855016 Ry
     smearing contrib. (-TS)   =      -0.00122829 Ry

     convergence has been achieved in  19 iterations

     Forces acting on atoms (cartesian axes, Ry/au):

     atom    1 type  2   force =    -0.00332678   -0.00192072    0.00000000
     atom    2 type  1   force =    -0.00277027   -0.00159942    0.00000000
     atom    3 type  1   force =    -0.00017781   -0.00096212    0.00000000
     atom    4 type  1   force =     0.00149045    0.00086051   -0.00045755
     atom    5 type  1   force =     0.00698635    0.00403357    0.00000000
     atom    6 type  1   force =    -0.00277027   -0.00159942    0.00000000
     atom    7 type  1   force =    -0.00092213    0.00032707    0.00000000
     atom    8 type  1   force =     0.00149045    0.00086051    0.00045755

     Total force =     0.010419     Total SCF correction =     0.000010


     Computing stress (Cartesian axis) and pressure

          total   stress  (Ry/bohr**3)                   (kbar)     P=    9.13
   0.00007771   0.00000224   0.00000000         11.43      0.33      0.00
   0.00000224   0.00007512  -0.00000000          0.33     11.05     -0.00
   0.00000000  -0.00000000   0.00003326          0.00     -0.00      4.89


     number of scf cycles    =   6
     number of bfgs steps    =   5

     enthalpy old            =    -942.0246574496 Ry
     enthalpy new            =    -942.0283593998 Ry

     CASE: enthalpy_new < enthalpy_old

     new trust radius        =       0.0189617873 bohr
     new conv_thr            =            1.0E-10 Ry

     new unit-cell volume =    993.35068 a.u.^3 (   147.19938 Ang^3 )
     density =      7.87644 g/cm^3

CELL_PARAMETERS (alat=  1.88972599)
  -1.428476291   2.474193707   5.202847009
  -1.428476291   2.474193707  -5.202847009
  -4.288077230  -2.475722736  -0.000000000

ATOMIC_POSITIONS (angstrom)
Ti      -7.154378131   2.467267424  -0.000000000
Nb      -2.852448917   3.301523485  -2.601423505
Nb      -4.293163987   2.493928968   0.000000000
Nb      -4.294751243   0.819347314  -2.636020452
Nb      -5.710112932   0.002189447  -0.000000000
Nb      -2.852448917   3.301523485   2.601423505
Nb      -2.843728900  -0.016566434   0.000000000
Nb      -4.294751243   0.819347314   2.636020452


     NEW-OLD atomic charge density approx. for the potential

     Check: negative/imaginary core charge=   -0.000001    0.000000
     extrapolated charge  103.53591, renormalised to  103.00000

     total cpu time spent up to now is     5671.4 secs

     Self-consistent Calculation

     iteration #  1     ecut=    40.00 Ry     beta= 0.60
     Davidson diagonalization with overlap
     c_bands:  1 eigenvalues not converged
     c_bands:  1 eigenvalues not converged
     c_bands:  2 eigenvalues not converged
     ethr =  1.00E-06,  avg # of iterations =  5.5

     total cpu time spent up to now is     5741.4 secs

     total energy              =    -942.01725331 Ry
     Harris-Foulkes estimate   =    -941.42549348 Ry
     estimated scf accuracy    <       0.00977165 Ry

     iteration #  2     ecut=    40.00 Ry     beta= 0.60
     Davidson diagonalization with overlap
     c_bands:  1 eigenvalues not converged
     ethr =  9.49E-06,  avg # of iterations =  6.9

     total cpu time spent up to now is     5813.9 secs

     total energy              =    -942.00264928 Ry
     Harris-Foulkes estimate   =    -942.05633450 Ry
     estimated scf accuracy    <       0.47517834 Ry

     iteration #  3     ecut=    40.00 Ry     beta= 0.60
     Davidson diagonalization with overlap
     ethr =  9.49E-06,  avg # of iterations =  5.3

     total cpu time spent up to now is     5872.7 secs

     total energy              =    -942.02791158 Ry
     Harris-Foulkes estimate   =    -942.03091139 Ry
     estimated scf accuracy    <       0.00843834 Ry

     iteration #  4     ecut=    40.00 Ry     beta= 0.60
     Davidson diagonalization with overlap
     ethr =  8.19E-06,  avg # of iterations =  3.5

     total cpu time spent up to now is     5911.6 secs

     total energy              =    -942.02836668 Ry
     Harris-Foulkes estimate   =    -942.03002132 Ry
     estimated scf accuracy    <       0.01227819 Ry

     iteration #  5     ecut=    40.00 Ry     beta= 0.60
     Davidson diagonalization with overlap
     ethr =  8.19E-06,  avg # of iterations =  1.7

     total cpu time spent up to now is     5943.1 secs

     total energy              =    -942.02893440 Ry
     Harris-Foulkes estimate   =    -942.02905134 Ry
     estimated scf accuracy    <       0.00214559 Ry

     iteration #  6     ecut=    40.00 Ry     beta= 0.60
     Davidson diagonalization with overlap
     ethr =  2.08E-06,  avg # of iterations =  2.6

     total cpu time spent up to now is     5976.6 secs

     total energy              =    -942.02882439 Ry
     Harris-Foulkes estimate   =    -942.02898920 Ry
     estimated scf accuracy    <       0.00174057 Ry

     iteration #  7     ecut=    40.00 Ry     beta= 0.60
     Davidson diagonalization with overlap
     ethr =  1.69E-06,  avg # of iterations =  1.0

     total cpu time spent up to now is     6006.8 secs

     total energy              =    -942.02869629 Ry
     Harris-Foulkes estimate   =    -942.02885101 Ry
     estimated scf accuracy    <       0.00115301 Ry

     iteration #  8     ecut=    40.00 Ry     beta= 0.60
     Davidson diagonalization with overlap
     ethr =  1.12E-06,  avg # of iterations =  1.3

     total cpu time spent up to now is     6037.4 secs

     total energy              =    -942.02865898 Ry
     Harris-Foulkes estimate   =    -942.02872560 Ry
     estimated scf accuracy    <       0.00052948 Ry

     iteration #  9     ecut=    40.00 Ry     beta= 0.60
     Davidson diagonalization with overlap
     ethr =  5.14E-07,  avg # of iterations =  2.3

     total cpu time spent up to now is     6070.4 secs

     total energy              =    -942.02865669 Ry
     Harris-Foulkes estimate   =    -942.02867852 Ry
     estimated scf accuracy    <       0.00018033 Ry

     iteration # 10     ecut=    40.00 Ry     beta= 0.60
     Davidson diagonalization with overlap
     ethr =  1.75E-07,  avg # of iterations =  3.1

     total cpu time spent up to now is     6106.1 secs

     total energy              =    -942.02866375 Ry
     Harris-Foulkes estimate   =    -942.02866756 Ry
     estimated scf accuracy    <       0.00002689 Ry

     iteration # 11     ecut=    40.00 Ry     beta= 0.60
     Davidson diagonalization with overlap
     ethr =  2.61E-08,  avg # of iterations =  3.7

     total cpu time spent up to now is     6145.9 secs

     total energy              =    -942.02866675 Ry
     Harris-Foulkes estimate   =    -942.02866713 Ry
     estimated scf accuracy    <       0.00000270 Ry

     iteration # 12     ecut=    40.00 Ry     beta= 0.60
     Davidson diagonalization with overlap
     ethr =  2.62E-09,  avg # of iterations =  3.3

     total cpu time spent up to now is     6184.1 secs

     total energy              =    -942.02866702 Ry
     Harris-Foulkes estimate   =    -942.02866709 Ry
     estimated scf accuracy    <       0.00000065 Ry

     iteration # 13     ecut=    40.00 Ry     beta= 0.60
     Davidson diagonalization with overlap
     ethr =  6.31E-10,  avg # of iterations =  3.1

     total cpu time spent up to now is     6220.0 secs

     total energy              =    -942.02866706 Ry
     Harris-Foulkes estimate   =    -942.02866707 Ry
     estimated scf accuracy    <       0.00000011 Ry

     iteration # 14     ecut=    40.00 Ry     beta= 0.60
     Davidson diagonalization with overlap
     ethr =  1.05E-10,  avg # of iterations =  3.5

     total cpu time spent up to now is     6259.3 secs

     total energy              =    -942.02866707 Ry
     Harris-Foulkes estimate   =    -942.02866708 Ry
     estimated scf accuracy    <       0.00000002 Ry

     iteration # 15     ecut=    40.00 Ry     beta= 0.60
     Davidson diagonalization with overlap
     ethr =  1.47E-11,  avg # of iterations =  3.8

     total cpu time spent up to now is     6300.0 secs

     total energy              =    -942.02866708 Ry
     Harris-Foulkes estimate   =    -942.02866708 Ry
     estimated scf accuracy    <          9.8E-10 Ry

     iteration # 16     ecut=    40.00 Ry     beta= 0.60
     Davidson diagonalization with overlap
     ethr =  9.49E-13,  avg # of iterations =  3.0

     total cpu time spent up to now is     6338.2 secs

     total energy              =    -942.02866708 Ry
     Harris-Foulkes estimate   =    -942.02866708 Ry
     estimated scf accuracy    <          3.3E-10 Ry

     iteration # 17     ecut=    40.00 Ry     beta= 0.60
     Davidson diagonalization with overlap
     ethr =  3.23E-13,  avg # of iterations =  3.6

     total cpu time spent up to now is     6376.6 secs

     End of self-consistent calculation

     Number of k-points >= 100: set verbosity='high' to print the bands.

     the Fermi energy is    17.2047 ev

!    total energy              =    -942.02866708 Ry
     Harris-Foulkes estimate   =    -942.02866708 Ry
     estimated scf accuracy    <          4.4E-11 Ry

     The total energy is the sum of the following terms:

     one-electron contribution =    -165.12329764 Ry
     hartree contribution      =     133.10581801 Ry
     xc contribution           =    -143.49003664 Ry
     ewald contribution        =    -766.51998150 Ry
     smearing contrib. (-TS)   =      -0.00116931 Ry

     convergence has been achieved in  17 iterations

[...]
     atom    6 type  1   force =    -0.00000089   -0.00000051   -0.00000000
     atom    7 type  1   force =    -0.00000218   -0.00000123   -0.00000000
     atom    8 type  1   force =    -0.00000201   -0.00000116    0.00000059

     Total force =     0.000010     Total SCF correction =     0.000002
     SCF correction compared to forces is large: reduce conv_thr to get better values


     Computing stress (Cartesian axis) and pressure

          total   stress  (Ry/bohr**3)                   (kbar)     P=   -0.00
   0.00000001  -0.00000001   0.00000000          0.00     -0.00      0.00
  -0.00000001   0.00000002  -0.00000000         -0.00      0.00     -0.00
   0.00000000  -0.00000000  -0.00000004          0.00     -0.00     -0.01


     bfgs converged in  40 scf cycles and  39 bfgs steps
     (criteria: energy <  1.0E-10 Ry, force <  1.0E-05Ry/Bohr, cell <  1.0E-03kbar)

     End of BFGS Geometry Optimization

     Final enthalpy =    -942.0800435519 Ry
Begin final coordinates
     new unit-cell volume =    988.37113 a.u.^3 (   146.46149 Ang^3 )
     density =      7.91613 g/cm^3

CELL_PARAMETERS (alat=  1.88972599)
  -1.327111166   2.298624166   4.966423049
  -1.327111166   2.298624166  -4.966423049
  -4.811086166  -2.777682065  -0.000000000

ATOMIC_POSITIONS (angstrom)
Ti      -7.372847846   1.872948446  -0.000000000
Nb      -2.943437162   2.897852437  -2.483211525
Nb      -4.234520110   2.156539133  -0.000000000
Nb      -4.702045401   0.350103334  -2.541274889
Nb      -5.920643261  -0.353453005  -0.000000000
Nb      -2.943437162   2.897852437   2.483211525
Nb      -2.903864893  -0.148223509  -0.000000000
Nb      -4.702045401   0.350103334   2.541274889
End final coordinates



     A final scf calculation at the relaxed structure.
     The G-vectors are recalculated for the final unit cell
     Results may differ from those at the preceding step.
 
     Parallelization info
     --------------------
     sticks:   dense  smooth     PW     G-vecs:    dense   smooth      PW
     Min         747     300     90                33388     8446    1432
     Max         749     301     91                33389     8449    1435
     Sum        2993    1201    363               133555    33791    5737
 


     bravais-lattice index     =            0
     lattice parameter (alat)  =       1.8897  a.u.
     unit-cell volume          =     988.3711 (a.u.)^3
     number of atoms/cell      =            8
     number of atomic types    =            2
     number of electrons       =       103.00
     number of Kohn-Sham states=           62
     kinetic-energy cutoff     =      40.0000  Ry
     charge density cutoff     =     400.0000  Ry
     convergence threshold     =      1.0E-12
     mixing beta               =       0.6000
     number of iterations used =            8  plain     mixing
     Exchange-correlation      = SLA PW PBE PBE ( 1  4  3  4 0 0)

     celldm(1)=   1.889726  celldm(2)=   0.000000  celldm(3)=   0.000000
     celldm(4)=   0.000000  celldm(5)=   0.000000  celldm(6)=   0.000000

     crystal axes: (cart. coord. in units of alat)
               a(1) = (  -1.327111   2.298624   4.966423 )  
               a(2) = (  -1.327111   2.298624  -4.966423 )  
               a(3) = (  -4.811086  -2.777682  -0.000000 )  

     reciprocal axes: (cart. coord. in units 2 pi/alat)
               b(1) = ( -0.094190  0.163141  0.100676 )  
               b(2) = ( -0.094190  0.163141 -0.100676 )  
               b(3) = ( -0.155890 -0.090003 -0.000000 )  


     PseudoPot. # 1 for Nb read from file:
     ./Nb.pbe-nsp-van.UPF
     MD5 check sum: 0a22fc7fb0ba19a08ca5db297a5d2854
     Pseudo is Ultrasoft + core correction, Zval = 13.0
     Generated by new atomic code, or converted to UPF format
     Using radial grid of  887 points,  6 beta functions with: 
                l(1) =   0
                l(2) =   0
                l(3) =   1
                l(4) =   1
                l(5) =   2
                l(6) =   2
     Q(r) pseudized with  6 coefficients,  rinner =    1.000   1.000   1.000
                                                       1.000   1.000

     PseudoPot. # 2 for Ti read from file:
     ./Ti.pbe-sp-van_ak.UPF
     MD5 check sum: f98fea3e8887528921fefa5636a534ca
     Pseudo is Ultrasoft, Zval = 12.0
     Generated by new atomic code, or converted to UPF format
     Using radial grid of  851 points,  6 beta functions with: 
                l(1) =   0
                l(2) =   0
                l(3) =   1
                l(4) =   1
                l(5) =   2
                l(6) =   2
     Q(r) pseudized with  8 coefficients,  rinner =    1.000   1.000   1.000
                                                       1.000   1.000

     atomic species   valence    mass     pseudopotential
        Nb            13.00    92.90638     Nb( 1.00)
        Ti            12.00    47.86700     Ti( 1.00)

      4 Sym. Ops. (no inversion) found



   Cartesian axes

     site n.     atom                  positions (alat units)
         1           Ti  tau(   1) = (  -7.3728484   1.8729486  -0.0000000  )
         2           Nb  tau(   2) = (  -2.9434374   2.8978527  -2.4832117  )
         3           Nb  tau(   3) = (  -4.2345204   2.1565393  -0.0000000  )
         4           Nb  tau(   4) = (  -4.7020458   0.3501034  -2.5412751  )
         5           Nb  tau(   5) = (  -5.9206437  -0.3534530  -0.0000000  )
         6           Nb  tau(   6) = (  -2.9434374   2.8978527   2.4832117  )
         7           Nb  tau(   7) = (  -2.9038651  -0.1482235  -0.0000000  )
         8           Nb  tau(   8) = (  -4.7020458   0.3501034   2.5412751  )

     number of k points=   186  Marzari-Vanderbilt smearing, width (Ry)=  0.0200

     Number of k-points >= 100: set verbosity='high' to print them.

     Dense  grid:   133555 G-vectors     FFT dimensions: (  72,  72,  72)

     Smooth grid:    33791 G-vectors     FFT dimensions: (  45,  45,  45)

     Estimated max dynamical RAM per process >     318.83 MB

     Estimated total dynamical RAM >       1.25 GB

     Check: negative/imaginary core charge=   -0.000001    0.000000

     Initial potential from superposition of free atoms

     starting charge  101.98082, renormalised to  103.00000
     Starting wfcs are  101 randomized atomic wfcs

     total cpu time spent up to now is    27250.4 secs

     Self-consistent Calculation

     iteration #  1     ecut=    40.00 Ry     beta= 0.60
     Davidson diagonalization with overlap
     ethr =  1.00E-06,  avg # of iterations = 11.1

     total cpu time spent up to now is    27359.1 secs

     total energy              =    -922.21546541 Ry
     Harris-Foulkes estimate   =    -944.42767747 Ry
     estimated scf accuracy    <      27.81091703 Ry

     iteration #  2     ecut=    40.00 Ry     beta= 0.60
     Davidson diagonalization with overlap
     ethr =  1.00E-02,  avg # of iterations =  5.6

     total cpu time spent up to now is    27418.7 secs

     total energy              =    -929.64187735 Ry
     Harris-Foulkes estimate   =    -972.36784156 Ry
     estimated scf accuracy    <     131.62551996 Ry

     iteration #  3     ecut=    40.00 Ry     beta= 0.60
     Davidson diagonalization with overlap
     ethr =  1.00E-02,  avg # of iterations =  5.0

     total cpu time spent up to now is    27474.9 secs

     total energy              =    -941.96253152 Ry
     Harris-Foulkes estimate   =    -946.29030820 Ry
     estimated scf accuracy    <      23.70393635 Ry

     iteration #  4     ecut=    40.00 Ry     beta= 0.60
     Davidson diagonalization with overlap
     ethr =  1.00E-02,  avg # of iterations =  2.1

     total cpu time spent up to now is    27506.2 secs

     total energy              =    -943.12354600 Ry
     Harris-Foulkes estimate   =    -943.78383028 Ry
     estimated scf accuracy    <       6.16469587 Ry

     iteration #  5     ecut=    40.00 Ry     beta= 0.60
     Davidson diagonalization with overlap
     ethr =  5.99E-03,  avg # of iterations =  1.0

     total cpu time spent up to now is    27534.7 secs

     total energy              =    -942.78154881 Ry
     Harris-Foulkes estimate   =    -943.23390906 Ry
     estimated scf accuracy    <       4.61131202 Ry

     iteration #  6     ecut=    40.00 Ry     beta= 0.60
     Davidson diagonalization with overlap
     ethr =  4.48E-03,  avg # of iterations =  1.0

     total cpu time spent up to now is    27563.8 secs

     total energy              =    -942.02260471 Ry
     Harris-Foulkes estimate   =    -942.83811013 Ry
     estimated scf accuracy    <       3.58314358 Ry

     iteration #  7     ecut=    40.00 Ry     beta= 0.60
     Davidson diagonalization with overlap
     ethr =  3.48E-03,  avg # of iterations =  2.7

     total cpu time spent up to now is    27595.9 secs

     total energy              =    -941.91592461 Ry
     Harris-Foulkes estimate   =    -942.18355197 Ry
     estimated scf accuracy    <       1.36863348 Ry

     iteration #  8     ecut=    40.00 Ry     beta= 0.60
     Davidson diagonalization with overlap
     ethr =  1.33E-03,  avg # of iterations =  4.5

     total cpu time spent up to now is    27636.7 secs

     total energy              =    -942.06587274 Ry
     Harris-Foulkes estimate   =    -942.09023548 Ry
     estimated scf accuracy    <       0.07276644 Ry

     iteration #  9     ecut=    40.00 Ry     beta= 0.60
     Davidson diagonalization with overlap
     ethr =  7.06E-05,  avg # of iterations =  5.8

     total cpu time spent up to now is    27687.1 secs

     total energy              =    -942.01101829 Ry
     Harris-Foulkes estimate   =    -942.09845509 Ry
     estimated scf accuracy    <       0.19941186 Ry

     iteration # 10     ecut=    40.00 Ry     beta= 0.60
     Davidson diagonalization with overlap
     ethr =  7.06E-05,  avg # of iterations =  5.6

     total cpu time spent up to now is    27747.4 secs

     total energy              =    -941.90793518 Ry
     Harris-Foulkes estimate   =    -942.17273201 Ry
     estimated scf accuracy    <       1.79002715 Ry

     iteration # 11     ecut=    40.00 Ry     beta= 0.60
     Davidson diagonalization with overlap
     ethr =  7.06E-05,  avg # of iterations =  7.6

     total cpu time spent up to now is    27810.9 secs

     total energy              =    -942.07695687 Ry
     Harris-Foulkes estimate   =    -942.08722993 Ry
     estimated scf accuracy    <       0.08671368 Ry

     iteration # 12     ecut=    40.00 Ry     beta= 0.60
     Davidson diagonalization with overlap
     ethr =  7.06E-05,  avg # of iterations =  1.0

     total cpu time spent up to now is    27839.3 secs

     total energy              =    -942.07597822 Ry
     Harris-Foulkes estimate   =    -942.07866418 Ry
     estimated scf accuracy    <       0.03178229 Ry

     iteration # 13     ecut=    40.00 Ry     beta= 0.60
     Davidson diagonalization with overlap
     ethr =  3.09E-05,  avg # of iterations =  4.5

     total cpu time spent up to now is    27878.1 secs

     total energy              =    -942.07825271 Ry
     Harris-Foulkes estimate   =    -942.07848626 Ry
     estimated scf accuracy    <       0.00135787 Ry

     iteration # 14     ecut=    40.00 Ry     beta= 0.60
     Davidson diagonalization with overlap
     c_bands:  1 eigenvalues not converged
     ethr =  1.32E-06,  avg # of iterations =  7.3

     total cpu time spent up to now is    27927.7 secs

     total energy              =    -942.07841103 Ry
     Harris-Foulkes estimate   =    -942.07844303 Ry
     estimated scf accuracy    <       0.00010153 Ry

     iteration # 15     ecut=    40.00 Ry     beta= 0.60
     Davidson diagonalization with overlap
     ethr =  9.86E-08,  avg # of iterations =  4.0

     total cpu time spent up to now is    27968.2 secs

     total energy              =    -942.07842978 Ry
     Harris-Foulkes estimate   =    -942.07844869 Ry
     estimated scf accuracy    <       0.00017282 Ry

     iteration # 16     ecut=    40.00 Ry     beta= 0.60
     Davidson diagonalization with overlap
     ethr =  9.86E-08,  avg # of iterations =  1.2

     total cpu time spent up to now is    27996.9 secs

     total energy              =    -942.07843252 Ry
     Harris-Foulkes estimate   =    -942.07843432 Ry
     estimated scf accuracy    <       0.00004277 Ry

     iteration # 17     ecut=    40.00 Ry     beta= 0.60
     Davidson diagonalization with overlap
     ethr =  4.15E-08,  avg # of iterations =  3.3

     total cpu time spent up to now is    28031.1 secs

     total energy              =    -942.07843393 Ry
     Harris-Foulkes estimate   =    -942.07843491 Ry
     estimated scf accuracy    <       0.00000919 Ry

     iteration # 18     ecut=    40.00 Ry     beta= 0.60
     Davidson diagonalization with overlap
     ethr =  8.92E-09,  avg # of iterations =  2.3

     total cpu time spent up to now is    28062.1 secs

     total energy              =    -942.07843405 Ry
     Harris-Foulkes estimate   =    -942.07843433 Ry
     estimated scf accuracy    <       0.00000154 Ry

     iteration # 19     ecut=    40.00 Ry     beta= 0.60
     Davidson diagonalization with overlap
     ethr =  1.49E-09,  avg # of iterations =  3.9

     total cpu time spent up to now is    28101.3 secs

     total energy              =    -942.07843439 Ry
     Harris-Foulkes estimate   =    -942.07843443 Ry
     estimated scf accuracy    <       0.00000043 Ry

     iteration # 20     ecut=    40.00 Ry     beta= 0.60
     Davidson diagonalization with overlap
     ethr =  4.22E-10,  avg # of iterations =  1.1

     total cpu time spent up to now is    28129.8 secs

     total energy              =    -942.07843439 Ry
     Harris-Foulkes estimate   =    -942.07843441 Ry
     estimated scf accuracy    <       0.00000016 Ry

     iteration # 21     ecut=    40.00 Ry     beta= 0.60
     Davidson diagonalization with overlap
     ethr =  1.59E-10,  avg # of iterations =  3.0

     total cpu time spent up to now is    28162.7 secs

     total energy              =    -942.07843439 Ry
     Harris-Foulkes estimate   =    -942.07843440 Ry
     estimated scf accuracy    <       0.00000003 Ry

     iteration # 22     ecut=    40.00 Ry     beta= 0.60
     Davidson diagonalization with overlap
     ethr =  2.59E-11,  avg # of iterations =  3.8

     total cpu time spent up to now is    28200.2 secs

     total energy              =    -942.07843440 Ry
     Harris-Foulkes estimate   =    -942.07843440 Ry
     estimated scf accuracy    <          1.6E-09 Ry

     iteration # 23     ecut=    40.00 Ry     beta= 0.60
     Davidson diagonalization with overlap
     ethr =  1.59E-12,  avg # of iterations =  2.6

     total cpu time spent up to now is    28233.6 secs

     total energy              =    -942.07843440 Ry
     Harris-Foulkes estimate   =    -942.07843440 Ry
     estimated scf accuracy    <          4.1E-10 Ry

     iteration # 24     ecut=    40.00 Ry     beta= 0.60
     Davidson diagonalization with overlap
     ethr =  3.98E-13,  avg # of iterations =  3.5

     total cpu time spent up to now is    28268.2 secs

     total energy              =    -942.07843440 Ry
     Harris-Foulkes estimate   =    -942.07843440 Ry
     estimated scf accuracy    <          5.1E-11 Ry

     iteration # 25     ecut=    40.00 Ry     beta= 0.60
     Davidson diagonalization with overlap
     ethr =  1.00E-13,  avg # of iterations =  3.1

     total cpu time spent up to now is    28302.0 secs

     End of self-consistent calculation

     Number of k-points >= 100: set verbosity='high' to print the bands.

     the Fermi energy is    17.1712 ev

!    total energy              =    -942.07843440 Ry
     Harris-Foulkes estimate   =    -942.07843440 Ry
     estimated scf accuracy    <          6.8E-13 Ry

     The total energy is the sum of the following terms:

     one-electron contribution =    -164.25978551 Ry
     hartree contribution      =     132.94011578 Ry
     xc contribution           =    -143.55582365 Ry
     ewald contribution        =    -767.20416286 Ry
     smearing contrib. (-TS)   =       0.00122184 Ry

     convergence has been achieved in  25 iterations

     Forces acting on atoms (cartesian axes, Ry/au):

     atom    1 type  2   force =     0.00005189    0.00002996    0.00000000
     atom    2 type  1   force =    -0.00000522   -0.00000301   -0.00000000
     atom    3 type  1   force =    -0.00003025    0.00000361    0.00000000
     atom    4 type  1   force =    -0.00000598   -0.00000345    0.00002039
     atom    5 type  1   force =     0.00001277    0.00000737    0.00000000
     atom    6 type  1   force =    -0.00000522   -0.00000301   -0.00000000
     atom    7 type  1   force =    -0.00001200   -0.00002800   -0.00000000
     atom    8 type  1   force =    -0.00000598   -0.00000345   -0.00002039

     Total force =     0.000082     Total SCF correction =     0.000002


     Computing stress (Cartesian axis) and pressure

          total   stress  (Ry/bohr**3)                   (kbar)     P=   -0.05
   0.00000082   0.00000317   0.00000000          0.12      0.47      0.00
   0.00000317  -0.00000284   0.00000000          0.47     -0.42      0.00
   0.00000000   0.00000000   0.00000109          0.00      0.00      0.16

 
     init_run     :     36.99s CPU     37.84s WALL (       2 calls)
     electrons    :  27011.25s CPU  27446.84s WALL (      41 calls)
     update_pot   :     72.04s CPU     72.12s WALL (      39 calls)
     forces       :    185.18s CPU    190.09s WALL (      41 calls)
     stress       :    538.76s CPU    553.21s WALL (      41 calls)

     Called by init_run:
     wfcinit      :     33.88s CPU     34.48s WALL (       2 calls)
     potinit      :      0.95s CPU      0.96s WALL (       2 calls)
     hinit0       :      1.69s CPU      1.70s WALL (       2 calls)

     Called by electrons:
     c_bands      :  23506.58s CPU  23757.93s WALL (     644 calls)
     sum_band     :   3308.52s CPU   3415.21s WALL (     644 calls)
     v_of_rho     :     29.46s CPU     29.60s WALL (     673 calls)
     newd         :    173.08s CPU    248.81s WALL (     673 calls)
     mix_rho      :      3.67s CPU      3.69s WALL (     644 calls)

     Called by c_bands:
     init_us_2    :    241.02s CPU    242.26s WALL (  255192 calls)
     cegterg      :  21794.34s CPU  22020.08s WALL (  119784 calls)

     Called by sum_band:
     sum_band:bec :      8.60s CPU      8.77s WALL (  119784 calls)
     addusdens    :    185.16s CPU    251.22s WALL (     644 calls)

     Called by *egterg:
     h_psi        :  13545.69s CPU  13752.96s WALL (  533332 calls)
     s_psi        :    807.86s CPU    807.99s WALL (  533332 calls)
     g_psi        :    111.20s CPU    110.22s WALL (  413176 calls)
     cdiaghg      :   4204.09s CPU   4208.96s WALL (  523474 calls)

     Called by h_psi:
     h_psi:pot    :  13488.82s CPU  13694.12s WALL (  533332 calls)
     h_psi:calbec :    898.41s CPU    900.96s WALL (  533332 calls)
     vloc_psi     :  11769.08s CPU  11969.16s WALL (  533332 calls)
     add_vuspsi   :    818.97s CPU    820.90s WALL (  533332 calls)

     General routines
     calbec       :   1312.73s CPU   1316.11s WALL (  691246 calls)
     fft          :     20.27s CPU     20.52s WALL (    9784 calls)
     ffts         :      0.78s CPU      0.79s WALL (    1317 calls)
     fftw         :  12828.00s CPU  13049.98s WALL (45800702 calls)
     interpolate  :      1.76s CPU      1.75s WALL (     673 calls)
 
     Parallel routines
     fft_scatt_xy :   2403.56s CPU   2448.49s WALL (45811803 calls)
     fft_scatt_yz :   2300.50s CPU   2414.07s WALL (45811803 calls)
 
     PWSCF        :     7h44m CPU       44h 7m WALL

      51h
 
   This run was terminated on:  19:57:42   1Feb2020            

=------------------------------------------------------------------------------=
   JOB DONE.
=------------------------------------------------------------------------------=
