
     Program PWSCF v.6.0 (svn rev. 13079) starts on 27Apr2018 at 16:39:33 

     This program is part of the open-source Quantum ESPRESSO suite
     for quantum simulation of materials; please cite
         "P. Giannozzi et al., J. Phys.:Condens. Matter 21 395502 (2009);
          URL http://www.quantum-espresso.org", 
     in publications or presentations arising from this work. More details at
     http://www.quantum-espresso.org/quote

     Parallel version (MPI), running on     4 processors
     R & G space division:  proc/nbgrp/npool/nimage =       4
     Waiting for input...
     Reading input from standard input

     Current dimensions of program PWSCF are:
     Max number of different atomic species (ntypx) = 10
     Max number of k-points (npk) =  40000
     Max angular momentum in pseudopotentials (lmaxx) =  3

     Subspace diagonalization in iterative solution of the eigenvalue problem:
     a serial algorithm will be used


     Parallelization info
     --------------------
     sticks:   dense  smooth     PW     G-vecs:    dense   smooth      PW
     Min        1073     428    137                27716     7007    1267
     Max        1074     429    138                27717     7008    1268
     Sum        4295    1715    549               110865    28029    5069



     bravais-lattice index     =            0
     lattice parameter (alat)  =       1.8897  a.u.
     unit-cell volume          =     586.6735 (a.u.)^3
     number of atoms/cell      =            4
     number of atomic types    =            2
     number of electrons       =        50.00
     number of Kohn-Sham states=           30
     kinetic-energy cutoff     =      50.0000  Ry
     charge density cutoff     =     500.0000  Ry
     convergence threshold     =      1.0E-10
     mixing beta               =       0.6000
     number of iterations used =            8  plain     mixing
     Exchange-correlation      = SLA  PW   PBE  PBE ( 1  4  3  4 0 0)
     nstep                     =           50


     celldm(1)=   1.889726  celldm(2)=   0.000000  celldm(3)=   0.000000
     celldm(4)=   0.000000  celldm(5)=   0.000000  celldm(6)=   0.000000

     crystal axes: (cart. coord. in units of alat)
               a(1) = (   1.758031   1.758031   5.274095 )  
               a(2) = (  -1.758031   5.274095   1.758031 )  
               a(3) = (  -1.758031  -5.274095  -1.758031 )  

     reciprocal axes: (cart. coord. in units 2 pi/alat)
               b(1) = (  0.000000 -0.071102  0.213307 )  
               b(2) = ( -0.284409  0.071102  0.071102 )  
               b(3) = ( -0.284409 -0.142205  0.142205 )  


     PseudoPot. # 1 for Nb read from file:
     ./Nb.pbe-nsp-van.UPF
     MD5 check sum: 0a22fc7fb0ba19a08ca5db297a5d2854
     Pseudo is Ultrasoft + core correction, Zval = 13.0
     Generated by new atomic code, or converted to UPF format
     Using radial grid of  887 points,  6 beta functions with: 
                l(1) =   0
                l(2) =   0
                l(3) =   1
                l(4) =   1
                l(5) =   2
                l(6) =   2
     Q(r) pseudized with  6 coefficients,  rinner =    1.000   1.000   1.000
                                                       1.000   1.000

     PseudoPot. # 2 for Ti read from file:
     ./Ti.pbe-sp-van_ak.UPF
     MD5 check sum: f98fea3e8887528921fefa5636a534ca
     Pseudo is Ultrasoft, Zval = 12.0
     Generated by new atomic code, or converted to UPF format
     Using radial grid of  851 points,  6 beta functions with: 
                l(1) =   0
                l(2) =   0
                l(3) =   1
                l(4) =   1
                l(5) =   2
                l(6) =   2
     Q(r) pseudized with  8 coefficients,  rinner =    1.000   1.000   1.000
                                                       1.000   1.000

     atomic species   valence    mass     pseudopotential
        Nb            13.00    92.90638     Nb( 1.00)
        Ti            12.00    47.86700     Ti( 1.00)

      8 Sym. Ops., with inversion, found ( 4 have fractional translation)



   Cartesian axes

     site n.     atom                  positions (alat units)
         1           Ti  tau(   1) = (  -1.7580316   1.7580316   1.7580316  )
         2           Ti  tau(   2) = (  -1.7580316  -1.7580316   1.7580316  )
         3           Nb  tau(   3) = (  -1.7580316   1.7580316   5.2740949  )
         4           Nb  tau(   4) = (   0.0000000   0.0000000   3.5160633  )

     number of k points=   343  Marzari-Vanderbilt smearing, width (Ry)=  0.0200

     Number of k-points >= 100: set verbosity='high' to print them.

     Dense  grid:   110865 G-vectors     FFT dimensions: (  80,  80,  80)

     Smooth grid:    28029 G-vectors     FFT dimensions: (  50,  50,  50)

     Estimated max dynamical RAM per process >     162.58Mb

     Estimated total allocated dynamical RAM >     650.32Mb

     Initial potential from superposition of free atoms

     starting charge   47.99445, renormalised to   50.00000
     Starting wfc are   46 randomized atomic wfcs

     total cpu time spent up to now is       38.7 secs

     per-process dynamical memory:   232.9 Mb

     Self-consistent Calculation

     iteration #  1     ecut=    50.00 Ry     beta=0.60
     Davidson diagonalization with overlap
     ethr =  1.00E-02,  avg # of iterations =  3.0

     total cpu time spent up to now is      124.0 secs

     total energy              =    -461.83406221 Ry
     Harris-Foulkes estimate   =    -470.62800405 Ry
     estimated scf accuracy    <      11.19635051 Ry

     iteration #  2     ecut=    50.00 Ry     beta=0.60
     Davidson diagonalization with overlap
     ethr =  1.00E-02,  avg # of iterations =  5.4

     total cpu time spent up to now is      259.4 secs

     total energy              =    -467.11847688 Ry
     Harris-Foulkes estimate   =    -481.01722014 Ry
     estimated scf accuracy    <      39.86510869 Ry

     iteration #  3     ecut=    50.00 Ry     beta=0.60
     Davidson diagonalization with overlap
     ethr =  1.00E-02,  avg # of iterations =  3.4

     total cpu time spent up to now is      354.0 secs

     total energy              =    -469.71351809 Ry
     Harris-Foulkes estimate   =    -470.16281827 Ry
     estimated scf accuracy    <       6.21968019 Ry

     iteration #  4     ecut=    50.00 Ry     beta=0.60
     Davidson diagonalization with overlap
     ethr =  1.00E-02,  avg # of iterations =  1.0

     total cpu time spent up to now is      418.4 secs

     total energy              =    -468.71601295 Ry
     Harris-Foulkes estimate   =    -469.75218368 Ry
     estimated scf accuracy    <       5.16283310 Ry

     iteration #  5     ecut=    50.00 Ry     beta=0.60
     Davidson diagonalization with overlap
     ethr =  1.00E-02,  avg # of iterations =  2.6

     total cpu time spent up to now is      487.0 secs

     total energy              =    -468.71275401 Ry
     Harris-Foulkes estimate   =    -468.95126675 Ry
     estimated scf accuracy    <       1.10531150 Ry

     iteration #  6     ecut=    50.00 Ry     beta=0.60
     Davidson diagonalization with overlap
     ethr =  2.21E-03,  avg # of iterations =  5.2

     total cpu time spent up to now is      596.9 secs

     total energy              =    -469.06570498 Ry
     Harris-Foulkes estimate   =    -469.15068433 Ry
     estimated scf accuracy    <       1.25061300 Ry

     iteration #  7     ecut=    50.00 Ry     beta=0.60
     Davidson diagonalization with overlap
     ethr =  2.21E-03,  avg # of iterations =  1.0

     total cpu time spent up to now is      661.1 secs

     total energy              =    -469.01189696 Ry
     Harris-Foulkes estimate   =    -469.07771895 Ry
     estimated scf accuracy    <       0.62643556 Ry

     iteration #  8     ecut=    50.00 Ry     beta=0.60
     Davidson diagonalization with overlap
     ethr =  1.25E-03,  avg # of iterations =  2.9

     total cpu time spent up to now is      734.2 secs

     total energy              =    -469.05203805 Ry
     Harris-Foulkes estimate   =    -469.05547995 Ry
     estimated scf accuracy    <       0.01090334 Ry

     iteration #  9     ecut=    50.00 Ry     beta=0.60
     Davidson diagonalization with overlap
     c_bands:  1 eigenvalues not converged
     ethr =  2.18E-05,  avg # of iterations =  7.0

     total cpu time spent up to now is      875.4 secs

     total energy              =    -469.06458437 Ry
     Harris-Foulkes estimate   =    -469.06635431 Ry
     estimated scf accuracy    <       0.01539263 Ry

     iteration # 10     ecut=    50.00 Ry     beta=0.60
     Davidson diagonalization with overlap
     ethr =  2.18E-05,  avg # of iterations =  1.0

     total cpu time spent up to now is      940.0 secs

     total energy              =    -469.05933699 Ry
     Harris-Foulkes estimate   =    -469.06487236 Ry
     estimated scf accuracy    <       0.01410785 Ry

     iteration # 11     ecut=    50.00 Ry     beta=0.60
     Davidson diagonalization with overlap
     ethr =  2.18E-05,  avg # of iterations =  5.5

     total cpu time spent up to now is     1038.8 secs

     total energy              =    -469.06385153 Ry
     Harris-Foulkes estimate   =    -469.06469620 Ry
     estimated scf accuracy    <       0.02115573 Ry

     iteration # 12     ecut=    50.00 Ry     beta=0.60
     Davidson diagonalization with overlap
     ethr =  2.18E-05,  avg # of iterations =  1.1

     total cpu time spent up to now is     1103.3 secs

     total energy              =    -469.06252750 Ry
     Harris-Foulkes estimate   =    -469.06395703 Ry
     estimated scf accuracy    <       0.01538458 Ry

     iteration # 13     ecut=    50.00 Ry     beta=0.60
     Davidson diagonalization with overlap
     ethr =  2.18E-05,  avg # of iterations =  1.8

     total cpu time spent up to now is     1169.9 secs

     total energy              =    -469.06259059 Ry
     Harris-Foulkes estimate   =    -469.06296014 Ry
     estimated scf accuracy    <       0.00320543 Ry

     iteration # 14     ecut=    50.00 Ry     beta=0.60
     Davidson diagonalization with overlap
     ethr =  6.41E-06,  avg # of iterations =  4.9

     total cpu time spent up to now is     1256.3 secs

     total energy              =    -469.06303462 Ry
     Harris-Foulkes estimate   =    -469.06303437 Ry
     estimated scf accuracy    <       0.00010942 Ry

     iteration # 15     ecut=    50.00 Ry     beta=0.60
     Davidson diagonalization with overlap
     ethr =  2.19E-07,  avg # of iterations =  5.3

     total cpu time spent up to now is     1349.5 secs

     total energy              =    -469.06305604 Ry
     Harris-Foulkes estimate   =    -469.06307997 Ry
     estimated scf accuracy    <       0.00031413 Ry

     iteration # 16     ecut=    50.00 Ry     beta=0.60
     Davidson diagonalization with overlap
     ethr =  2.19E-07,  avg # of iterations =  1.1

     total cpu time spent up to now is     1414.2 secs

     total energy              =    -469.06305107 Ry
     Harris-Foulkes estimate   =    -469.06306001 Ry
     estimated scf accuracy    <       0.00013843 Ry

     iteration # 17     ecut=    50.00 Ry     beta=0.60
     Davidson diagonalization with overlap
     ethr =  2.19E-07,  avg # of iterations =  1.5

     total cpu time spent up to now is     1479.7 secs

     total energy              =    -469.06305081 Ry
     Harris-Foulkes estimate   =    -469.06305367 Ry
     estimated scf accuracy    <       0.00005284 Ry

     iteration # 18     ecut=    50.00 Ry     beta=0.60
     Davidson diagonalization with overlap
     ethr =  1.06E-07,  avg # of iterations =  3.0

     total cpu time spent up to now is     1549.8 secs

     total energy              =    -469.06304897 Ry
     Harris-Foulkes estimate   =    -469.06305273 Ry
     estimated scf accuracy    <       0.00001949 Ry

     iteration # 19     ecut=    50.00 Ry     beta=0.60
     Davidson diagonalization with overlap
     ethr =  3.90E-08,  avg # of iterations =  4.1

     total cpu time spent up to now is     1640.3 secs

     total energy              =    -469.06305481 Ry
     Harris-Foulkes estimate   =    -469.06305599 Ry
     estimated scf accuracy    <       0.00002234 Ry

     iteration # 20     ecut=    50.00 Ry     beta=0.60
     Davidson diagonalization with overlap
     ethr =  3.90E-08,  avg # of iterations =  1.0

     total cpu time spent up to now is     1704.6 secs

     total energy              =    -469.06305484 Ry
     Harris-Foulkes estimate   =    -469.06305497 Ry
     estimated scf accuracy    <       0.00001298 Ry

     iteration # 21     ecut=    50.00 Ry     beta=0.60
     Davidson diagonalization with overlap
     ethr =  2.60E-08,  avg # of iterations =  1.0

     total cpu time spent up to now is     1769.3 secs

     total energy              =    -469.06305310 Ry
     Harris-Foulkes estimate   =    -469.06305488 Ry
     estimated scf accuracy    <       0.00001173 Ry

     iteration # 22     ecut=    50.00 Ry     beta=0.60
     Davidson diagonalization with overlap
     ethr =  2.35E-08,  avg # of iterations =  3.2

     total cpu time spent up to now is     1842.5 secs

     total energy              =    -469.06305412 Ry
     Harris-Foulkes estimate   =    -469.06305415 Ry
     estimated scf accuracy    <       0.00000018 Ry

     iteration # 23     ecut=    50.00 Ry     beta=0.60
     Davidson diagonalization with overlap
     ethr =  3.53E-10,  avg # of iterations =  5.3

     total cpu time spent up to now is     1949.7 secs

     total energy              =    -469.06305454 Ry
     Harris-Foulkes estimate   =    -469.06305442 Ry
     estimated scf accuracy    <       0.00000038 Ry

     iteration # 24     ecut=    50.00 Ry     beta=0.60
     Davidson diagonalization with overlap
     ethr =  3.53E-10,  avg # of iterations =  5.0

     total cpu time spent up to now is     2050.5 secs

     total energy              =    -469.06305479 Ry
     Harris-Foulkes estimate   =    -469.06305472 Ry
     estimated scf accuracy    <       0.00000471 Ry

     iteration # 25     ecut=    50.00 Ry     beta=0.60
     Davidson diagonalization with overlap
     ethr =  3.53E-10,  avg # of iterations =  1.0

     total cpu time spent up to now is     2115.0 secs

     total energy              =    -469.06305384 Ry
     Harris-Foulkes estimate   =    -469.06305479 Ry
     estimated scf accuracy    <       0.00000533 Ry

     iteration # 26     ecut=    50.00 Ry     beta=0.60
     Davidson diagonalization with overlap
     ethr =  3.53E-10,  avg # of iterations =  5.2

     total cpu time spent up to now is     2229.5 secs

     total energy              =    -469.06305443 Ry
     Harris-Foulkes estimate   =    -469.06305440 Ry
     estimated scf accuracy    <       0.00000041 Ry

     iteration # 27     ecut=    50.00 Ry     beta=0.60
     Davidson diagonalization with overlap
     ethr =  3.53E-10,  avg # of iterations =  1.0

     total cpu time spent up to now is     2294.4 secs

     total energy              =    -469.06305440 Ry
     Harris-Foulkes estimate   =    -469.06305444 Ry
     estimated scf accuracy    <       0.00000075 Ry

     iteration # 28     ecut=    50.00 Ry     beta=0.60
     Davidson diagonalization with overlap
     ethr =  3.53E-10,  avg # of iterations =  1.0

     total cpu time spent up to now is     2358.9 secs

     total energy              =    -469.06305436 Ry
     Harris-Foulkes estimate   =    -469.06305440 Ry
     estimated scf accuracy    <       0.00000047 Ry

     iteration # 29     ecut=    50.00 Ry     beta=0.60
     Davidson diagonalization with overlap
     ethr =  3.53E-10,  avg # of iterations =  1.0

     total cpu time spent up to now is     2423.3 secs

     total energy              =    -469.06305431 Ry
     Harris-Foulkes estimate   =    -469.06305437 Ry
     estimated scf accuracy    <       0.00000017 Ry

     iteration # 30     ecut=    50.00 Ry     beta=0.60
     Davidson diagonalization with overlap
     ethr =  3.30E-10,  avg # of iterations =  4.2

     total cpu time spent up to now is     2515.9 secs

     total energy              =    -469.06305434 Ry
     Harris-Foulkes estimate   =    -469.06305442 Ry
     estimated scf accuracy    <       0.00000070 Ry

     iteration # 31     ecut=    50.00 Ry     beta=0.60
     Davidson diagonalization with overlap
     ethr =  3.30E-10,  avg # of iterations =  2.8

     total cpu time spent up to now is     2585.5 secs

     total energy              =    -469.06305436 Ry
     Harris-Foulkes estimate   =    -469.06305436 Ry
     estimated scf accuracy    <       0.00000016 Ry

     iteration # 32     ecut=    50.00 Ry     beta=0.60
     Davidson diagonalization with overlap
     ethr =  3.26E-10,  avg # of iterations =  1.0

     total cpu time spent up to now is     2649.6 secs

     total energy              =    -469.06305436 Ry
     Harris-Foulkes estimate   =    -469.06305436 Ry
     estimated scf accuracy    <       0.00000014 Ry

     iteration # 33     ecut=    50.00 Ry     beta=0.60
     Davidson diagonalization with overlap
     ethr =  2.85E-10,  avg # of iterations =  1.1

     total cpu time spent up to now is     2714.1 secs

     total energy              =    -469.06305435 Ry
     Harris-Foulkes estimate   =    -469.06305436 Ry
     estimated scf accuracy    <       0.00000008 Ry

     iteration # 34     ecut=    50.00 Ry     beta=0.60
     Davidson diagonalization with overlap
     ethr =  1.59E-10,  avg # of iterations =  4.0

     total cpu time spent up to now is     2800.6 secs

     total energy              =    -469.06305437 Ry
     Harris-Foulkes estimate   =    -469.06305437 Ry
     estimated scf accuracy    <       0.00000003 Ry

     iteration # 35     ecut=    50.00 Ry     beta=0.60
     Davidson diagonalization with overlap
     ethr =  6.72E-11,  avg # of iterations =  1.2

     total cpu time spent up to now is     2865.2 secs

     total energy              =    -469.06305437 Ry
     Harris-Foulkes estimate   =    -469.06305437 Ry
     estimated scf accuracy    <       0.00000004 Ry

     iteration # 36     ecut=    50.00 Ry     beta=0.60
     Davidson diagonalization with overlap
     ethr =  6.72E-11,  avg # of iterations =  1.0

     total cpu time spent up to now is     2929.5 secs

     total energy              =    -469.06305437 Ry
     Harris-Foulkes estimate   =    -469.06305437 Ry
     estimated scf accuracy    <       0.00000003 Ry

     iteration # 37     ecut=    50.00 Ry     beta=0.60
     Davidson diagonalization with overlap
     ethr =  5.37E-11,  avg # of iterations =  1.0

     total cpu time spent up to now is     2993.9 secs

     total energy              =    -469.06305437 Ry
     Harris-Foulkes estimate   =    -469.06305437 Ry
     estimated scf accuracy    <       0.00000001 Ry

     iteration # 38     ecut=    50.00 Ry     beta=0.60
     Davidson diagonalization with overlap
     ethr =  2.72E-11,  avg # of iterations =  1.0

     total cpu time spent up to now is     3058.0 secs

     total energy              =    -469.06305436 Ry
     Harris-Foulkes estimate   =    -469.06305437 Ry
     estimated scf accuracy    <          9.0E-09 Ry

     iteration # 39     ecut=    50.00 Ry     beta=0.60
     Davidson diagonalization with overlap
     ethr =  1.80E-11,  avg # of iterations =  1.5

     total cpu time spent up to now is     3123.4 secs

     total energy              =    -469.06305436 Ry
     Harris-Foulkes estimate   =    -469.06305436 Ry
     estimated scf accuracy    <          3.5E-09 Ry

     iteration # 40     ecut=    50.00 Ry     beta=0.60
     Davidson diagonalization with overlap
     ethr =  6.96E-12,  avg # of iterations =  4.1

     total cpu time spent up to now is     3204.8 secs

     End of self-consistent calculation

     Number of k-points >= 100: set verbosity='high' to print the bands.

     the Fermi energy is    12.1725 ev

!    total energy              =    -469.06305437 Ry
     Harris-Foulkes estimate   =    -469.06305437 Ry
     estimated scf accuracy    <          3.7E-11 Ry

     The total energy is the sum of the following terms:

     one-electron contribution =    -150.78318393 Ry
     hartree contribution      =      89.55679862 Ry
     xc contribution           =     -65.24472251 Ry
     ewald contribution        =    -342.59101309 Ry
     smearing contrib. (-TS)   =      -0.00093346 Ry

     convergence has been achieved in  40 iterations

     Forces acting on atoms (Ry/au):

     atom    1 type  2   force =     0.00000000   -0.01145349   -0.01145349
     atom    2 type  2   force =     0.00000000    0.01145349    0.01145349
     atom    3 type  1   force =     0.00000000   -0.01237368   -0.01237368
     atom    4 type  1   force =     0.00000000    0.01237368    0.01237368

     Total force =     0.033722     Total SCF correction =     0.000005


     entering subroutine stress ...

          total   stress  (Ry/bohr**3)                   (kbar)     P= -200.24
  -0.00133659  -0.00000000   0.00000000       -196.62     -0.00      0.00
  -0.00000000  -0.00137351  -0.00005678         -0.00   -202.05     -8.35
   0.00000000  -0.00005678  -0.00137351          0.00     -8.35   -202.05


     BFGS Geometry Optimization

     number of scf cycles    =   1
     number of bfgs steps    =   0

     enthalpy new            =    -469.0630543652 Ry

     new trust radius        =       0.1664829638 bohr
     new conv_thr            =            1.0E-10 Ry

     new unit-cell volume =    528.79364 a.u.^3 (    78.35913 Ang^3 )

CELL_PARAMETERS (alat=  1.88972599)
   1.699287193   1.690178592   5.090498975
  -1.699287193   5.090498975   1.690178592
  -1.699287193  -5.090498975  -1.690178592

ATOMIC_POSITIONS (angstrom)
Ti      -1.699287193   1.689325185   1.689325185
Ti      -1.699287193  -1.694315985   1.706004398
Nb      -1.699287193   1.683864854   5.084185237
Nb       0.000000000   0.001322939   3.401643321


     NEW-OLD atomic charge density approx. for the potential
     extrapolated charge   44.74670, renormalised to   50.00000

     total cpu time spent up to now is     3230.8 secs

     per-process dynamical memory:   245.8 Mb

     Self-consistent Calculation

     iteration #  1     ecut=    50.00 Ry     beta=0.60
     Davidson diagonalization with overlap
     c_bands:  1 eigenvalues not converged
     c_bands:  1 eigenvalues not converged
     c_bands:  1 eigenvalues not converged
     c_bands:  2 eigenvalues not converged
     c_bands:  1 eigenvalues not converged
     c_bands:  1 eigenvalues not converged
     c_bands:  1 eigenvalues not converged
     c_bands:  2 eigenvalues not converged
     c_bands:  1 eigenvalues not converged
     c_bands:  1 eigenvalues not converged
     c_bands:  1 eigenvalues not converged
     c_bands:  2 eigenvalues not converged
     c_bands:  1 eigenvalues not converged
     c_bands:  1 eigenvalues not converged
     c_bands:  2 eigenvalues not converged
     c_bands:  1 eigenvalues not converged
     c_bands:  1 eigenvalues not converged
     c_bands:  1 eigenvalues not converged
     c_bands:  1 eigenvalues not converged
     c_bands:  1 eigenvalues not converged
     c_bands:  1 eigenvalues not converged
     c_bands:  2 eigenvalues not converged
     c_bands:  1 eigenvalues not converged
     c_bands:  1 eigenvalues not converged
     c_bands:  1 eigenvalues not converged
     c_bands:  1 eigenvalues not converged
     c_bands:  1 eigenvalues not converged
     c_bands:  1 eigenvalues not converged
     c_bands:  1 eigenvalues not converged
     c_bands:  1 eigenvalues not converged
     c_bands:  2 eigenvalues not converged
     c_bands:  1 eigenvalues not converged
     c_bands:  1 eigenvalues not converged
     c_bands:  1 eigenvalues not converged
     c_bands:  1 eigenvalues not converged
     c_bands:  1 eigenvalues not converged
     c_bands:  1 eigenvalues not converged
     c_bands:  1 eigenvalues not converged
     c_bands:  1 eigenvalues not converged
     c_bands:  1 eigenvalues not converged
     c_bands:  1 eigenvalues not converged
     c_bands:  1 eigenvalues not converged
     c_bands:  1 eigenvalues not converged
     c_bands:  1 eigenvalues not converged
     c_bands:  1 eigenvalues not converged
     c_bands:  1 eigenvalues not converged
     c_bands:  1 eigenvalues not converged
     c_bands:  1 eigenvalues not converged
     c_bands:  1 eigenvalues not converged
     c_bands:  1 eigenvalues not converged
     c_bands:  1 eigenvalues not converged
     c_bands:  1 eigenvalues not converged
     c_bands:  2 eigenvalues not converged
     c_bands:  2 eigenvalues not converged
     c_bands:  2 eigenvalues not converged
     c_bands:  1 eigenvalues not converged
     c_bands:  1 eigenvalues not converged
     c_bands:  1 eigenvalues not converged
     c_bands:  1 eigenvalues not converged
     c_bands:  1 eigenvalues not converged
     c_bands:  1 eigenvalues not converged
     c_bands:  1 eigenvalues not converged
     c_bands:  1 eigenvalues not converged
     c_bands:  2 eigenvalues not converged
     c_bands:  1 eigenvalues not converged
     c_bands:  1 eigenvalues not converged
     c_bands:  1 eigenvalues not converged
     c_bands:  1 eigenvalues not converged
     c_bands:  1 eigenvalues not converged
     c_bands:  1 eigenvalues not converged
     ethr =  1.00E-06,  avg # of iterations = 17.0

     total cpu time spent up to now is     3522.8 secs

     total energy              =    -442.38784724 Ry
     Harris-Foulkes estimate   =    -480.53781549 Ry
     estimated scf accuracy    <      30.07072497 Ry

     iteration #  2     ecut=    50.00 Ry     beta=0.60
     Davidson diagonalization with overlap
     ethr =  1.00E-02,  avg # of iterations =  5.1

     total cpu time spent up to now is     3665.9 secs

     total energy              =    -455.34632335 Ry
     Harris-Foulkes estimate   =    -504.69956612 Ry
     estimated scf accuracy    <     160.18274876 Ry

     iteration #  3     ecut=    50.00 Ry     beta=0.60
     Davidson diagonalization with overlap
     ethr =  1.00E-02,  avg # of iterations =  3.7

     total cpu time spent up to now is     3776.3 secs

     total energy              =    -470.95858229 Ry
     Harris-Foulkes estimate   =    -473.52115107 Ry
     estimated scf accuracy    <      12.54879007 Ry

     iteration #  4     ecut=    50.00 Ry     beta=0.60
     Davidson diagonalization with overlap
     ethr =  1.00E-02,  avg # of iterations =  1.0

     total cpu time spent up to now is     3840.1 secs

     total energy              =    -469.06030495 Ry
     Harris-Foulkes estimate   =    -471.11986977 Ry
     estimated scf accuracy    <       8.35401636 Ry

     iteration #  5     ecut=    50.00 Ry     beta=0.60
     Davidson diagonalization with overlap
     ethr =  1.00E-02,  avg # of iterations =  2.7

     total cpu time spent up to now is     3911.9 secs

     total energy              =    -469.87938847 Ry
     Harris-Foulkes estimate   =    -469.46482524 Ry
     estimated scf accuracy    <       2.13999866 Ry

     iteration #  6     ecut=    50.00 Ry     beta=0.60
     Davidson diagonalization with overlap
     ethr =  4.28E-03,  avg # of iterations =  1.4

     total cpu time spent up to now is     3977.0 secs

     total energy              =    -469.59167778 Ry
     Harris-Foulkes estimate   =    -469.97929942 Ry
     estimated scf accuracy    <       3.83157088 Ry

     iteration #  7     ecut=    50.00 Ry     beta=0.60
     Davidson diagonalization with overlap
     ethr =  4.28E-03,  avg # of iterations =  1.0

     total cpu time spent up to now is     4041.5 secs

     total energy              =    -469.36131638 Ry
     Harris-Foulkes estimate   =    -469.61432857 Ry
     estimated scf accuracy    <       2.83439896 Ry

     iteration #  8     ecut=    50.00 Ry     beta=0.60
     Davidson diagonalization with overlap
     ethr =  4.28E-03,  avg # of iterations =  1.1

     total cpu time spent up to now is     4106.0 secs

     total energy              =    -469.13459069 Ry
     Harris-Foulkes estimate   =    -469.38376361 Ry
     estimated scf accuracy    <       1.97132535 Ry

     iteration #  9     ecut=    50.00 Ry     beta=0.60
     Davidson diagonalization with overlap
     ethr =  3.94E-03,  avg # of iterations =  1.7

     total cpu time spent up to now is     4171.9 secs

     total energy              =    -469.16904317 Ry
     Harris-Foulkes estimate   =    -469.18208190 Ry
     estimated scf accuracy    <       0.78996647 Ry

     iteration # 10     ecut=    50.00 Ry     beta=0.60
     Davidson diagonalization with overlap
     ethr =  1.58E-03,  avg # of iterations =  2.2

     total cpu time spent up to now is     4239.7 secs

     total energy              =    -468.85354532 Ry
     Harris-Foulkes estimate   =    -469.18438172 Ry
     estimated scf accuracy    <       0.69873786 Ry

     iteration # 11     ecut=    50.00 Ry     beta=0.60
     Davidson diagonalization with overlap
     ethr =  1.40E-03,  avg # of iterations =  4.6

     total cpu time spent up to now is     4351.9 secs

     total energy              =    -469.26117971 Ry
     Harris-Foulkes estimate   =    -469.40147229 Ry
     estimated scf accuracy    <       3.92790155 Ry

     iteration # 12     ecut=    50.00 Ry     beta=0.60
     Davidson diagonalization with overlap
     ethr =  1.40E-03,  avg # of iterations =  1.0

     total cpu time spent up to now is     4416.0 secs

     total energy              =    -469.36404130 Ry
     Harris-Foulkes estimate   =    -469.27219423 Ry
     estimated scf accuracy    <       2.73112837 Ry

     iteration # 13     ecut=    50.00 Ry     beta=0.60
     Davidson diagonalization with overlap
     ethr =  1.40E-03,  avg # of iterations =  1.0

     total cpu time spent up to now is     4480.1 secs

     total energy              =    -469.20877494 Ry
     Harris-Foulkes estimate   =    -469.37054785 Ry
     estimated scf accuracy    <       3.48559083 Ry

     iteration # 14     ecut=    50.00 Ry     beta=0.60
     Davidson diagonalization with overlap
     ethr =  1.40E-03,  avg # of iterations =  1.0

     total cpu time spent up to now is     4544.3 secs

     total energy              =    -469.40757393 Ry
     Harris-Foulkes estimate   =    -469.22377773 Ry
     estimated scf accuracy    <       2.21744930 Ry

     iteration # 15     ecut=    50.00 Ry     beta=0.60
     Davidson diagonalization with overlap
     ethr =  1.40E-03,  avg # of iterations =  1.0

     total cpu time spent up to now is     4608.5 secs

     total energy              =    -470.29488355 Ry
     Harris-Foulkes estimate   =    -469.43268535 Ry
     estimated scf accuracy    <       3.86781240 Ry

     iteration # 16     ecut=    50.00 Ry     beta=0.60
     Davidson diagonalization with overlap
     ethr =  1.40E-03,  avg # of iterations =  4.2

     total cpu time spent up to now is     4708.7 secs

     total energy              =    -467.67774978 Ry
     Harris-Foulkes estimate   =    -470.91060235 Ry
     estimated scf accuracy    <      22.92993992 Ry

     iteration # 17     ecut=    50.00 Ry     beta=0.60
     Davidson diagonalization with overlap
     ethr =  1.40E-03,  avg # of iterations =  5.2

     total cpu time spent up to now is     4832.5 secs

     total energy              =    -469.12176868 Ry
     Harris-Foulkes estimate   =    -469.14399741 Ry
     estimated scf accuracy    <       0.13245847 Ry

     iteration # 18     ecut=    50.00 Ry     beta=0.60
     Davidson diagonalization with overlap
     ethr =  2.65E-04,  avg # of iterations =  2.2

     total cpu time spent up to now is     4899.8 secs

     total energy              =    -469.12457082 Ry
     Harris-Foulkes estimate   =    -469.13174663 Ry
     estimated scf accuracy    <       0.02016485 Ry

     iteration # 19     ecut=    50.00 Ry     beta=0.60
     Davidson diagonalization with overlap
     ethr =  4.03E-05,  avg # of iterations =  5.3

     total cpu time spent up to now is     5009.7 secs

     total energy              =    -469.12948573 Ry
     Harris-Foulkes estimate   =    -469.13724419 Ry
     estimated scf accuracy    <       0.07986270 Ry

     iteration # 20     ecut=    50.00 Ry     beta=0.60
     Davidson diagonalization with overlap
     ethr =  4.03E-05,  avg # of iterations =  3.3

     total cpu time spent up to now is     5085.3 secs

     total energy              =    -469.12760598 Ry
     Harris-Foulkes estimate   =    -469.13170661 Ry
     estimated scf accuracy    <       0.03596623 Ry

     iteration # 21     ecut=    50.00 Ry     beta=0.60
     Davidson diagonalization with overlap
     ethr =  4.03E-05,  avg # of iterations =  4.2

     total cpu time spent up to now is     5166.8 secs

     total energy              =    -469.12970379 Ry
     Harris-Foulkes estimate   =    -469.13033702 Ry
     estimated scf accuracy    <       0.00376356 Ry

     iteration # 22     ecut=    50.00 Ry     beta=0.60
     Davidson diagonalization with overlap
     ethr =  7.53E-06,  avg # of iterations =  5.7

     total cpu time spent up to now is     5259.7 secs

     total energy              =    -469.13043243 Ry
     Harris-Foulkes estimate   =    -469.13052762 Ry
     estimated scf accuracy    <       0.00378941 Ry

     iteration # 23     ecut=    50.00 Ry     beta=0.60
     Davidson diagonalization with overlap
     ethr =  7.53E-06,  avg # of iterations =  1.0

     total cpu time spent up to now is     5324.1 secs

     total energy              =    -469.13043940 Ry
     Harris-Foulkes estimate   =    -469.13045134 Ry
     estimated scf accuracy    <       0.00325859 Ry

     iteration # 24     ecut=    50.00 Ry     beta=0.60
     Davidson diagonalization with overlap
     ethr =  6.52E-06,  avg # of iterations =  1.0

     total cpu time spent up to now is     5388.3 secs

     total energy              =    -469.12996238 Ry
     Harris-Foulkes estimate   =    -469.13046593 Ry
     estimated scf accuracy    <       0.00277186 Ry

     iteration # 25     ecut=    50.00 Ry     beta=0.60
     Davidson diagonalization with overlap
     ethr =  5.54E-06,  avg # of iterations =  1.0

     total cpu time spent up to now is     5452.4 secs

     total energy              =    -469.12955181 Ry
     Harris-Foulkes estimate   =    -469.13002586 Ry
     estimated scf accuracy    <       0.00188672 Ry

     iteration # 26     ecut=    50.00 Ry     beta=0.60
     Davidson diagonalization with overlap
     ethr =  3.77E-06,  avg # of iterations =  3.0

     total cpu time spent up to now is     5530.3 secs

     total energy              =    -469.12971157 Ry
     Harris-Foulkes estimate   =    -469.12976024 Ry
     estimated scf accuracy    <       0.00054810 Ry

     iteration # 27     ecut=    50.00 Ry     beta=0.60
     Davidson diagonalization with overlap
     ethr =  1.10E-06,  avg # of iterations =  2.7

     total cpu time spent up to now is     5599.6 secs

     total energy              =    -469.12972454 Ry
     Harris-Foulkes estimate   =    -469.12973989 Ry
     estimated scf accuracy    <       0.00012481 Ry

     iteration # 28     ecut=    50.00 Ry     beta=0.60
     Davidson diagonalization with overlap
     ethr =  2.50E-07,  avg # of iterations =  4.3

     total cpu time spent up to now is     5686.5 secs

     total energy              =    -469.12974932 Ry
     Harris-Foulkes estimate   =    -469.12975023 Ry
     estimated scf accuracy    <       0.00000748 Ry

     iteration # 29     ecut=    50.00 Ry     beta=0.60
     Davidson diagonalization with overlap
     ethr =  1.50E-08,  avg # of iterations =  3.4

     total cpu time spent up to now is     5766.5 secs

     total energy              =    -469.12975002 Ry
     Harris-Foulkes estimate   =    -469.12975046 Ry
     estimated scf accuracy    <       0.00000366 Ry

     iteration # 30     ecut=    50.00 Ry     beta=0.60
     Davidson diagonalization with overlap
     ethr =  7.32E-09,  avg # of iterations =  3.1

     total cpu time spent up to now is     5840.6 secs

     total energy              =    -469.12975029 Ry
     Harris-Foulkes estimate   =    -469.12975032 Ry
     estimated scf accuracy    <       0.00000016 Ry

     iteration # 31     ecut=    50.00 Ry     beta=0.60
     Davidson diagonalization with overlap
     ethr =  3.12E-10,  avg # of iterations =  5.0

     total cpu time spent up to now is     5939.5 secs

     total energy              =    -469.12975037 Ry
     Harris-Foulkes estimate   =    -469.12975038 Ry
     estimated scf accuracy    <       0.00000014 Ry

     iteration # 32     ecut=    50.00 Ry     beta=0.60
     Davidson diagonalization with overlap
     ethr =  2.81E-10,  avg # of iterations =  1.0

     total cpu time spent up to now is     6003.8 secs

     total energy              =    -469.12975037 Ry
     Harris-Foulkes estimate   =    -469.12975037 Ry
     estimated scf accuracy    <       0.00000004 Ry

     iteration # 33     ecut=    50.00 Ry     beta=0.60
     Davidson diagonalization with overlap
     ethr =  8.72E-11,  avg # of iterations =  3.2

     total cpu time spent up to now is     6082.8 secs

     total energy              =    -469.12975037 Ry
     Harris-Foulkes estimate   =    -469.12975037 Ry
     estimated scf accuracy    <          8.3E-10 Ry

     iteration # 34     ecut=    50.00 Ry     beta=0.60
     Davidson diagonalization with overlap
     ethr =  1.67E-12,  avg # of iterations =  4.3

     total cpu time spent up to now is     6176.8 secs

     total energy              =    -469.12975037 Ry
     Harris-Foulkes estimate   =    -469.12975037 Ry
     estimated scf accuracy    <          1.2E-09 Ry

     iteration # 35     ecut=    50.00 Ry     beta=0.60
     Davidson diagonalization with overlap
     ethr =  1.67E-12,  avg # of iterations =  1.0

     total cpu time spent up to now is     6240.9 secs

     total energy              =    -469.12975037 Ry
     Harris-Foulkes estimate   =    -469.12975037 Ry
     estimated scf accuracy    <          5.0E-10 Ry

     iteration # 36     ecut=    50.00 Ry     beta=0.60
     Davidson diagonalization with overlap
     ethr =  1.00E-12,  avg # of iterations =  2.7

     total cpu time spent up to now is     6313.3 secs

     End of self-consistent calculation

     Number of k-points >= 100: set verbosity='high' to print the bands.

     the Fermi energy is    13.8136 ev

!    total energy              =    -469.12975037 Ry
     Harris-Foulkes estimate   =    -469.12975037 Ry
     estimated scf accuracy    <          9.5E-12 Ry

     The total energy is the sum of the following terms:

     one-electron contribution =    -133.02714050 Ry
     hartree contribution      =      84.10726242 Ry
     xc contribution           =     -65.57387274 Ry
     ewald contribution        =    -354.63486350 Ry
     smearing contrib. (-TS)   =      -0.00113606 Ry

     convergence has been achieved in  36 iterations

     Forces acting on atoms (Ry/au):

     atom    1 type  2   force =     0.00000000   -0.00982626   -0.00982626
     atom    2 type  2   force =     0.00000000    0.00982626    0.00982626
     atom    3 type  1   force =    -0.00000000   -0.01049155   -0.01049155
     atom    4 type  1   force =     0.00000000    0.01049155    0.01049155

     Total force =     0.028749     Total SCF correction =     0.000005


     entering subroutine stress ...

          total   stress  (Ry/bohr**3)                   (kbar)     P= -125.73
  -0.00082218  -0.00000000   0.00000000       -120.95     -0.00      0.00
  -0.00000000  -0.00087093  -0.00006884         -0.00   -128.12    -10.13
  -0.00000000  -0.00006884  -0.00087093         -0.00    -10.13   -128.12


     number of scf cycles    =   2
     number of bfgs steps    =   1

     enthalpy old            =    -469.0630543652 Ry
     enthalpy new            =    -469.1297503724 Ry

     CASE: enthalpy_new < enthalpy_old

     new trust radius        =       0.2380388224 bohr
     new conv_thr            =            1.0E-10 Ry

     new unit-cell volume =    452.51884 a.u.^3 (    67.05637 Ang^3 )

CELL_PARAMETERS (alat=  1.88972599)
   1.616700013   1.581516852   4.820773496
  -1.616700013   4.820773496   1.581516852
  -1.616700013  -4.820773496  -1.581516852

ATOMIC_POSITIONS (angstrom)
Ti      -1.616700013   1.583883683   1.583883683
Ti      -1.616700013  -1.602939417   1.636317226
Nb      -1.616700013   1.563627802   4.802884446
Nb      -0.000000000  -0.001166685   3.238089959


     NEW-OLD atomic charge density approx. for the potential
     extrapolated charge   41.91025, renormalised to   50.00000

     total cpu time spent up to now is     6340.0 secs

     per-process dynamical memory:   245.8 Mb

     Self-consistent Calculation

     iteration #  1     ecut=    50.00 Ry     beta=0.60
     Davidson diagonalization with overlap
     c_bands:  1 eigenvalues not converged
     c_bands:  1 eigenvalues not converged
     ethr =  1.00E-06,  avg # of iterations = 14.8

     total cpu time spent up to now is     6623.3 secs

     total energy              =    -425.78950908 Ry
     Harris-Foulkes estimate   =    -484.87321482 Ry
     estimated scf accuracy    <      48.53917438 Ry

     iteration #  2     ecut=    50.00 Ry     beta=0.60
     Davidson diagonalization with overlap
     ethr =  1.00E-02,  avg # of iterations =  5.6

     total cpu time spent up to now is     6765.1 secs

     total energy              =    -454.94795934 Ry
     Harris-Foulkes estimate   =    -524.22079766 Ry
     estimated scf accuracy    <     211.29429559 Ry

     iteration #  3     ecut=    50.00 Ry     beta=0.60
     Davidson diagonalization with overlap
     ethr =  1.00E-02,  avg # of iterations =  4.3

     total cpu time spent up to now is     6890.6 secs

     total energy              =    -471.85098871 Ry
     Harris-Foulkes estimate   =    -475.83056815 Ry
     estimated scf accuracy    <      17.63425354 Ry

     iteration #  4     ecut=    50.00 Ry     beta=0.60
     Davidson diagonalization with overlap
     ethr =  1.00E-02,  avg # of iterations =  1.6

     total cpu time spent up to now is     6956.9 secs

     total energy              =    -469.11642968 Ry
     Harris-Foulkes estimate   =    -472.11197670 Ry
     estimated scf accuracy    <      10.89333374 Ry

     iteration #  5     ecut=    50.00 Ry     beta=0.60
     Davidson diagonalization with overlap
     ethr =  1.00E-02,  avg # of iterations =  2.5

     total cpu time spent up to now is     7035.7 secs

     total energy              =    -470.10643001 Ry
     Harris-Foulkes estimate   =    -469.72401290 Ry
     estimated scf accuracy    <       2.54195981 Ry

     iteration #  6     ecut=    50.00 Ry     beta=0.60
     Davidson diagonalization with overlap
     ethr =  5.08E-03,  avg # of iterations =  1.3

     total cpu time spent up to now is     7100.7 secs

     total energy              =    -469.76187933 Ry
     Harris-Foulkes estimate   =    -470.16384919 Ry
     estimated scf accuracy    <       3.90034752 Ry

     iteration #  7     ecut=    50.00 Ry     beta=0.60
     Davidson diagonalization with overlap
     ethr =  5.08E-03,  avg # of iterations =  1.0

     total cpu time spent up to now is     7164.8 secs

     total energy              =    -469.16704965 Ry
     Harris-Foulkes estimate   =    -469.77960317 Ry
     estimated scf accuracy    <       2.97785681 Ry

     iteration #  8     ecut=    50.00 Ry     beta=0.60
     Davidson diagonalization with overlap
     ethr =  5.08E-03,  avg # of iterations =  1.2

     total cpu time spent up to now is     7229.2 secs

     total energy              =    -468.94426989 Ry
     Harris-Foulkes estimate   =    -469.23398107 Ry
     estimated scf accuracy    <       1.27434961 Ry

     iteration #  9     ecut=    50.00 Ry     beta=0.60
     Davidson diagonalization with overlap
     ethr =  2.55E-03,  avg # of iterations =  4.0

     total cpu time spent up to now is     7316.4 secs

     total energy              =    -469.14861377 Ry
     Harris-Foulkes estimate   =    -469.17346184 Ry
     estimated scf accuracy    <       0.13383031 Ry

     iteration # 10     ecut=    50.00 Ry     beta=0.60
     Davidson diagonalization with overlap
     ethr =  2.68E-04,  avg # of iterations =  4.8

     total cpu time spent up to now is     7422.3 secs

     total energy              =    -469.00351413 Ry
     Harris-Foulkes estimate   =    -469.23441090 Ry
     estimated scf accuracy    <       0.44075842 Ry

     iteration # 11     ecut=    50.00 Ry     beta=0.60
     Davidson diagonalization with overlap
     ethr =  2.68E-04,  avg # of iterations =  5.0

     total cpu time spent up to now is     7546.0 secs

     total energy              =    -468.96360146 Ry
     Harris-Foulkes estimate   =    -469.26761396 Ry
     estimated scf accuracy    <       1.35875983 Ry

     iteration # 12     ecut=    50.00 Ry     beta=0.60
     Davidson diagonalization with overlap
     ethr =  2.68E-04,  avg # of iterations =  4.9

     total cpu time spent up to now is     7658.0 secs

     total energy              =    -469.23195455 Ry
     Harris-Foulkes estimate   =    -469.17127831 Ry
     estimated scf accuracy    <       0.16498566 Ry

     iteration # 13     ecut=    50.00 Ry     beta=0.60
     Davidson diagonalization with overlap
     ethr =  2.68E-04,  avg # of iterations =  4.1

     total cpu time spent up to now is     7740.2 secs

     total energy              =    -469.25904181 Ry
     Harris-Foulkes estimate   =    -469.26307804 Ry
     estimated scf accuracy    <       0.86139392 Ry

     iteration # 14     ecut=    50.00 Ry     beta=0.60
     Davidson diagonalization with overlap
     ethr =  2.68E-04,  avg # of iterations =  1.1

     total cpu time spent up to now is     7804.9 secs

     total energy              =    -469.18907410 Ry
     Harris-Foulkes estimate   =    -469.25996930 Ry
     estimated scf accuracy    <       0.85437372 Ry

     iteration # 15     ecut=    50.00 Ry     beta=0.60
     Davidson diagonalization with overlap
     ethr =  2.68E-04,  avg # of iterations =  1.4

     total cpu time spent up to now is     7870.1 secs

     total energy              =    -469.16960258 Ry
     Harris-Foulkes estimate   =    -469.19504521 Ry
     estimated scf accuracy    <       0.51891543 Ry

     iteration # 16     ecut=    50.00 Ry     beta=0.60
     Davidson diagonalization with overlap
     ethr =  2.68E-04,  avg # of iterations =  2.9

     total cpu time spent up to now is     7939.9 secs

     total energy              =    -469.09943090 Ry
     Harris-Foulkes estimate   =    -469.17502469 Ry
     estimated scf accuracy    <       0.31882735 Ry

     iteration # 17     ecut=    50.00 Ry     beta=0.60
     Davidson diagonalization with overlap
     ethr =  2.68E-04,  avg # of iterations =  4.7

     total cpu time spent up to now is     8034.8 secs

     total energy              =    -469.15559062 Ry
     Harris-Foulkes estimate   =    -469.15879437 Ry
     estimated scf accuracy    <       0.06019582 Ry

     iteration # 18     ecut=    50.00 Ry     beta=0.60
     Davidson diagonalization with overlap
     ethr =  1.20E-04,  avg # of iterations =  1.7

     total cpu time spent up to now is     8100.7 secs

     total energy              =    -469.15149036 Ry
     Harris-Foulkes estimate   =    -469.15606716 Ry
     estimated scf accuracy    <       0.03904960 Ry

     iteration # 19     ecut=    50.00 Ry     beta=0.60
     Davidson diagonalization with overlap
     ethr =  7.81E-05,  avg # of iterations =  2.0

     total cpu time spent up to now is     8168.5 secs

     total energy              =    -469.15321295 Ry
     Harris-Foulkes estimate   =    -469.15329423 Ry
     estimated scf accuracy    <       0.00414712 Ry

     iteration # 20     ecut=    50.00 Ry     beta=0.60
     Davidson diagonalization with overlap
     ethr =  8.29E-06,  avg # of iterations =  4.4

     total cpu time spent up to now is     8250.7 secs

     total energy              =    -469.15347033 Ry
     Harris-Foulkes estimate   =    -469.15355262 Ry
     estimated scf accuracy    <       0.00216757 Ry

     iteration # 21     ecut=    50.00 Ry     beta=0.60
     Davidson diagonalization with overlap
     ethr =  4.34E-06,  avg # of iterations =  1.9

     total cpu time spent up to now is     8317.2 secs

     total energy              =    -469.15322554 Ry
     Harris-Foulkes estimate   =    -469.15350557 Ry
     estimated scf accuracy    <       0.00137133 Ry

     iteration # 22     ecut=    50.00 Ry     beta=0.60
     Davidson diagonalization with overlap
     ethr =  2.74E-06,  avg # of iterations =  4.5

     total cpu time spent up to now is     8406.3 secs

     total energy              =    -469.15346744 Ry
     Harris-Foulkes estimate   =    -469.15349833 Ry
     estimated scf accuracy    <       0.00028752 Ry

     iteration # 23     ecut=    50.00 Ry     beta=0.60
     Davidson diagonalization with overlap
     ethr =  5.75E-07,  avg # of iterations =  1.2

     total cpu time spent up to now is     8471.1 secs

     total energy              =    -469.15343629 Ry
     Harris-Foulkes estimate   =    -469.15347511 Ry
     estimated scf accuracy    <       0.00011419 Ry

     iteration # 24     ecut=    50.00 Ry     beta=0.60
     Davidson diagonalization with overlap
     ethr =  2.28E-07,  avg # of iterations =  4.0

     total cpu time spent up to now is     8559.8 secs

     total energy              =    -469.15349582 Ry
     Harris-Foulkes estimate   =    -469.15349571 Ry
     estimated scf accuracy    <       0.00027680 Ry

     iteration # 25     ecut=    50.00 Ry     beta=0.60
     Davidson diagonalization with overlap
     ethr =  2.28E-07,  avg # of iterations =  1.0

     total cpu time spent up to now is     8631.0 secs

     total energy              =    -469.15347475 Ry
     Harris-Foulkes estimate   =    -469.15349615 Ry
     estimated scf accuracy    <       0.00028636 Ry

     iteration # 26     ecut=    50.00 Ry     beta=0.60
     Davidson diagonalization with overlap
     ethr =  2.28E-07,  avg # of iterations =  1.0

     total cpu time spent up to now is     8695.4 secs

     total energy              =    -469.15343491 Ry
     Harris-Foulkes estimate   =    -469.15347734 Ry
     estimated scf accuracy    <       0.00015633 Ry

     iteration # 27     ecut=    50.00 Ry     beta=0.60
     Davidson diagonalization with overlap
     ethr =  2.28E-07,  avg # of iterations =  3.5

     total cpu time spent up to now is     8779.4 secs

     total energy              =    -469.15346363 Ry
     Harris-Foulkes estimate   =    -469.15347338 Ry
     estimated scf accuracy    <       0.00007249 Ry

     iteration # 28     ecut=    50.00 Ry     beta=0.60
     Davidson diagonalization with overlap
     ethr =  1.45E-07,  avg # of iterations =  1.0

     total cpu time spent up to now is     8843.9 secs

     total energy              =    -469.15346256 Ry
     Harris-Foulkes estimate   =    -469.15346603 Ry
     estimated scf accuracy    <       0.00001891 Ry

     iteration # 29     ecut=    50.00 Ry     beta=0.60
     Davidson diagonalization with overlap
     ethr =  3.78E-08,  avg # of iterations =  3.6

     total cpu time spent up to now is     8930.4 secs

     total energy              =    -469.15346571 Ry
     Harris-Foulkes estimate   =    -469.15346585 Ry
     estimated scf accuracy    <       0.00000121 Ry

     iteration # 30     ecut=    50.00 Ry     beta=0.60
     Davidson diagonalization with overlap
     ethr =  2.41E-09,  avg # of iterations =  2.2

     total cpu time spent up to now is     9003.0 secs

     total energy              =    -469.15346568 Ry
     Harris-Foulkes estimate   =    -469.15346579 Ry
     estimated scf accuracy    <       0.00000045 Ry

     iteration # 31     ecut=    50.00 Ry     beta=0.60
     Davidson diagonalization with overlap
     ethr =  9.02E-10,  avg # of iterations =  3.6

     total cpu time spent up to now is     9083.8 secs

     total energy              =    -469.15346576 Ry
     Harris-Foulkes estimate   =    -469.15346578 Ry
     estimated scf accuracy    <       0.00000014 Ry

     iteration # 32     ecut=    50.00 Ry     beta=0.60
     Davidson diagonalization with overlap
     ethr =  2.83E-10,  avg # of iterations =  1.1

     total cpu time spent up to now is     9147.3 secs

     total energy              =    -469.15346576 Ry
     Harris-Foulkes estimate   =    -469.15346577 Ry
     estimated scf accuracy    <       0.00000003 Ry

     iteration # 33     ecut=    50.00 Ry     beta=0.60
     Davidson diagonalization with overlap
     ethr =  6.21E-11,  avg # of iterations =  3.7

     total cpu time spent up to now is     9228.5 secs

     End of self-consistent calculation

     Number of k-points >= 100: set verbosity='high' to print the bands.

     the Fermi energy is    16.5885 ev

!    total energy              =    -469.15346577 Ry
     Harris-Foulkes estimate   =    -469.15346577 Ry
     estimated scf accuracy    <          4.0E-11 Ry

     The total energy is the sum of the following terms:

     one-electron contribution =    -105.74689120 Ry
     hartree contribution      =      76.20547584 Ry
     xc contribution           =     -66.15659983 Ry
     ewald contribution        =    -373.45410621 Ry
     smearing contrib. (-TS)   =      -0.00134437 Ry

     convergence has been achieved in  33 iterations

     Forces acting on atoms (Ry/au):

     atom    1 type  2   force =     0.00000000   -0.00575604   -0.00575604
     atom    2 type  2   force =     0.00000000    0.00575604    0.00575604
     atom    3 type  1   force =     0.00000000   -0.00528256   -0.00528256
     atom    4 type  1   force =    -0.00000000    0.00528256    0.00528256

     Total force =     0.015625     Total SCF correction =     0.000019


     entering subroutine stress ...

          total   stress  (Ry/bohr**3)                   (kbar)     P=   64.15
   0.00048544   0.00000000   0.00000000         71.41      0.00      0.00
  -0.00000000   0.00041141  -0.00009297         -0.00     60.52    -13.68
   0.00000000  -0.00009297   0.00041141          0.00    -13.68     60.52


     number of scf cycles    =   3
     number of bfgs steps    =   2

     enthalpy old            =    -469.1297503724 Ry
     enthalpy new            =    -469.1534657695 Ry

     CASE: enthalpy_new < enthalpy_old

     new trust radius        =       0.0697652740 bohr
     new conv_thr            =            1.0E-10 Ry

     new unit-cell volume =    474.60681 a.u.^3 (    70.32947 Ang^3 )

CELL_PARAMETERS (alat=  1.88972599)
   1.643210666   1.603550440   4.896059197
  -1.643210666   4.896059197   1.603550440
  -1.643210666  -4.896059197  -1.603550440

ATOMIC_POSITIONS (angstrom)
Ti      -1.643210666   1.608092296   1.608092296
Ti      -1.643210666  -1.629444265   1.663064492
Nb      -1.643210666   1.585800258   4.878309016
Nb      -0.000000000  -0.003601788   3.288906969


     NEW-OLD atomic charge density approx. for the potential
     extrapolated charge   52.23364, renormalised to   50.00000

     total cpu time spent up to now is     9254.9 secs

     per-process dynamical memory:   245.8 Mb

     Self-consistent Calculation

     iteration #  1     ecut=    50.00 Ry     beta=0.60
     Davidson diagonalization with overlap
     ethr =  1.00E-06,  avg # of iterations = 11.7

     total cpu time spent up to now is     9468.8 secs

     total energy              =    -468.69195246 Ry
     Harris-Foulkes estimate   =    -465.57592718 Ry
     estimated scf accuracy    <       0.36906309 Ry

     iteration #  2     ecut=    50.00 Ry     beta=0.60
     Davidson diagonalization with overlap
     ethr =  7.38E-04,  avg # of iterations =  7.2

     total cpu time spent up to now is     9614.6 secs

     total energy              =    -468.50748605 Ry
     Harris-Foulkes estimate   =    -469.94019293 Ry
     estimated scf accuracy    <       9.37928809 Ry

     iteration #  3     ecut=    50.00 Ry     beta=0.60
     Davidson diagonalization with overlap
     ethr =  7.38E-04,  avg # of iterations =  5.1

     total cpu time spent up to now is     9727.4 secs

     total energy              =    -469.13609617 Ry
     Harris-Foulkes estimate   =    -469.25361556 Ry
     estimated scf accuracy    <       0.38108297 Ry

     iteration #  4     ecut=    50.00 Ry     beta=0.60
     Davidson diagonalization with overlap
     ethr =  7.38E-04,  avg # of iterations =  2.1

     total cpu time spent up to now is     9796.0 secs

     total energy              =    -469.16524102 Ry
     Harris-Foulkes estimate   =    -469.17410492 Ry
     estimated scf accuracy    <       0.06159759 Ry

     iteration #  5     ecut=    50.00 Ry     beta=0.60
     Davidson diagonalization with overlap
     ethr =  1.23E-04,  avg # of iterations =  4.0

     total cpu time spent up to now is     9878.1 secs

     total energy              =    -469.16591478 Ry
     Harris-Foulkes estimate   =    -469.17248044 Ry
     estimated scf accuracy    <       0.08204521 Ry

     iteration #  6     ecut=    50.00 Ry     beta=0.60
     Davidson diagonalization with overlap
     ethr =  1.23E-04,  avg # of iterations =  1.0

     total cpu time spent up to now is     9941.4 secs

     total energy              =    -469.16031638 Ry
     Harris-Foulkes estimate   =    -469.16667177 Ry
     estimated scf accuracy    <       0.05683432 Ry

     iteration #  7     ecut=    50.00 Ry     beta=0.60
     Davidson diagonalization with overlap
     ethr =  1.14E-04,  avg # of iterations =  1.0

     total cpu time spent up to now is    10005.1 secs

     total energy              =    -469.15737203 Ry
     Harris-Foulkes estimate   =    -469.16126613 Ry
     estimated scf accuracy    <       0.02837879 Ry

     iteration #  8     ecut=    50.00 Ry     beta=0.60
     Davidson diagonalization with overlap
     ethr =  5.68E-05,  avg # of iterations =  2.3

     total cpu time spent up to now is    10072.7 secs

     total energy              =    -469.15669997 Ry
     Harris-Foulkes estimate   =    -469.15842777 Ry
     estimated scf accuracy    <       0.00863983 Ry

     iteration #  9     ecut=    50.00 Ry     beta=0.60
     Davidson diagonalization with overlap
     ethr =  1.73E-05,  avg # of iterations =  4.0

     total cpu time spent up to now is    10153.4 secs

     total energy              =    -469.15776686 Ry
     Harris-Foulkes estimate   =    -469.15778769 Ry
     estimated scf accuracy    <       0.00031046 Ry

     iteration # 10     ecut=    50.00 Ry     beta=0.60
     Davidson diagonalization with overlap
     ethr =  6.21E-07,  avg # of iterations =  5.7

     total cpu time spent up to now is    10246.8 secs

     total energy              =    -469.15774244 Ry
     Harris-Foulkes estimate   =    -469.15783745 Ry
     estimated scf accuracy    <       0.00024827 Ry

     iteration # 11     ecut=    50.00 Ry     beta=0.60
     Davidson diagonalization with overlap
     ethr =  4.97E-07,  avg # of iterations =  2.4

     total cpu time spent up to now is    10316.8 secs

     total energy              =    -469.15774004 Ry
     Harris-Foulkes estimate   =    -469.15776275 Ry
     estimated scf accuracy    <       0.00006028 Ry

     iteration # 12     ecut=    50.00 Ry     beta=0.60
     Davidson diagonalization with overlap
     ethr =  1.21E-07,  avg # of iterations =  5.1

     total cpu time spent up to now is    10424.9 secs

     total energy              =    -469.15778382 Ry
     Harris-Foulkes estimate   =    -469.15789143 Ry
     estimated scf accuracy    <       0.00151340 Ry

     iteration # 13     ecut=    50.00 Ry     beta=0.60
     Davidson diagonalization with overlap
     ethr =  1.21E-07,  avg # of iterations =  3.9

     total cpu time spent up to now is    10509.8 secs

     total energy              =    -469.15775502 Ry
     Harris-Foulkes estimate   =    -469.15780210 Ry
     estimated scf accuracy    <       0.00057966 Ry

     iteration # 14     ecut=    50.00 Ry     beta=0.60
     Davidson diagonalization with overlap
     ethr =  1.21E-07,  avg # of iterations =  3.6

     total cpu time spent up to now is    10586.6 secs

     total energy              =    -469.15774119 Ry
     Harris-Foulkes estimate   =    -469.15776408 Ry
     estimated scf accuracy    <       0.00019562 Ry

     iteration # 15     ecut=    50.00 Ry     beta=0.60
     Davidson diagonalization with overlap
     ethr =  1.21E-07,  avg # of iterations =  3.2

     total cpu time spent up to now is    10660.2 secs

     total energy              =    -469.15774427 Ry
     Harris-Foulkes estimate   =    -469.15774917 Ry
     estimated scf accuracy    <       0.00002991 Ry

     iteration # 16     ecut=    50.00 Ry     beta=0.60
     Davidson diagonalization with overlap
     ethr =  5.98E-08,  avg # of iterations =  3.8

     total cpu time spent up to now is    10737.2 secs

     total energy              =    -469.15774914 Ry
     Harris-Foulkes estimate   =    -469.15774913 Ry
     estimated scf accuracy    <       0.00000057 Ry

     iteration # 17     ecut=    50.00 Ry     beta=0.60
     Davidson diagonalization with overlap
     ethr =  1.14E-09,  avg # of iterations =  5.1

     total cpu time spent up to now is    10839.4 secs

     total energy              =    -469.15774947 Ry
     Harris-Foulkes estimate   =    -469.15774969 Ry
     estimated scf accuracy    <       0.00000359 Ry

     iteration # 18     ecut=    50.00 Ry     beta=0.60
     Davidson diagonalization with overlap
     ethr =  1.14E-09,  avg # of iterations =  1.0

     total cpu time spent up to now is    10902.8 secs

     total energy              =    -469.15774907 Ry
     Harris-Foulkes estimate   =    -469.15774949 Ry
     estimated scf accuracy    <       0.00000216 Ry

     iteration # 19     ecut=    50.00 Ry     beta=0.60
     Davidson diagonalization with overlap
     ethr =  1.14E-09,  avg # of iterations =  4.0

     total cpu time spent up to now is    10988.6 secs

     total energy              =    -469.15774934 Ry
     Harris-Foulkes estimate   =    -469.15774935 Ry
     estimated scf accuracy    <       0.00000012 Ry

     iteration # 20     ecut=    50.00 Ry     beta=0.60
     Davidson diagonalization with overlap
     ethr =  2.45E-10,  avg # of iterations =  1.6

     total cpu time spent up to now is    11053.4 secs

     total energy              =    -469.15774934 Ry
     Harris-Foulkes estimate   =    -469.15774934 Ry
     estimated scf accuracy    <       0.00000002 Ry

     iteration # 21     ecut=    50.00 Ry     beta=0.60
     Davidson diagonalization with overlap
     ethr =  3.98E-11,  avg # of iterations =  4.1

     total cpu time spent up to now is    11143.1 secs

     total energy              =    -469.15774934 Ry
     Harris-Foulkes estimate   =    -469.15774935 Ry
     estimated scf accuracy    <       0.00000002 Ry

     iteration # 22     ecut=    50.00 Ry     beta=0.60
     Davidson diagonalization with overlap
     ethr =  3.98E-11,  avg # of iterations =  1.0

     total cpu time spent up to now is    11206.3 secs

     total energy              =    -469.15774934 Ry
     Harris-Foulkes estimate   =    -469.15774934 Ry
     estimated scf accuracy    <          9.4E-09 Ry

     iteration # 23     ecut=    50.00 Ry     beta=0.60
     Davidson diagonalization with overlap
     ethr =  1.88E-11,  avg # of iterations =  3.1

     total cpu time spent up to now is    11284.1 secs

     total energy              =    -469.15774934 Ry
     Harris-Foulkes estimate   =    -469.15774934 Ry
     estimated scf accuracy    <          7.0E-10 Ry

     iteration # 24     ecut=    50.00 Ry     beta=0.60
     Davidson diagonalization with overlap
     ethr =  1.39E-12,  avg # of iterations =  2.5

     total cpu time spent up to now is    11354.4 secs

     total energy              =    -469.15774934 Ry
     Harris-Foulkes estimate   =    -469.15774934 Ry
     estimated scf accuracy    <          4.3E-10 Ry

     iteration # 25     ecut=    50.00 Ry     beta=0.60
     Davidson diagonalization with overlap
     ethr =  8.55E-13,  avg # of iterations =  2.8

     total cpu time spent up to now is    11426.1 secs

     End of self-consistent calculation

     Number of k-points >= 100: set verbosity='high' to print the bands.

     the Fermi energy is    15.6945 ev

!    total energy              =    -469.15774934 Ry
     Harris-Foulkes estimate   =    -469.15774934 Ry
     estimated scf accuracy    <          3.3E-12 Ry

     The total energy is the sum of the following terms:

     one-electron contribution =    -114.23511817 Ry
     hartree contribution      =      78.61636348 Ry
     xc contribution           =     -65.96860773 Ry
     ewald contribution        =    -367.56915952 Ry
     smearing contrib. (-TS)   =      -0.00122741 Ry

     convergence has been achieved in  25 iterations

     Forces acting on atoms (Ry/au):

     atom    1 type  2   force =    -0.00000000   -0.00660271   -0.00660271
     atom    2 type  2   force =    -0.00000000    0.00660271    0.00660271
     atom    3 type  1   force =     0.00000000   -0.00701239   -0.00701239
     atom    4 type  1   force =     0.00000000    0.00701239    0.00701239

     Total force =     0.019263     Total SCF correction =     0.000003


     entering subroutine stress ...

          total   stress  (Ry/bohr**3)                   (kbar)     P=   -5.18
   0.00000699  -0.00000000   0.00000000          1.03     -0.00      0.00
  -0.00000000  -0.00005635  -0.00008692         -0.00     -8.29    -12.79
   0.00000000  -0.00008692  -0.00005635          0.00    -12.79     -8.29


     number of scf cycles    =   4
     number of bfgs steps    =   3

     enthalpy old            =    -469.1534657695 Ry
     enthalpy new            =    -469.1577493445 Ry

     CASE: enthalpy_new < enthalpy_old

     new trust radius        =       0.0116529893 bohr
     new conv_thr            =            1.0E-10 Ry

     new unit-cell volume =    473.07426 a.u.^3 (    70.10237 Ang^3 )

CELL_PARAMETERS (alat=  1.88972599)
   1.643175890   1.590498152   4.884777905
  -1.643175890   4.884777905   1.590498152
  -1.643175890  -4.884777905  -1.590498152

ATOMIC_POSITIONS (angstrom)
Ti      -1.643175890   1.598898129   1.598898129
Ti      -1.643175890  -1.627218992   1.667060761
Nb      -1.643175890   1.569471352   4.863751106
Nb      -0.000000000  -0.007294063   3.286985690


     NEW-OLD atomic charge density approx. for the potential
     extrapolated charge   49.84452, renormalised to   50.00000

     total cpu time spent up to now is    11452.8 secs

     per-process dynamical memory:   245.8 Mb

     Self-consistent Calculation

     iteration #  1     ecut=    50.00 Ry     beta=0.60
     Davidson diagonalization with overlap
     ethr =  1.00E-06,  avg # of iterations =  5.0

     total cpu time spent up to now is    11603.2 secs

     total energy              =    -469.15569141 Ry
     Harris-Foulkes estimate   =    -469.41240177 Ry
     estimated scf accuracy    <       0.00219691 Ry

     iteration #  2     ecut=    50.00 Ry     beta=0.60
     Davidson diagonalization with overlap
     ethr =  4.39E-06,  avg # of iterations =  5.4

     total cpu time spent up to now is    11741.5 secs

     total energy              =    -469.15650878 Ry
     Harris-Foulkes estimate   =    -469.16116920 Ry
     estimated scf accuracy    <       0.02182860 Ry

     iteration #  3     ecut=    50.00 Ry     beta=0.60
     Davidson diagonalization with overlap
     ethr =  4.39E-06,  avg # of iterations =  4.4

     total cpu time spent up to now is    11844.5 secs

     total energy              =    -469.15808512 Ry
     Harris-Foulkes estimate   =    -469.15896908 Ry
     estimated scf accuracy    <       0.00288861 Ry

     iteration #  4     ecut=    50.00 Ry     beta=0.60
     Davidson diagonalization with overlap
     ethr =  4.39E-06,  avg # of iterations =  3.0

     total cpu time spent up to now is    11920.3 secs

     total energy              =    -469.15839901 Ry
     Harris-Foulkes estimate   =    -469.15847647 Ry
     estimated scf accuracy    <       0.00075378 Ry

     iteration #  5     ecut=    50.00 Ry     beta=0.60
     Davidson diagonalization with overlap
     ethr =  1.51E-06,  avg # of iterations =  1.1

     total cpu time spent up to now is    11983.8 secs

     total energy              =    -469.15822926 Ry
     Harris-Foulkes estimate   =    -469.15841475 Ry
     estimated scf accuracy    <       0.00053936 Ry

     iteration #  6     ecut=    50.00 Ry     beta=0.60
     Davidson diagonalization with overlap
     ethr =  1.08E-06,  avg # of iterations =  3.2

     total cpu time spent up to now is    12060.3 secs

     total energy              =    -469.15830539 Ry
     Harris-Foulkes estimate   =    -469.15830645 Ry
     estimated scf accuracy    <       0.00000759 Ry

     iteration #  7     ecut=    50.00 Ry     beta=0.60
     Davidson diagonalization with overlap
     ethr =  1.52E-08,  avg # of iterations =  4.9

     total cpu time spent up to now is    12170.2 secs

     total energy              =    -469.15831215 Ry
     Harris-Foulkes estimate   =    -469.15831306 Ry
     estimated scf accuracy    <       0.00000273 Ry

     iteration #  8     ecut=    50.00 Ry     beta=0.60
     Davidson diagonalization with overlap
     ethr =  5.47E-09,  avg # of iterations =  3.0

     total cpu time spent up to now is    12242.8 secs

     total energy              =    -469.15831252 Ry
     Harris-Foulkes estimate   =    -469.15831242 Ry
     estimated scf accuracy    <       0.00000014 Ry

     iteration #  9     ecut=    50.00 Ry     beta=0.60
     Davidson diagonalization with overlap
     ethr =  2.76E-10,  avg # of iterations =  4.1

     total cpu time spent up to now is    12336.5 secs

     total energy              =    -469.15831238 Ry
     Harris-Foulkes estimate   =    -469.15831259 Ry
     estimated scf accuracy    <       0.00000045 Ry

     iteration # 10     ecut=    50.00 Ry     beta=0.60
     Davidson diagonalization with overlap
     ethr =  2.76E-10,  avg # of iterations =  4.5

     total cpu time spent up to now is    12440.3 secs

     total energy              =    -469.15831246 Ry
     Harris-Foulkes estimate   =    -469.15831246 Ry
     estimated scf accuracy    <       0.00000003 Ry

     iteration # 11     ecut=    50.00 Ry     beta=0.60
     Davidson diagonalization with overlap
     ethr =  5.76E-11,  avg # of iterations =  2.1

     total cpu time spent up to now is    12511.5 secs

     total energy              =    -469.15831245 Ry
     Harris-Foulkes estimate   =    -469.15831246 Ry
     estimated scf accuracy    <       0.00000002 Ry

     iteration # 12     ecut=    50.00 Ry     beta=0.60
     Davidson diagonalization with overlap
     ethr =  4.49E-11,  avg # of iterations =  1.8

     total cpu time spent up to now is    12576.6 secs

     total energy              =    -469.15831246 Ry
     Harris-Foulkes estimate   =    -469.15831246 Ry
     estimated scf accuracy    <          3.4E-09 Ry

     iteration # 13     ecut=    50.00 Ry     beta=0.60
     Davidson diagonalization with overlap
     ethr =  6.84E-12,  avg # of iterations =  4.2

     total cpu time spent up to now is    12664.4 secs

     total energy              =    -469.15831246 Ry
     Harris-Foulkes estimate   =    -469.15831246 Ry
     estimated scf accuracy    <          1.1E-09 Ry

     iteration # 14     ecut=    50.00 Ry     beta=0.60
     Davidson diagonalization with overlap
     ethr =  2.17E-12,  avg # of iterations =  1.1

     total cpu time spent up to now is    12728.1 secs

     total energy              =    -469.15831246 Ry
     Harris-Foulkes estimate   =    -469.15831246 Ry
     estimated scf accuracy    <          3.2E-10 Ry

     iteration # 15     ecut=    50.00 Ry     beta=0.60
     Davidson diagonalization with overlap
     ethr =  6.31E-13,  avg # of iterations =  3.2

     total cpu time spent up to now is    12800.5 secs

     End of self-consistent calculation

     Number of k-points >= 100: set verbosity='high' to print the bands.

     the Fermi energy is    15.7521 ev

!    total energy              =    -469.15831246 Ry
     Harris-Foulkes estimate   =    -469.15831246 Ry
     estimated scf accuracy    <          5.0E-11 Ry

     The total energy is the sum of the following terms:

     one-electron contribution =    -113.72061229 Ry
     hartree contribution      =      78.48063457 Ry
     xc contribution           =     -65.98285773 Ry
     ewald contribution        =    -367.93437104 Ry
     smearing contrib. (-TS)   =      -0.00110596 Ry

     convergence has been achieved in  15 iterations

     Forces acting on atoms (Ry/au):

     atom    1 type  2   force =     0.00000000   -0.00601420   -0.00601420
     atom    2 type  2   force =     0.00000000    0.00601420    0.00601420
     atom    3 type  1   force =     0.00000000   -0.00669633   -0.00669633
     atom    4 type  1   force =     0.00000000    0.00669633    0.00669633

     Total force =     0.018001     Total SCF correction =     0.000005


     entering subroutine stress ...

          total   stress  (Ry/bohr**3)                   (kbar)     P=   -0.42
   0.00003681  -0.00000000   0.00000000          5.42     -0.00      0.00
   0.00000000  -0.00002272  -0.00008764          0.00     -3.34    -12.89
  -0.00000000  -0.00008764  -0.00002272         -0.00    -12.89     -3.34


     number of scf cycles    =   5
     number of bfgs steps    =   4

     enthalpy old            =    -469.1577493445 Ry
     enthalpy new            =    -469.1583124563 Ry

     CASE: enthalpy_new < enthalpy_old


     WARNING: bfgs curvature condition failed, Theta= 0.912
     new trust radius        =       0.0128445587 bohr
     new conv_thr            =            1.0E-10 Ry

     new unit-cell volume =    472.33710 a.u.^3 (    69.99314 Ang^3 )

CELL_PARAMETERS (alat=  1.88972599)
   1.644444588   1.575389992   4.874787512
  -1.644444588   4.874787512   1.575389992
  -1.644444588  -4.874787512  -1.575389992

ATOMIC_POSITIONS (angstrom)
Ti      -1.644444588   1.588949816   1.588949816
Ti      -1.644444588  -1.626104199   1.673293320
Nb      -1.644444588   1.550385678   4.849783198
Nb      -0.000000000  -0.012150070   3.287247450


     NEW-OLD atomic charge density approx. for the potential
     extrapolated charge   49.92510, renormalised to   50.00000

     total cpu time spent up to now is    12827.1 secs

     per-process dynamical memory:   245.8 Mb

     Self-consistent Calculation

     iteration #  1     ecut=    50.00 Ry     beta=0.60
     Davidson diagonalization with overlap
     ethr =  1.00E-06,  avg # of iterations =  4.7

     total cpu time spent up to now is    12978.8 secs

     total energy              =    -469.15833073 Ry
     Harris-Foulkes estimate   =    -469.28112086 Ry
     estimated scf accuracy    <       0.00063807 Ry

     iteration #  2     ecut=    50.00 Ry     beta=0.60
     Davidson diagonalization with overlap
     ethr =  1.28E-06,  avg # of iterations =  3.6

     total cpu time spent up to now is    13093.0 secs

     total energy              =    -469.15885274 Ry
     Harris-Foulkes estimate   =    -469.15920781 Ry
     estimated scf accuracy    <       0.00089393 Ry

     iteration #  3     ecut=    50.00 Ry     beta=0.60
     Davidson diagonalization with overlap
     ethr =  1.28E-06,  avg # of iterations =  2.9

     total cpu time spent up to now is    13169.4 secs

     total energy              =    -469.15896112 Ry
     Harris-Foulkes estimate   =    -469.15898689 Ry
     estimated scf accuracy    <       0.00033281 Ry

     iteration #  4     ecut=    50.00 Ry     beta=0.60
     Davidson diagonalization with overlap
     ethr =  6.66E-07,  avg # of iterations =  1.0

     total cpu time spent up to now is    13233.0 secs

     total energy              =    -469.15892146 Ry
     Harris-Foulkes estimate   =    -469.15896778 Ry
     estimated scf accuracy    <       0.00019220 Ry

     iteration #  5     ecut=    50.00 Ry     beta=0.60
     Davidson diagonalization with overlap
     ethr =  3.84E-07,  avg # of iterations =  2.0

     total cpu time spent up to now is    13299.0 secs

     total energy              =    -469.15891221 Ry
     Harris-Foulkes estimate   =    -469.15893111 Ry
     estimated scf accuracy    <       0.00003873 Ry

     iteration #  6     ecut=    50.00 Ry     beta=0.60
     Davidson diagonalization with overlap
     ethr =  7.75E-08,  avg # of iterations =  4.6

     total cpu time spent up to now is    13396.3 secs

     total energy              =    -469.15893113 Ry
     Harris-Foulkes estimate   =    -469.15893315 Ry
     estimated scf accuracy    <       0.00005027 Ry

     iteration #  7     ecut=    50.00 Ry     beta=0.60
     Davidson diagonalization with overlap
     ethr =  7.75E-08,  avg # of iterations =  1.0

     total cpu time spent up to now is    13459.4 secs

     total energy              =    -469.15892608 Ry
     Harris-Foulkes estimate   =    -469.15893134 Ry
     estimated scf accuracy    <       0.00003672 Ry

     iteration #  8     ecut=    50.00 Ry     beta=0.60
     Davidson diagonalization with overlap
     ethr =  7.34E-08,  avg # of iterations =  2.2

     total cpu time spent up to now is    13526.1 secs

     total energy              =    -469.15892744 Ry
     Harris-Foulkes estimate   =    -469.15892780 Ry
     estimated scf accuracy    <       0.00000370 Ry

     iteration #  9     ecut=    50.00 Ry     beta=0.60
     Davidson diagonalization with overlap
     ethr =  7.40E-09,  avg # of iterations =  4.1

     total cpu time spent up to now is    13611.4 secs

     total energy              =    -469.15892819 Ry
     Harris-Foulkes estimate   =    -469.15892826 Ry
     estimated scf accuracy    <       0.00000015 Ry

     iteration # 10     ecut=    50.00 Ry     beta=0.60
     Davidson diagonalization with overlap
     ethr =  3.03E-10,  avg # of iterations =  4.2

     total cpu time spent up to now is    13701.1 secs

     total energy              =    -469.15892822 Ry
     Harris-Foulkes estimate   =    -469.15892823 Ry
     estimated scf accuracy    <       0.00000004 Ry

     iteration # 11     ecut=    50.00 Ry     beta=0.60
     Davidson diagonalization with overlap
     ethr =  7.22E-11,  avg # of iterations =  3.0

     total cpu time spent up to now is    13776.9 secs

     total energy              =    -469.15892823 Ry
     Harris-Foulkes estimate   =    -469.15892823 Ry
     estimated scf accuracy    <          2.9E-09 Ry

     iteration # 12     ecut=    50.00 Ry     beta=0.60
     Davidson diagonalization with overlap
     ethr =  5.83E-12,  avg # of iterations =  3.0

     total cpu time spent up to now is    13852.7 secs

     total energy              =    -469.15892823 Ry
     Harris-Foulkes estimate   =    -469.15892823 Ry
     estimated scf accuracy    <          8.3E-10 Ry

     iteration # 13     ecut=    50.00 Ry     beta=0.60
     Davidson diagonalization with overlap
     ethr =  1.66E-12,  avg # of iterations =  3.5

     total cpu time spent up to now is    13928.1 secs

     End of self-consistent calculation

     Number of k-points >= 100: set verbosity='high' to print the bands.

     the Fermi energy is    15.7788 ev

!    total energy              =    -469.15892823 Ry
     Harris-Foulkes estimate   =    -469.15892823 Ry
     estimated scf accuracy    <          3.5E-11 Ry

     The total energy is the sum of the following terms:

     one-electron contribution =    -113.52533314 Ry
     hartree contribution      =      78.44092291 Ry
     xc contribution           =     -65.99124683 Ry
     ewald contribution        =    -368.08233189 Ry
     smearing contrib. (-TS)   =      -0.00093928 Ry

[...]
End final coordinates



     A final scf calculation at the relaxed structure.
     The G-vectors are recalculated for the final unit cell
     Results may differ from those at the preceding step.

   Info: using nr1, nr2, nr3 values from input

   Info: using nr1, nr2, nr3 values from input

     Parallelization info
     --------------------
     sticks:   dense  smooth     PW     G-vecs:    dense   smooth      PW
     Min         917     367    117                22422     5676    1046
     Max         918     368    118                22423     5677    1047
     Sum        3671    1471    471                89691    22705    4187



     bravais-lattice index     =            0
     lattice parameter (alat)  =       1.8897  a.u.
     unit-cell volume          =     475.1221 (a.u.)^3
     number of atoms/cell      =            4
     number of atomic types    =            2
     number of electrons       =        50.00
     number of Kohn-Sham states=           30
     kinetic-energy cutoff     =      50.0000  Ry
     charge density cutoff     =     500.0000  Ry
     convergence threshold     =      1.0E-12
     mixing beta               =       0.6000
     number of iterations used =            8  plain     mixing
     Exchange-correlation      = SLA  PW   PBE  PBE ( 1  4  3  4 0 0)

     celldm(1)=   1.889726  celldm(2)=   0.000000  celldm(3)=   0.000000
     celldm(4)=   0.000000  celldm(5)=   0.000000  celldm(6)=   0.000000

     crystal axes: (cart. coord. in units of alat)
               a(1) = (   1.654592   1.477658   4.843487 )  
               a(2) = (  -1.654592   4.843487   1.477658 )  
               a(3) = (  -1.654592  -4.843487  -1.477658 )  

     reciprocal axes: (cart. coord. in units 2 pi/alat)
               b(1) = (  0.000000 -0.069452  0.227651 )  
               b(2) = ( -0.302189  0.079100  0.079100 )  
               b(3) = ( -0.302189 -0.148552  0.148552 )  


     PseudoPot. # 1 for Nb read from file:
     ./Nb.pbe-nsp-van.UPF
     MD5 check sum: 0a22fc7fb0ba19a08ca5db297a5d2854
     Pseudo is Ultrasoft + core correction, Zval = 13.0
     Generated by new atomic code, or converted to UPF format
     Using radial grid of  887 points,  6 beta functions with: 
                l(1) =   0
                l(2) =   0
                l(3) =   1
                l(4) =   1
                l(5) =   2
                l(6) =   2
     Q(r) pseudized with  6 coefficients,  rinner =    1.000   1.000   1.000
                                                       1.000   1.000

     PseudoPot. # 2 for Ti read from file:
     ./Ti.pbe-sp-van_ak.UPF
     MD5 check sum: f98fea3e8887528921fefa5636a534ca
     Pseudo is Ultrasoft, Zval = 12.0
     Generated by new atomic code, or converted to UPF format
     Using radial grid of  851 points,  6 beta functions with: 
                l(1) =   0
                l(2) =   0
                l(3) =   1
                l(4) =   1
                l(5) =   2
                l(6) =   2
     Q(r) pseudized with  8 coefficients,  rinner =    1.000   1.000   1.000
                                                       1.000   1.000

     atomic species   valence    mass     pseudopotential
        Nb            13.00    92.90638     Nb( 1.00)
        Ti            12.00    47.86700     Ti( 1.00)

      8 Sym. Ops., with inversion, found ( 4 have fractional translation)



   Cartesian axes

     site n.     atom                  positions (alat units)
         1           Ti  tau(   1) = (  -1.6545921   1.5344651   1.5344651  )
         2           Ti  tau(   2) = (  -1.6545921  -1.6370934   1.7287358  )
         3           Nb  tau(   3) = (  -1.6545921   1.4247309   4.7905601  )
         4           Nb  tau(   4) = (  -0.0000000  -0.0497010   3.3161282  )

     number of k points=   343  Marzari-Vanderbilt smearing, width (Ry)=  0.0200

     Number of k-points >= 100: set verbosity='high' to print them.

     Dense  grid:    89691 G-vectors     FFT dimensions: (  80,  80,  80)

     Smooth grid:    22705 G-vectors     FFT dimensions: (  50,  50,  50)

     Estimated max dynamical RAM per process >     133.48Mb

     Estimated total allocated dynamical RAM >     533.92Mb

     Initial potential from superposition of free atoms

     starting charge   47.99445, renormalised to   50.00000
     Starting wfc are   46 randomized atomic wfcs

     total cpu time spent up to now is    30889.9 secs

     per-process dynamical memory:   225.5 Mb

     Self-consistent Calculation

     iteration #  1     ecut=    50.00 Ry     beta=0.60
     Davidson diagonalization with overlap
     c_bands:  1 eigenvalues not converged
     c_bands:  1 eigenvalues not converged
     c_bands:  2 eigenvalues not converged
     c_bands:  1 eigenvalues not converged
     c_bands:  1 eigenvalues not converged
     c_bands:  1 eigenvalues not converged
     c_bands:  2 eigenvalues not converged
     c_bands:  1 eigenvalues not converged
     c_bands:  1 eigenvalues not converged
     c_bands:  1 eigenvalues not converged
     c_bands:  1 eigenvalues not converged
     c_bands:  1 eigenvalues not converged
     c_bands:  1 eigenvalues not converged
     c_bands:  1 eigenvalues not converged
     c_bands:  1 eigenvalues not converged
     c_bands:  1 eigenvalues not converged
     c_bands:  2 eigenvalues not converged
     c_bands:  2 eigenvalues not converged
     c_bands:  1 eigenvalues not converged
     c_bands:  1 eigenvalues not converged
     c_bands:  1 eigenvalues not converged
     c_bands:  1 eigenvalues not converged
     c_bands:  1 eigenvalues not converged
     c_bands:  1 eigenvalues not converged
     ethr =  1.00E-06,  avg # of iterations = 12.6

     total cpu time spent up to now is    31104.8 secs

     total energy              =    -463.80624063 Ry
     Harris-Foulkes estimate   =    -470.43438299 Ry
     estimated scf accuracy    <       8.47010742 Ry

     iteration #  2     ecut=    50.00 Ry     beta=0.60
     Davidson diagonalization with overlap
     ethr =  1.00E-02,  avg # of iterations =  4.8

     total cpu time spent up to now is    31216.2 secs

     total energy              =    -466.95051604 Ry
     Harris-Foulkes estimate   =    -478.07857532 Ry
     estimated scf accuracy    <      32.72488868 Ry

     iteration #  3     ecut=    50.00 Ry     beta=0.60
     Davidson diagonalization with overlap
     ethr =  1.00E-02,  avg # of iterations =  4.4

     total cpu time spent up to now is    31301.4 secs

     total energy              =    -469.49330348 Ry
     Harris-Foulkes estimate   =    -469.63074162 Ry
     estimated scf accuracy    <       3.80804329 Ry

     iteration #  4     ecut=    50.00 Ry     beta=0.60
     Davidson diagonalization with overlap
     ethr =  7.62E-03,  avg # of iterations =  1.0

     total cpu time spent up to now is    31360.9 secs

     total energy              =    -468.92417028 Ry
     Harris-Foulkes estimate   =    -469.53854032 Ry
     estimated scf accuracy    <       3.31761760 Ry

     iteration #  5     ecut=    50.00 Ry     beta=0.60
     Davidson diagonalization with overlap
     ethr =  6.64E-03,  avg # of iterations =  2.1

     total cpu time spent up to now is    31423.5 secs

     total energy              =    -468.82951202 Ry
     Harris-Foulkes estimate   =    -469.06738728 Ry
     estimated scf accuracy    <       0.90073432 Ry

     iteration #  6     ecut=    50.00 Ry     beta=0.60
     Davidson diagonalization with overlap
     ethr =  1.80E-03,  avg # of iterations =  4.7

     total cpu time spent up to now is    31521.2 secs

     total energy              =    -469.17189901 Ry
     Harris-Foulkes estimate   =    -469.26042449 Ry
     estimated scf accuracy    <       1.25611896 Ry

     iteration #  7     ecut=    50.00 Ry     beta=0.60
     Davidson diagonalization with overlap
     ethr =  1.80E-03,  avg # of iterations =  1.0

     total cpu time spent up to now is    31581.3 secs

     total energy              =    -469.21269713 Ry
     Harris-Foulkes estimate   =    -469.18482017 Ry
     estimated scf accuracy    <       0.60535491 Ry

     iteration #  8     ecut=    50.00 Ry     beta=0.60
     Davidson diagonalization with overlap
     ethr =  1.21E-03,  avg # of iterations =  1.0

     total cpu time spent up to now is    31641.5 secs

     total energy              =    -469.13941252 Ry
     Harris-Foulkes estimate   =    -469.21573133 Ry
     estimated scf accuracy    <       0.80452708 Ry

     iteration #  9     ecut=    50.00 Ry     beta=0.60
     Davidson diagonalization with overlap
     ethr =  1.21E-03,  avg # of iterations =  1.0

     total cpu time spent up to now is    31701.9 secs

     total energy              =    -469.10470319 Ry
     Harris-Foulkes estimate   =    -469.15649082 Ry
     estimated scf accuracy    <       0.24423826 Ry

     iteration # 10     ecut=    50.00 Ry     beta=0.60
     Davidson diagonalization with overlap
     ethr =  4.88E-04,  avg # of iterations =  4.1

     total cpu time spent up to now is    31784.1 secs

     total energy              =    -469.16940927 Ry
     Harris-Foulkes estimate   =    -469.17239176 Ry
     estimated scf accuracy    <       0.11203366 Ry

     iteration # 11     ecut=    50.00 Ry     beta=0.60
     Davidson diagonalization with overlap
     ethr =  2.24E-04,  avg # of iterations =  1.6

     total cpu time spent up to now is    31845.7 secs

     total energy              =    -469.14221850 Ry
     Harris-Foulkes estimate   =    -469.16989108 Ry
     estimated scf accuracy    <       0.09776376 Ry

     iteration # 12     ecut=    50.00 Ry     beta=0.60
     Davidson diagonalization with overlap
     ethr =  1.96E-04,  avg # of iterations =  4.0

     total cpu time spent up to now is    31924.4 secs

     total energy              =    -469.15664971 Ry
     Harris-Foulkes estimate   =    -469.16514453 Ry
     estimated scf accuracy    <       0.04509221 Ry

     iteration # 13     ecut=    50.00 Ry     beta=0.60
     Davidson diagonalization with overlap
     ethr =  9.02E-05,  avg # of iterations =  1.4

     total cpu time spent up to now is    31985.0 secs

     total energy              =    -469.15964492 Ry
     Harris-Foulkes estimate   =    -469.15979334 Ry
     estimated scf accuracy    <       0.00325504 Ry

     iteration # 14     ecut=    50.00 Ry     beta=0.60
     Davidson diagonalization with overlap
     ethr =  6.51E-06,  avg # of iterations =  5.0

     total cpu time spent up to now is    32079.1 secs

     total energy              =    -469.16095878 Ry
     Harris-Foulkes estimate   =    -469.16102704 Ry
     estimated scf accuracy    <       0.00031359 Ry

     iteration # 15     ecut=    50.00 Ry     beta=0.60
     Davidson diagonalization with overlap
     ethr =  6.27E-07,  avg # of iterations =  2.6

     total cpu time spent up to now is    32149.8 secs

     total energy              =    -469.16098574 Ry
     Harris-Foulkes estimate   =    -469.16099746 Ry
     estimated scf accuracy    <       0.00033170 Ry

     iteration # 16     ecut=    50.00 Ry     beta=0.60
     Davidson diagonalization with overlap
     ethr =  6.27E-07,  avg # of iterations =  1.0

     total cpu time spent up to now is    32209.5 secs

     total energy              =    -469.16096127 Ry
     Harris-Foulkes estimate   =    -469.16098842 Ry
     estimated scf accuracy    <       0.00025877 Ry

     iteration # 17     ecut=    50.00 Ry     beta=0.60
     Davidson diagonalization with overlap
     ethr =  5.18E-07,  avg # of iterations =  1.0

     total cpu time spent up to now is    32269.3 secs

     total energy              =    -469.16096025 Ry
     Harris-Foulkes estimate   =    -469.16096663 Ry
     estimated scf accuracy    <       0.00008604 Ry

     iteration # 18     ecut=    50.00 Ry     beta=0.60
     Davidson diagonalization with overlap
     ethr =  1.72E-07,  avg # of iterations =  1.9

     total cpu time spent up to now is    32331.4 secs

     total energy              =    -469.16096111 Ry
     Harris-Foulkes estimate   =    -469.16096262 Ry
     estimated scf accuracy    <       0.00003534 Ry

     iteration # 19     ecut=    50.00 Ry     beta=0.60
     Davidson diagonalization with overlap
     ethr =  7.07E-08,  avg # of iterations =  3.1

     total cpu time spent up to now is    32397.9 secs

     total energy              =    -469.16096178 Ry
     Harris-Foulkes estimate   =    -469.16096271 Ry
     estimated scf accuracy    <       0.00001340 Ry

     iteration # 20     ecut=    50.00 Ry     beta=0.60
     Davidson diagonalization with overlap
     ethr =  2.68E-08,  avg # of iterations =  3.1

     total cpu time spent up to now is    32467.6 secs

     total energy              =    -469.16096254 Ry
     Harris-Foulkes estimate   =    -469.16096284 Ry
     estimated scf accuracy    <       0.00000219 Ry

     iteration # 21     ecut=    50.00 Ry     beta=0.60
     Davidson diagonalization with overlap
     ethr =  4.38E-09,  avg # of iterations =  3.8

     total cpu time spent up to now is    32539.9 secs

     total energy              =    -469.16096278 Ry
     Harris-Foulkes estimate   =    -469.16096280 Ry
     estimated scf accuracy    <       0.00000006 Ry

     iteration # 22     ecut=    50.00 Ry     beta=0.60
     Davidson diagonalization with overlap
     ethr =  1.21E-10,  avg # of iterations =  4.9

     total cpu time spent up to now is    32630.9 secs

     total energy              =    -469.16096282 Ry
     Harris-Foulkes estimate   =    -469.16096283 Ry
     estimated scf accuracy    <       0.00000004 Ry

     iteration # 23     ecut=    50.00 Ry     beta=0.60
     Davidson diagonalization with overlap
     ethr =  8.57E-11,  avg # of iterations =  3.1

     total cpu time spent up to now is    32697.0 secs

     total energy              =    -469.16096282 Ry
     Harris-Foulkes estimate   =    -469.16096282 Ry
     estimated scf accuracy    <          1.8E-10 Ry

     iteration # 24     ecut=    50.00 Ry     beta=0.60
     Davidson diagonalization with overlap
     ethr =  3.66E-13,  avg # of iterations =  5.3

     total cpu time spent up to now is    32820.7 secs

     total energy              =    -469.16096282 Ry
     Harris-Foulkes estimate   =    -469.16096282 Ry
     estimated scf accuracy    <          1.7E-09 Ry

     iteration # 25     ecut=    50.00 Ry     beta=0.60
     Davidson diagonalization with overlap
     ethr =  3.66E-13,  avg # of iterations =  4.0

     total cpu time spent up to now is    32904.2 secs

     total energy              =    -469.16096282 Ry
     Harris-Foulkes estimate   =    -469.16096282 Ry
     estimated scf accuracy    <          1.6E-10 Ry

     iteration # 26     ecut=    50.00 Ry     beta=0.60
     Davidson diagonalization with overlap
     ethr =  3.21E-13,  avg # of iterations =  1.0

     total cpu time spent up to now is    32963.7 secs

     total energy              =    -469.16096282 Ry
     Harris-Foulkes estimate   =    -469.16096282 Ry
     estimated scf accuracy    <          1.1E-10 Ry

     iteration # 27     ecut=    50.00 Ry     beta=0.60
     Davidson diagonalization with overlap
     ethr =  2.25E-13,  avg # of iterations =  1.0

     total cpu time spent up to now is    33023.6 secs

     total energy              =    -469.16096282 Ry
     Harris-Foulkes estimate   =    -469.16096282 Ry
     estimated scf accuracy    <          8.5E-11 Ry

     iteration # 28     ecut=    50.00 Ry     beta=0.60
     Davidson diagonalization with overlap
     ethr =  1.70E-13,  avg # of iterations =  1.2

     total cpu time spent up to now is    33083.6 secs

     total energy              =    -469.16096282 Ry
     Harris-Foulkes estimate   =    -469.16096282 Ry
     estimated scf accuracy    <          1.4E-11 Ry

     iteration # 29     ecut=    50.00 Ry     beta=0.60
     Davidson diagonalization with overlap
     ethr =  1.00E-13,  avg # of iterations =  3.5

     total cpu time spent up to now is    33155.2 secs

     End of self-consistent calculation

     Number of k-points >= 100: set verbosity='high' to print the bands.

     the Fermi energy is    15.6669 ev

!    total energy              =    -469.16096282 Ry
     Harris-Foulkes estimate   =    -469.16096282 Ry
     estimated scf accuracy    <          6.1E-13 Ry

     The total energy is the sum of the following terms:

     one-electron contribution =    -115.44600243 Ry
     hartree contribution      =      79.16446198 Ry
     xc contribution           =     -65.99085561 Ry
     ewald contribution        =    -366.88852413 Ry
     smearing contrib. (-TS)   =      -0.00004265 Ry

     convergence has been achieved in  29 iterations

     Forces acting on atoms (Ry/au):

     atom    1 type  2   force =     0.00000000   -0.00001316   -0.00001316
     atom    2 type  2   force =     0.00000000    0.00001316    0.00001316
     atom    3 type  1   force =     0.00000000   -0.00000759   -0.00000759
     atom    4 type  1   force =     0.00000000    0.00000759    0.00000759

     Total force =     0.000030     Total SCF correction =     0.000001


     entering subroutine stress ...

          total   stress  (Ry/bohr**3)                   (kbar)     P=   -0.77
  -0.00000576   0.00000000   0.00000000         -0.85      0.00      0.00
  -0.00000000  -0.00000502   0.00000070         -0.00     -0.74      0.10
   0.00000000   0.00000070  -0.00000502          0.00      0.10     -0.74


     init_run     :     71.24s CPU     72.90s WALL (       2 calls)
     electrons    :  31823.54s CPU  32531.58s WALL (      22 calls)
     update_pot   :     59.36s CPU     59.92s WALL (      20 calls)
     forces       :    181.56s CPU    184.61s WALL (      22 calls)
     stress       :    307.61s CPU    313.66s WALL (      22 calls)

     Called by init_run:
     wfcinit      :     66.82s CPU     68.19s WALL (       2 calls)
     potinit      :      1.54s CPU      1.59s WALL (       2 calls)

     Called by electrons:
     c_bands      :  26174.16s CPU  26712.32s WALL (     387 calls)
     sum_band     :   5438.72s CPU   5585.20s WALL (     387 calls)
     v_of_rho     :     73.77s CPU     76.72s WALL (     400 calls)
     newd         :    128.43s CPU    149.27s WALL (     400 calls)
     mix_rho      :     11.52s CPU     12.03s WALL (     387 calls)

     Called by c_bands:
     init_us_2    :    278.98s CPU    284.03s WALL (  281260 calls)
     cegterg      :  25573.28s CPU  26100.66s WALL (  132741 calls)

     Called by sum_band:
     sum_band:bec :     10.30s CPU     10.42s WALL (  132741 calls)
     addusdens    :    163.12s CPU    189.95s WALL (     387 calls)

     Called by *egterg:
     h_psi        :  18927.11s CPU  19395.76s WALL (  549000 calls)
     s_psi        :   1230.45s CPU   1241.60s WALL (  549000 calls)
     g_psi        :     42.13s CPU     42.42s WALL (  415573 calls)
     cdiaghg      :   1307.85s CPU   1316.98s WALL (  538367 calls)

     Called by h_psi:
     h_psi:pot    :  18787.48s CPU  19253.84s WALL (  549000 calls)
     h_psi:calbec :   1635.77s CPU   1672.37s WALL (  549000 calls)
     vloc_psi     :  16006.42s CPU  16427.52s WALL (  549000 calls)
     add_vuspsi   :   1140.53s CPU   1150.71s WALL (  549000 calls)

     General routines
     calbec       :   2327.58s CPU   2377.60s WALL (  719471 calls)
     fft          :     71.48s CPU     76.16s WALL (    6918 calls)
     ffts         :      0.89s CPU      0.91s WALL (     787 calls)
     fftw         :  12213.34s CPU  12516.53s WALL (24762112 calls)
     interpolate  :     11.31s CPU     11.90s WALL (     787 calls)

     Parallel routines
     fft_scatter  :   2249.54s CPU   2317.17s WALL (24769817 calls)

     PWSCF        :     9h 0m CPU        9h12m WALL


   This run was terminated on:   1:52:25  28Apr2018            

=------------------------------------------------------------------------------=
   JOB DONE.
=------------------------------------------------------------------------------=
