
     Program PWSCF v.6.3MaX starts on  1Feb2020 at 12:46: 2 

     This program is part of the open-source Quantum ESPRESSO suite
     for quantum simulation of materials; please cite
         "P. Giannozzi et al., J. Phys.:Condens. Matter 21 395502 (2009);
         "P. Giannozzi et al., J. Phys.:Condens. Matter 29 465901 (2017);
          URL http://www.quantum-espresso.org", 
     in publications or presentations arising from this work. More details at
     http://www.quantum-espresso.org/quote

     Parallel version (MPI), running on     4 processors

     MPI processes distributed on     1 nodes
     R & G space division:  proc/nbgrp/npool/nimage =       4
     Waiting for input...
     Reading input from standard input

     Current dimensions of program PWSCF are:
     Max number of different atomic species (ntypx) = 10
     Max number of k-points (npk) =  40000
     Max angular momentum in pseudopotentials (lmaxx) =  3
     Message from routine iosys:
     minimal I/O required, wf_collect reset to FALSE

     Subspace diagonalization in iterative solution of the eigenvalue problem:
     a serial algorithm will be used

 
     Parallelization info
     --------------------
     sticks:   dense  smooth     PW     G-vecs:    dense   smooth      PW
     Min        1281     514    159                34640     8741    1516
     Max        1282     515    160                34641     8742    1517
     Sum        5125    2057    637               138561    34965    6067
 


     bravais-lattice index     =            0
     lattice parameter (alat)  =       1.8897  a.u.
     unit-cell volume          =     733.3418 (a.u.)^3
     number of atoms/cell      =            5
     number of atomic types    =            2
     number of electrons       =        62.00
     number of Kohn-Sham states=           37
     kinetic-energy cutoff     =      50.0000  Ry
     charge density cutoff     =     500.0000  Ry
     convergence threshold     =      1.0E-10
     mixing beta               =       0.6000
     number of iterations used =            8  plain     mixing
     Exchange-correlation      = SLA PW PBE PBE ( 1  4  3  4 0 0)
     nstep                     =           50


     celldm(1)=   1.889726  celldm(2)=   0.000000  celldm(3)=   0.000000
     celldm(4)=   0.000000  celldm(5)=   0.000000  celldm(6)=   0.000000

     crystal axes: (cart. coord. in units of alat)
               a(1) = (   5.274095   1.758031   5.274095 )  
               a(2) = (   1.758031   5.274095   5.274095 )  
               a(3) = (  -1.758031  -1.758031   1.758031 )  

     reciprocal axes: (cart. coord. in units 2 pi/alat)
               b(1) = (  0.170645 -0.113764  0.056882 )  
               b(2) = ( -0.113764  0.170645  0.056882 )  
               b(3) = ( -0.170645 -0.170645  0.227527 )  


     PseudoPot. # 1 for Nb read from file:
     ./Nb.pbe-nsp-van.UPF
     MD5 check sum: 0a22fc7fb0ba19a08ca5db297a5d2854
     Pseudo is Ultrasoft + core correction, Zval = 13.0
     Generated by new atomic code, or converted to UPF format
     Using radial grid of  887 points,  6 beta functions with: 
                l(1) =   0
                l(2) =   0
                l(3) =   1
                l(4) =   1
                l(5) =   2
                l(6) =   2
     Q(r) pseudized with  6 coefficients,  rinner =    1.000   1.000   1.000
                                                       1.000   1.000

     PseudoPot. # 2 for Ti read from file:
     ./Ti.pbe-sp-van_ak.UPF
     MD5 check sum: f98fea3e8887528921fefa5636a534ca
     Pseudo is Ultrasoft, Zval = 12.0
     Generated by new atomic code, or converted to UPF format
     Using radial grid of  851 points,  6 beta functions with: 
                l(1) =   0
                l(2) =   0
                l(3) =   1
                l(4) =   1
                l(5) =   2
                l(6) =   2
     Q(r) pseudized with  8 coefficients,  rinner =    1.000   1.000   1.000
                                                       1.000   1.000

     atomic species   valence    mass     pseudopotential
        Nb            13.00    92.90638     Nb( 1.00)
        Ti            12.00    47.86700     Ti( 1.00)

      2 Sym. Ops. (no inversion) found



   Cartesian axes

     site n.     atom                  positions (alat units)
         1           Ti  tau(   1) = (   0.0000000   0.0000000   3.5160633  )
         2           Ti  tau(   2) = (   1.7580316   1.7580316   5.2740949  )
         3           Nb  tau(   3) = (   3.5160633   3.5160633   7.0321265  )
         4           Ti  tau(   4) = (   5.2740949   5.2740949   8.7901582  )
         5           Nb  tau(   5) = (   5.2740949   5.2740949  12.3062214  )

     number of k points=   500  Marzari-Vanderbilt smearing, width (Ry)=  0.0200

     Number of k-points >= 100: set verbosity='high' to print them.

     Dense  grid:   138561 G-vectors     FFT dimensions: ( 108, 108,  45)

     Smooth grid:    34965 G-vectors     FFT dimensions: (  72,  72,  25)

     Estimated max dynamical RAM per process >     444.23 MB

     Estimated total dynamical RAM >       1.74 GB

     Initial potential from superposition of free atoms

     starting charge   58.99440, renormalised to   62.00000
     Starting wfcs are   56 randomized atomic wfcs

     total cpu time spent up to now is       31.2 secs

     Self-consistent Calculation

     iteration #  1     ecut=    50.00 Ry     beta= 0.60
     Davidson diagonalization with overlap
     ethr =  1.00E-02,  avg # of iterations =  3.6

     total cpu time spent up to now is      101.8 secs

     total energy              =    -554.49093887 Ry
     Harris-Foulkes estimate   =    -590.33963714 Ry
     estimated scf accuracy    <      44.34649804 Ry

     iteration #  2     ecut=    50.00 Ry     beta= 0.60
     Davidson diagonalization with overlap
     ethr =  1.00E-02,  avg # of iterations =  8.1

     total cpu time spent up to now is      247.5 secs

     total energy              =    -563.58073483 Ry
     Harris-Foulkes estimate   =    -656.40009037 Ry
     estimated scf accuracy    <     324.78059879 Ry

     iteration #  3     ecut=    50.00 Ry     beta= 0.60
     Davidson diagonalization with overlap
     ethr =  1.00E-02,  avg # of iterations =  7.3

     total cpu time spent up to now is      360.4 secs

     total energy              =    -586.05993311 Ry
     Harris-Foulkes estimate   =    -589.53282695 Ry
     estimated scf accuracy    <      33.24936234 Ry

     iteration #  4     ecut=    50.00 Ry     beta= 0.60
     Davidson diagonalization with overlap
     ethr =  1.00E-02,  avg # of iterations =  4.2

     total cpu time spent up to now is      424.7 secs

     total energy              =    -586.45256613 Ry
     Harris-Foulkes estimate   =    -587.28384596 Ry
     estimated scf accuracy    <       8.36871774 Ry

     iteration #  5     ecut=    50.00 Ry     beta= 0.60
     Davidson diagonalization with overlap
     ethr =  1.00E-02,  avg # of iterations =  1.0

     total cpu time spent up to now is      475.3 secs

     total energy              =    -586.32791352 Ry
     Harris-Foulkes estimate   =    -586.55096057 Ry
     estimated scf accuracy    <       6.50684017 Ry

     iteration #  6     ecut=    50.00 Ry     beta= 0.60
     Davidson diagonalization with overlap
     ethr =  1.00E-02,  avg # of iterations =  1.0

     total cpu time spent up to now is      525.8 secs

     total energy              =    -585.53070356 Ry
     Harris-Foulkes estimate   =    -586.35753228 Ry
     estimated scf accuracy    <       5.61648745 Ry

     iteration #  7     ecut=    50.00 Ry     beta= 0.60
     Davidson diagonalization with overlap
     ethr =  9.06E-03,  avg # of iterations =  1.4

     total cpu time spent up to now is      577.5 secs

     total energy              =    -585.27545442 Ry
     Harris-Foulkes estimate   =    -585.65680566 Ry
     estimated scf accuracy    <       2.72589601 Ry

     iteration #  8     ecut=    50.00 Ry     beta= 0.60
     Davidson diagonalization with overlap
     ethr =  4.40E-03,  avg # of iterations =  5.4

     total cpu time spent up to now is      658.6 secs

     total energy              =    -585.80800533 Ry
     Harris-Foulkes estimate   =    -586.00939202 Ry
     estimated scf accuracy    <       6.82697367 Ry

     iteration #  9     ecut=    50.00 Ry     beta= 0.60
     Davidson diagonalization with overlap
     ethr =  4.40E-03,  avg # of iterations =  1.0

     total cpu time spent up to now is      709.1 secs

     total energy              =    -585.63659019 Ry
     Harris-Foulkes estimate   =    -585.84853647 Ry
     estimated scf accuracy    <       3.93649932 Ry

     iteration # 10     ecut=    50.00 Ry     beta= 0.60
     Davidson diagonalization with overlap
     ethr =  4.40E-03,  avg # of iterations =  1.0

     total cpu time spent up to now is      759.8 secs

     total energy              =    -585.74834200 Ry
     Harris-Foulkes estimate   =    -585.71913830 Ry
     estimated scf accuracy    <       0.50050749 Ry

     iteration # 11     ecut=    50.00 Ry     beta= 0.60
     Davidson diagonalization with overlap
     ethr =  8.07E-04,  avg # of iterations =  2.1

     total cpu time spent up to now is      814.3 secs

     total energy              =    -585.74592563 Ry
     Harris-Foulkes estimate   =    -585.81052674 Ry
     estimated scf accuracy    <       2.66401797 Ry

     iteration # 12     ecut=    50.00 Ry     beta= 0.60
     Davidson diagonalization with overlap
     ethr =  8.07E-04,  avg # of iterations =  1.0

     total cpu time spent up to now is      864.8 secs

     total energy              =    -585.68795497 Ry
     Harris-Foulkes estimate   =    -585.76835522 Ry
     estimated scf accuracy    <       1.81275642 Ry

     iteration # 13     ecut=    50.00 Ry     beta= 0.60
     Davidson diagonalization with overlap
     ethr =  8.07E-04,  avg # of iterations =  1.8

     total cpu time spent up to now is      917.8 secs

     total energy              =    -585.65726112 Ry
     Harris-Foulkes estimate   =    -585.71510930 Ry
     estimated scf accuracy    <       0.44423436 Ry

     iteration # 14     ecut=    50.00 Ry     beta= 0.60
     Davidson diagonalization with overlap
     ethr =  7.17E-04,  avg # of iterations =  5.4

     total cpu time spent up to now is      985.6 secs

     total energy              =    -585.73689171 Ry
     Harris-Foulkes estimate   =    -585.72944726 Ry
     estimated scf accuracy    <       0.36714203 Ry

     iteration # 15     ecut=    50.00 Ry     beta= 0.60
     Davidson diagonalization with overlap
     ethr =  5.92E-04,  avg # of iterations =  1.9

     total cpu time spent up to now is     1039.1 secs

     total energy              =    -585.70716000 Ry
     Harris-Foulkes estimate   =    -585.73945536 Ry
     estimated scf accuracy    <       0.46704397 Ry

     iteration # 16     ecut=    50.00 Ry     beta= 0.60
     Davidson diagonalization with overlap
     ethr =  5.92E-04,  avg # of iterations =  1.0

     total cpu time spent up to now is     1090.5 secs

     total energy              =    -585.70807381 Ry
     Harris-Foulkes estimate   =    -585.71290384 Ry
     estimated scf accuracy    <       0.22924030 Ry

     iteration # 17     ecut=    50.00 Ry     beta= 0.60
     Davidson diagonalization with overlap
     ethr =  3.70E-04,  avg # of iterations =  1.0

     total cpu time spent up to now is     1142.0 secs

     total energy              =    -585.72543091 Ry
     Harris-Foulkes estimate   =    -585.70949492 Ry
     estimated scf accuracy    <       0.20143026 Ry

     iteration # 18     ecut=    50.00 Ry     beta= 0.60
     Davidson diagonalization with overlap
     ethr =  3.25E-04,  avg # of iterations =  1.6

     total cpu time spent up to now is     1195.5 secs

     total energy              =    -585.73400640 Ry
     Harris-Foulkes estimate   =    -585.73084204 Ry
     estimated scf accuracy    <       0.46138167 Ry

     iteration # 19     ecut=    50.00 Ry     beta= 0.60
     Davidson diagonalization with overlap
     ethr =  3.25E-04,  avg # of iterations =  2.6

     total cpu time spent up to now is     1250.7 secs

     total energy              =    -585.72165503 Ry
     Harris-Foulkes estimate   =    -585.73875004 Ry
     estimated scf accuracy    <       0.51092217 Ry

     iteration # 20     ecut=    50.00 Ry     beta= 0.60
     Davidson diagonalization with overlap
     ethr =  3.25E-04,  avg # of iterations =  1.0

     total cpu time spent up to now is     1302.2 secs

     total energy              =    -585.72417052 Ry
     Harris-Foulkes estimate   =    -585.72392552 Ry
     estimated scf accuracy    <       0.38399519 Ry

     iteration # 21     ecut=    50.00 Ry     beta= 0.60
     Davidson diagonalization with overlap
     ethr =  3.25E-04,  avg # of iterations =  1.0

     total cpu time spent up to now is     1353.6 secs

     total energy              =    -585.67618997 Ry
     Harris-Foulkes estimate   =    -585.72448149 Ry
     estimated scf accuracy    <       0.39266998 Ry

     iteration # 22     ecut=    50.00 Ry     beta= 0.60
     Davidson diagonalization with overlap
     ethr =  3.25E-04,  avg # of iterations =  2.9

     total cpu time spent up to now is     1410.5 secs

     total energy              =    -585.68024771 Ry
     Harris-Foulkes estimate   =    -585.69442373 Ry
     estimated scf accuracy    <       0.05543733 Ry

     iteration # 23     ecut=    50.00 Ry     beta= 0.60
     Davidson diagonalization with overlap
     ethr =  8.94E-05,  avg # of iterations =  6.0

     total cpu time spent up to now is     1503.6 secs

     total energy              =    -585.67970933 Ry
     Harris-Foulkes estimate   =    -585.71887337 Ry
     estimated scf accuracy    <       0.47814249 Ry

     iteration # 24     ecut=    50.00 Ry     beta= 0.60
     Davidson diagonalization with overlap
     ethr =  8.94E-05,  avg # of iterations =  4.3

     total cpu time spent up to now is     1576.5 secs

     total energy              =    -585.69708709 Ry
     Harris-Foulkes estimate   =    -585.69801757 Ry
     estimated scf accuracy    <       0.00786043 Ry

     iteration # 25     ecut=    50.00 Ry     beta= 0.60
     Davidson diagonalization with overlap
     c_bands:  1 eigenvalues not converged
     c_bands:  1 eigenvalues not converged
     c_bands:  1 eigenvalues not converged
     c_bands:  1 eigenvalues not converged
     c_bands:  1 eigenvalues not converged
     c_bands:  1 eigenvalues not converged
     c_bands:  1 eigenvalues not converged
     c_bands:  1 eigenvalues not converged
     c_bands:  1 eigenvalues not converged
     c_bands:  1 eigenvalues not converged
     ethr =  1.27E-05,  avg # of iterations =  8.9

     total cpu time spent up to now is     1662.3 secs

     total energy              =    -585.69805650 Ry
     Harris-Foulkes estimate   =    -585.69817735 Ry
     estimated scf accuracy    <       0.00153595 Ry

     iteration # 26     ecut=    50.00 Ry     beta= 0.60
     Davidson diagonalization with overlap
     c_bands:  1 eigenvalues not converged
     c_bands:  1 eigenvalues not converged
     c_bands:  1 eigenvalues not converged
     c_bands:  1 eigenvalues not converged
     c_bands:  1 eigenvalues not converged
     c_bands:  1 eigenvalues not converged
     c_bands:  1 eigenvalues not converged
     c_bands:  1 eigenvalues not converged
     c_bands:  2 eigenvalues not converged
     c_bands:  1 eigenvalues not converged
     c_bands:  1 eigenvalues not converged
     c_bands:  1 eigenvalues not converged
     ethr =  2.48E-06,  avg # of iterations =  5.6

     total cpu time spent up to now is     1728.5 secs

     total energy              =    -585.69810385 Ry
     Harris-Foulkes estimate   =    -585.69813729 Ry
     estimated scf accuracy    <       0.00019603 Ry

     iteration # 27     ecut=    50.00 Ry     beta= 0.60
     Davidson diagonalization with overlap
     c_bands:  1 eigenvalues not converged
     c_bands:  1 eigenvalues not converged
     c_bands:  1 eigenvalues not converged
     ethr =  3.16E-07,  avg # of iterations =  5.4

     total cpu time spent up to now is     1806.5 secs

     total energy              =    -585.69814611 Ry
     Harris-Foulkes estimate   =    -585.69816223 Ry
     estimated scf accuracy    <       0.00025618 Ry

     iteration # 28     ecut=    50.00 Ry     beta= 0.60
     Davidson diagonalization with overlap
     ethr =  3.16E-07,  avg # of iterations =  1.0

     total cpu time spent up to now is     1857.9 secs

     total energy              =    -585.69814502 Ry
     Harris-Foulkes estimate   =    -585.69815158 Ry
     estimated scf accuracy    <       0.00008885 Ry

     iteration # 29     ecut=    50.00 Ry     beta= 0.60
     Davidson diagonalization with overlap
     ethr =  1.43E-07,  avg # of iterations =  2.7

     total cpu time spent up to now is     1915.0 secs

     total energy              =    -585.69814929 Ry
     Harris-Foulkes estimate   =    -585.69814956 Ry
     estimated scf accuracy    <       0.00000256 Ry

     iteration # 30     ecut=    50.00 Ry     beta= 0.60
     Davidson diagonalization with overlap
     ethr =  4.14E-09,  avg # of iterations =  5.9

     total cpu time spent up to now is     2001.7 secs

     total energy              =    -585.69815065 Ry
     Harris-Foulkes estimate   =    -585.69815077 Ry
     estimated scf accuracy    <       0.00000126 Ry

     iteration # 31     ecut=    50.00 Ry     beta= 0.60
     Davidson diagonalization with overlap
     ethr =  2.04E-09,  avg # of iterations =  1.0

     total cpu time spent up to now is     2052.3 secs

     total energy              =    -585.69815068 Ry
     Harris-Foulkes estimate   =    -585.69815069 Ry
     estimated scf accuracy    <       0.00000014 Ry

     iteration # 32     ecut=    50.00 Ry     beta= 0.60
     Davidson diagonalization with overlap
     ethr =  2.31E-10,  avg # of iterations =  4.1

     total cpu time spent up to now is     2125.2 secs

     total energy              =    -585.69815068 Ry
     Harris-Foulkes estimate   =    -585.69815073 Ry
     estimated scf accuracy    <       0.00000054 Ry

     iteration # 33     ecut=    50.00 Ry     beta= 0.60
     Davidson diagonalization with overlap
     ethr =  2.31E-10,  avg # of iterations =  2.5

     total cpu time spent up to now is     2179.8 secs

     total energy              =    -585.69815070 Ry
     Harris-Foulkes estimate   =    -585.69815070 Ry
     estimated scf accuracy    <       0.00000005 Ry

     iteration # 34     ecut=    50.00 Ry     beta= 0.60
     Davidson diagonalization with overlap
     ethr =  8.10E-11,  avg # of iterations =  4.0

     total cpu time spent up to now is     2248.5 secs

     total energy              =    -585.69815071 Ry
     Harris-Foulkes estimate   =    -585.69815071 Ry
     estimated scf accuracy    <       0.00000001 Ry

     iteration # 35     ecut=    50.00 Ry     beta= 0.60
     Davidson diagonalization with overlap
     ethr =  2.21E-11,  avg # of iterations =  1.4

     total cpu time spent up to now is     2300.0 secs

     total energy              =    -585.69815071 Ry
     Harris-Foulkes estimate   =    -585.69815071 Ry
     estimated scf accuracy    <          3.2E-09 Ry

     iteration # 36     ecut=    50.00 Ry     beta= 0.60
     Davidson diagonalization with overlap
     ethr =  5.20E-12,  avg # of iterations =  3.3

     total cpu time spent up to now is     2360.9 secs

     End of self-consistent calculation

     Number of k-points >= 100: set verbosity='high' to print the bands.

     the Fermi energy is    11.7308 ev

!    total energy              =    -585.69815071 Ry
     Harris-Foulkes estimate   =    -585.69815071 Ry
     estimated scf accuracy    <          1.8E-11 Ry

     The total energy is the sum of the following terms:

     one-electron contribution =    -202.02899822 Ry
     hartree contribution      =     117.17366945 Ry
     xc contribution           =     -79.61933698 Ry
     ewald contribution        =    -421.22231145 Ry
     smearing contrib. (-TS)   =      -0.00117351 Ry

     convergence has been achieved in  36 iterations

     Forces acting on atoms (cartesian axes, Ry/au):

     atom    1 type  2   force =    -0.00458637   -0.00458637   -0.01185803
     atom    2 type  2   force =     0.00458061    0.00458061    0.01184635
     atom    3 type  1   force =     0.00456934    0.00456934   -0.01111931
     atom    4 type  2   force =     0.00000420    0.00000420    0.00000888
     atom    5 type  1   force =    -0.00456778   -0.00456778    0.01112211

     Total force =     0.026378     Total SCF correction =     0.000014


     Computing stress (Cartesian axis) and pressure

          total   stress  (Ry/bohr**3)                   (kbar)     P= -193.11
  -0.00130896   0.00000474   0.00001440       -192.56      0.70      2.12
   0.00000474  -0.00130896   0.00001440          0.70   -192.56      2.12
   0.00001440   0.00001440  -0.00132031          2.12      2.12   -194.22


     BFGS Geometry Optimization

     number of scf cycles    =   1
     number of bfgs steps    =   0

     enthalpy new            =    -585.6981507066 Ry

     new trust radius        =       0.1787932330 bohr
     new conv_thr            =            1.0E-10 Ry

     new unit-cell volume =    663.48340 a.u.^3 (    98.31810 Ang^3 )
     density =      5.56362 g/cm^3

CELL_PARAMETERS (alat=  1.88972599)
   5.103612140   1.703026091   5.102540513
   1.703026091   5.103612140   5.102540513
  -1.700076989  -1.700076989   1.698736746

ATOMIC_POSITIONS (angstrom)
Ti      -0.001084072  -0.001084072   3.393935978
Ti       1.704956274   1.704956274   5.107338103
Nb       3.406289176   3.406289176   6.796855190
Ti       5.105297339   5.105297339   8.503816715
Nb       5.104225008   5.104225008  11.909507331


     NEW-OLD atomic charge density approx. for the potential
     extrapolated charge   55.78846, renormalised to   62.00000

     total cpu time spent up to now is     2382.9 secs

     Self-consistent Calculation

     iteration #  1     ecut=    50.00 Ry     beta= 0.60
     Davidson diagonalization with overlap
     c_bands:  1 eigenvalues not converged
     c_bands:  1 eigenvalues not converged
     c_bands:  1 eigenvalues not converged
     c_bands:  1 eigenvalues not converged
     c_bands:  1 eigenvalues not converged
     c_bands:  1 eigenvalues not converged
     c_bands:  1 eigenvalues not converged
     c_bands:  1 eigenvalues not converged
     c_bands:  1 eigenvalues not converged
     c_bands:  1 eigenvalues not converged
     c_bands:  1 eigenvalues not converged
     c_bands:  2 eigenvalues not converged
     c_bands:  2 eigenvalues not converged
     c_bands:  2 eigenvalues not converged
     c_bands:  1 eigenvalues not converged
     c_bands:  2 eigenvalues not converged
     c_bands:  1 eigenvalues not converged
     c_bands:  1 eigenvalues not converged
     c_bands:  2 eigenvalues not converged
     c_bands:  1 eigenvalues not converged
     c_bands:  1 eigenvalues not converged
     c_bands:  1 eigenvalues not converged
     c_bands:  1 eigenvalues not converged
     c_bands:  1 eigenvalues not converged
     c_bands:  1 eigenvalues not converged
     c_bands:  1 eigenvalues not converged
     c_bands:  2 eigenvalues not converged
     c_bands:  1 eigenvalues not converged
     c_bands:  1 eigenvalues not converged
     c_bands:  1 eigenvalues not converged
     c_bands:  1 eigenvalues not converged
     c_bands:  1 eigenvalues not converged
     c_bands:  2 eigenvalues not converged
     c_bands:  2 eigenvalues not converged
     c_bands:  1 eigenvalues not converged
     c_bands:  2 eigenvalues not converged
     c_bands:  2 eigenvalues not converged
     c_bands:  1 eigenvalues not converged
     c_bands:  1 eigenvalues not converged
     c_bands:  1 eigenvalues not converged
     c_bands:  1 eigenvalues not converged
     c_bands:  1 eigenvalues not converged
     c_bands:  1 eigenvalues not converged
     c_bands:  1 eigenvalues not converged
     c_bands:  1 eigenvalues not converged
     c_bands:  1 eigenvalues not converged
     c_bands:  1 eigenvalues not converged
     c_bands:  1 eigenvalues not converged
     c_bands:  1 eigenvalues not converged
     c_bands:  1 eigenvalues not converged
     c_bands:  1 eigenvalues not converged
     c_bands:  1 eigenvalues not converged
     c_bands:  1 eigenvalues not converged
     c_bands:  1 eigenvalues not converged
     c_bands:  3 eigenvalues not converged
     c_bands:  1 eigenvalues not converged
     c_bands:  1 eigenvalues not converged
     c_bands:  2 eigenvalues not converged
     c_bands:  1 eigenvalues not converged
     c_bands:  1 eigenvalues not converged
     c_bands:  1 eigenvalues not converged
     c_bands:  1 eigenvalues not converged
     c_bands:  1 eigenvalues not converged
     c_bands:  1 eigenvalues not converged
     ethr =  1.00E-06,  avg # of iterations = 15.9

     total cpu time spent up to now is     2599.4 secs

     total energy              =    -567.22949794 Ry
     Harris-Foulkes estimate   =    -600.07488592 Ry
     estimated scf accuracy    <      20.10360923 Ry

     iteration #  2     ecut=    50.00 Ry     beta= 0.60
     Davidson diagonalization with overlap
     ethr =  1.00E-02,  avg # of iterations =  6.1

     total cpu time spent up to now is     2707.9 secs

     total energy              =    -577.58042726 Ry
     Harris-Foulkes estimate   =    -613.89591110 Ry
     estimated scf accuracy    <     127.42744375 Ry

     iteration #  3     ecut=    50.00 Ry     beta= 0.60
     Davidson diagonalization with overlap
     ethr =  1.00E-02,  avg # of iterations =  6.5

     total cpu time spent up to now is     2814.2 secs

     total energy              =    -584.66747755 Ry
     Harris-Foulkes estimate   =    -591.80356748 Ry
     estimated scf accuracy    <      30.68914718 Ry

     iteration #  4     ecut=    50.00 Ry     beta= 0.60
     Davidson diagonalization with overlap
     ethr =  1.00E-02,  avg # of iterations =  4.4

     total cpu time spent up to now is     2885.0 secs

     total energy              =    -586.63114090 Ry
     Harris-Foulkes estimate   =    -589.08780005 Ry
     estimated scf accuracy    <      16.64778883 Ry

     iteration #  5     ecut=    50.00 Ry     beta= 0.60
     Davidson diagonalization with overlap
     ethr =  1.00E-02,  avg # of iterations =  1.1

     total cpu time spent up to now is     2936.1 secs

     total energy              =    -586.34782366 Ry
     Harris-Foulkes estimate   =    -586.91000111 Ry
     estimated scf accuracy    <       7.35737756 Ry

     iteration #  6     ecut=    50.00 Ry     beta= 0.60
     Davidson diagonalization with overlap
     ethr =  1.00E-02,  avg # of iterations =  1.3

     total cpu time spent up to now is     2994.2 secs

     total energy              =    -585.55645929 Ry
     Harris-Foulkes estimate   =    -586.44209822 Ry
     estimated scf accuracy    <       5.00020871 Ry

     iteration #  7     ecut=    50.00 Ry     beta= 0.60
     Davidson diagonalization with overlap
     ethr =  8.06E-03,  avg # of iterations =  2.5

     total cpu time spent up to now is     3057.6 secs

     total energy              =    -585.63643450 Ry
     Harris-Foulkes estimate   =    -585.76198827 Ry
     estimated scf accuracy    <       1.34443544 Ry

     iteration #  8     ecut=    50.00 Ry     beta= 0.60
     Davidson diagonalization with overlap
     ethr =  2.17E-03,  avg # of iterations =  4.5

     total cpu time spent up to now is     3144.3 secs

     total energy              =    -585.93058270 Ry
     Harris-Foulkes estimate   =    -585.83225659 Ry
     estimated scf accuracy    <       0.21589088 Ry

     iteration #  9     ecut=    50.00 Ry     beta= 0.60
     Davidson diagonalization with overlap
     ethr =  3.48E-04,  avg # of iterations =  5.5

     total cpu time spent up to now is     3244.1 secs

     total energy              =    -586.00742597 Ry
     Harris-Foulkes estimate   =    -586.02720948 Ry
     estimated scf accuracy    <       1.61457621 Ry

     iteration # 10     ecut=    50.00 Ry     beta= 0.60
     Davidson diagonalization with overlap
     ethr =  3.48E-04,  avg # of iterations =  1.0

     total cpu time spent up to now is     3305.1 secs

     total energy              =    -585.35894455 Ry
     Harris-Foulkes estimate   =    -586.00824137 Ry
     estimated scf accuracy    <       1.52598941 Ry

     iteration # 11     ecut=    50.00 Ry     beta= 0.60
     Davidson diagonalization with overlap
     ethr =  3.48E-04,  avg # of iterations =  5.3

     total cpu time spent up to now is     3438.4 secs

     total energy              =    -585.40906585 Ry
     Harris-Foulkes estimate   =    -586.16952803 Ry
     estimated scf accuracy    <       7.95040054 Ry

     iteration # 12     ecut=    50.00 Ry     beta= 0.60
     Davidson diagonalization with overlap
     ethr =  3.48E-04,  avg # of iterations =  5.4

     total cpu time spent up to now is     3550.9 secs

     total energy              =    -585.77464346 Ry
     Harris-Foulkes estimate   =    -585.78550955 Ry
     estimated scf accuracy    <       0.19245851 Ry

     iteration # 13     ecut=    50.00 Ry     beta= 0.60
     Davidson diagonalization with overlap
     ethr =  3.10E-04,  avg # of iterations =  1.0

     total cpu time spent up to now is     3612.0 secs

     total energy              =    -585.77630986 Ry
     Harris-Foulkes estimate   =    -585.78531078 Ry
     estimated scf accuracy    <       0.10468619 Ry

     iteration # 14     ecut=    50.00 Ry     beta= 0.60
     Davidson diagonalization with overlap
     ethr =  1.69E-04,  avg # of iterations =  1.0

     total cpu time spent up to now is     3672.9 secs

     total energy              =    -585.77352768 Ry
     Harris-Foulkes estimate   =    -585.77882291 Ry
     estimated scf accuracy    <       0.06616523 Ry

     iteration # 15     ecut=    50.00 Ry     beta= 0.60
     Davidson diagonalization with overlap
     ethr =  1.07E-04,  avg # of iterations =  1.1

     total cpu time spent up to now is     3734.2 secs

     total energy              =    -585.77237986 Ry
     Harris-Foulkes estimate   =    -585.77552200 Ry
     estimated scf accuracy    <       0.03146511 Ry

     iteration # 16     ecut=    50.00 Ry     beta= 0.60
     Davidson diagonalization with overlap
     ethr =  5.08E-05,  avg # of iterations =  5.8

     total cpu time spent up to now is     3833.9 secs

     total energy              =    -585.77084064 Ry
     Harris-Foulkes estimate   =    -585.78204649 Ry
     estimated scf accuracy    <       0.10175378 Ry

     iteration # 17     ecut=    50.00 Ry     beta= 0.60
     Davidson diagonalization with overlap
     ethr =  5.08E-05,  avg # of iterations =  3.0

     total cpu time spent up to now is     3901.1 secs

     total energy              =    -585.77417352 Ry
     Harris-Foulkes estimate   =    -585.77464511 Ry
     estimated scf accuracy    <       0.00963830 Ry

     iteration # 18     ecut=    50.00 Ry     beta= 0.60
     Davidson diagonalization with overlap
     c_bands:  1 eigenvalues not converged
     ethr =  1.55E-05,  avg # of iterations =  4.9

     total cpu time spent up to now is     3987.8 secs

     total energy              =    -585.77555167 Ry
     Harris-Foulkes estimate   =    -585.77562910 Ry
     estimated scf accuracy    <       0.00033360 Ry

     iteration # 19     ecut=    50.00 Ry     beta= 0.60
     Davidson diagonalization with overlap
     ethr =  5.38E-07,  avg # of iterations =  6.7

     total cpu time spent up to now is     4103.2 secs

     total energy              =    -585.77564191 Ry
     Harris-Foulkes estimate   =    -585.77571506 Ry
     estimated scf accuracy    <       0.00052852 Ry

     iteration # 20     ecut=    50.00 Ry     beta= 0.60
     Davidson diagonalization with overlap
     ethr =  5.38E-07,  avg # of iterations =  1.4

     total cpu time spent up to now is     4163.8 secs

     total energy              =    -585.77566495 Ry
     Harris-Foulkes estimate   =    -585.77566989 Ry
     estimated scf accuracy    <       0.00003745 Ry

     iteration # 21     ecut=    50.00 Ry     beta= 0.60
     Davidson diagonalization with overlap
     ethr =  6.04E-08,  avg # of iterations =  4.7

     total cpu time spent up to now is     4257.4 secs

     total energy              =    -585.77567915 Ry
     Harris-Foulkes estimate   =    -585.77568517 Ry
     estimated scf accuracy    <       0.00006825 Ry

     iteration # 22     ecut=    50.00 Ry     beta= 0.60
     Davidson diagonalization with overlap
     ethr =  6.04E-08,  avg # of iterations =  1.0

     total cpu time spent up to now is     4317.8 secs

     total energy              =    -585.77567879 Ry
     Harris-Foulkes estimate   =    -585.77568061 Ry
     estimated scf accuracy    <       0.00002271 Ry

     iteration # 23     ecut=    50.00 Ry     beta= 0.60
     Davidson diagonalization with overlap
     ethr =  3.66E-08,  avg # of iterations =  3.1

     total cpu time spent up to now is     4386.3 secs

     total energy              =    -585.77568006 Ry
     Harris-Foulkes estimate   =    -585.77568032 Ry
     estimated scf accuracy    <       0.00000194 Ry

     iteration # 24     ecut=    50.00 Ry     beta= 0.60
     Davidson diagonalization with overlap
     ethr =  3.13E-09,  avg # of iterations =  4.7

     total cpu time spent up to now is     4477.1 secs

     total energy              =    -585.77568033 Ry
     Harris-Foulkes estimate   =    -585.77568066 Ry
     estimated scf accuracy    <       0.00000157 Ry

     iteration # 25     ecut=    50.00 Ry     beta= 0.60
     Davidson diagonalization with overlap
     ethr =  2.54E-09,  avg # of iterations =  2.9

     total cpu time spent up to now is     4542.7 secs

     total energy              =    -585.77568052 Ry
     Harris-Foulkes estimate   =    -585.77568055 Ry
     estimated scf accuracy    <       0.00000025 Ry

     iteration # 26     ecut=    50.00 Ry     beta= 0.60
     Davidson diagonalization with overlap
     ethr =  3.96E-10,  avg # of iterations =  3.9

     total cpu time spent up to now is     4611.0 secs

     total energy              =    -585.77568054 Ry
     Harris-Foulkes estimate   =    -585.77568055 Ry
     estimated scf accuracy    <       0.00000011 Ry

     iteration # 27     ecut=    50.00 Ry     beta= 0.60
     Davidson diagonalization with overlap
     ethr =  1.73E-10,  avg # of iterations =  1.1

     total cpu time spent up to now is     4663.2 secs

     total energy              =    -585.77568054 Ry
     Harris-Foulkes estimate   =    -585.77568054 Ry
     estimated scf accuracy    <       0.00000003 Ry

     iteration # 28     ecut=    50.00 Ry     beta= 0.60
     Davidson diagonalization with overlap
     ethr =  5.51E-11,  avg # of iterations =  3.5

     total cpu time spent up to now is     4728.4 secs

     total energy              =    -585.77568054 Ry
     Harris-Foulkes estimate   =    -585.77568054 Ry
     estimated scf accuracy    <          1.4E-09 Ry

     iteration # 29     ecut=    50.00 Ry     beta= 0.60
     Davidson diagonalization with overlap
     ethr =  2.19E-12,  avg # of iterations =  4.2

     total cpu time spent up to now is     4801.6 secs

     End of self-consistent calculation

     Number of k-points >= 100: set verbosity='high' to print the bands.

     the Fermi energy is    13.2621 ev

!    total energy              =    -585.77568054 Ry
     Harris-Foulkes estimate   =    -585.77568054 Ry
     estimated scf accuracy    <          7.8E-11 Ry

     The total energy is the sum of the following terms:

     one-electron contribution =    -180.90211518 Ry
     hartree contribution      =     110.57886263 Ry
     xc contribution           =     -79.99672921 Ry
     ewald contribution        =    -435.45446384 Ry
     smearing contrib. (-TS)   =      -0.00123495 Ry

     convergence has been achieved in  29 iterations

     Forces acting on atoms (cartesian axes, Ry/au):

     atom    1 type  2   force =    -0.00200489   -0.00200489   -0.00795806
     atom    2 type  2   force =     0.00200195    0.00200195    0.00795342
     atom    3 type  1   force =     0.00637449    0.00637449   -0.00836626
     atom    4 type  2   force =     0.00000275    0.00000275    0.00000445
     atom    5 type  1   force =    -0.00637430   -0.00637430    0.00836645

     Total force =     0.021099     Total SCF correction =     0.000038


     Computing stress (Cartesian axis) and pressure

          total   stress  (Ry/bohr**3)                   (kbar)     P= -124.38
  -0.00084469   0.00000583   0.00000654       -124.26      0.86      0.96
   0.00000583  -0.00084469   0.00000654          0.86   -124.26      0.96
   0.00000654   0.00000654  -0.00084710          0.96      0.96   -124.61


     number of scf cycles    =   2
     number of bfgs steps    =   1

     enthalpy old            =    -585.6981507066 Ry
     enthalpy new            =    -585.7756805446 Ry

     CASE: enthalpy_new < enthalpy_old

     new trust radius        =       0.2638082307 bohr
     new conv_thr            =            1.0E-10 Ry

     new unit-cell volume =    566.90287 a.u.^3 (    84.00634 Ang^3 )
     density =      6.51147 g/cm^3

CELL_PARAMETERS (alat=  1.88972599)
   4.846015600   1.620194095   4.844216766
   1.620194095   4.846015600   4.844216766
  -1.613207183  -1.613207183   1.610278483

ATOMIC_POSITIONS (angstrom)
Ti      -0.001926513  -0.001926513   3.210808246
Ti       1.623156005   1.623156005   4.856630615
Nb       3.244126424   3.244126424   6.441983429
Ti       4.850331602   4.850331602   8.072812071
Nb       4.843320015   4.843320015  11.313901685


     NEW-OLD atomic charge density approx. for the potential
     extrapolated charge   51.94941, renormalised to   62.00000

     total cpu time spent up to now is     4824.8 secs

     Self-consistent Calculation

     iteration #  1     ecut=    50.00 Ry     beta= 0.60
     Davidson diagonalization with overlap
     c_bands:  1 eigenvalues not converged
     c_bands:  1 eigenvalues not converged
     c_bands:  1 eigenvalues not converged
     ethr =  1.00E-06,  avg # of iterations = 15.1

     total cpu time spent up to now is     5055.8 secs

     total energy              =    -535.95262134 Ry
     Harris-Foulkes estimate   =    -606.43484437 Ry
     estimated scf accuracy    <      55.55536213 Ry

     iteration #  2     ecut=    50.00 Ry     beta= 0.60
     Davidson diagonalization with overlap
     ethr =  1.00E-02,  avg # of iterations =  8.2

     total cpu time spent up to now is     5187.0 secs

     total energy              =    -560.76617152 Ry
     Harris-Foulkes estimate   =    -662.06822618 Ry
     estimated scf accuracy    <     350.21154999 Ry

     iteration #  3     ecut=    50.00 Ry     beta= 0.60
     Davidson diagonalization with overlap
     ethr =  1.00E-02,  avg # of iterations =  7.6

     total cpu time spent up to now is     5304.9 secs

     total energy              =    -584.62145552 Ry
     Harris-Foulkes estimate   =    -598.78213713 Ry
     estimated scf accuracy    <      59.47221588 Ry

     iteration #  4     ecut=    50.00 Ry     beta= 0.60
     Davidson diagonalization with overlap
     ethr =  1.00E-02,  avg # of iterations =  5.0

     total cpu time spent up to now is     5389.9 secs

     total energy              =    -587.29299281 Ry
     Harris-Foulkes estimate   =    -592.90538061 Ry
     estimated scf accuracy    <      34.39162902 Ry

     iteration #  5     ecut=    50.00 Ry     beta= 0.60
     Davidson diagonalization with overlap
     ethr =  1.00E-02,  avg # of iterations =  1.9

     total cpu time spent up to now is     5444.0 secs

     total energy              =    -587.31045090 Ry
     Harris-Foulkes estimate   =    -588.11586342 Ry
     estimated scf accuracy    <      10.66039721 Ry

     iteration #  6     ecut=    50.00 Ry     beta= 0.60
     Davidson diagonalization with overlap
     ethr =  1.00E-02,  avg # of iterations =  1.4

     total cpu time spent up to now is     5496.4 secs

     total energy              =    -586.01182425 Ry
     Harris-Foulkes estimate   =    -587.45054357 Ry
     estimated scf accuracy    <       8.29903932 Ry

     iteration #  7     ecut=    50.00 Ry     beta= 0.60
     Davidson diagonalization with overlap
     ethr =  1.00E-02,  avg # of iterations =  1.7

     total cpu time spent up to now is     5549.8 secs

     total energy              =    -585.54348544 Ry
     Harris-Foulkes estimate   =    -586.22358979 Ry
     estimated scf accuracy    <       3.54749091 Ry

     iteration #  8     ecut=    50.00 Ry     beta= 0.60
     Davidson diagonalization with overlap
     ethr =  5.72E-03,  avg # of iterations =  3.8

     total cpu time spent up to now is     5616.8 secs

     total energy              =    -586.13403635 Ry
     Harris-Foulkes estimate   =    -585.93344134 Ry
     estimated scf accuracy    <       0.44753033 Ry

     iteration #  9     ecut=    50.00 Ry     beta= 0.60
     Davidson diagonalization with overlap
     ethr =  7.22E-04,  avg # of iterations =  5.3

     total cpu time spent up to now is     5702.6 secs

     total energy              =    -586.33309358 Ry
     Harris-Foulkes estimate   =    -586.39152966 Ry
     estimated scf accuracy    <       2.97777096 Ry

     iteration # 10     ecut=    50.00 Ry     beta= 0.60
     Davidson diagonalization with overlap
     ethr =  7.22E-04,  avg # of iterations =  1.0

     total cpu time spent up to now is     5753.7 secs

     total energy              =    -585.07175126 Ry
     Harris-Foulkes estimate   =    -586.33515179 Ry
     estimated scf accuracy    <       2.90096560 Ry

     iteration # 11     ecut=    50.00 Ry     beta= 0.60
     Davidson diagonalization with overlap
     ethr =  7.22E-04,  avg # of iterations =  5.0

     total cpu time spent up to now is     5854.9 secs

     total energy              =    -585.44757217 Ry
     Harris-Foulkes estimate   =    -586.31421240 Ry
     estimated scf accuracy    <       8.30388043 Ry

     iteration # 12     ecut=    50.00 Ry     beta= 0.60
     Davidson diagonalization with overlap
     ethr =  7.22E-04,  avg # of iterations =  5.0

     total cpu time spent up to now is     5937.2 secs

     total energy              =    -585.79790479 Ry
     Harris-Foulkes estimate   =    -585.83565947 Ry
     estimated scf accuracy    <       0.51527538 Ry

     iteration # 13     ecut=    50.00 Ry     beta= 0.60
     Davidson diagonalization with overlap
     ethr =  7.22E-04,  avg # of iterations =  1.0

     total cpu time spent up to now is     5988.7 secs

     total energy              =    -585.79964456 Ry
     Harris-Foulkes estimate   =    -585.80890424 Ry
     estimated scf accuracy    <       0.14810795 Ry

     iteration # 14     ecut=    50.00 Ry     beta= 0.60
     Davidson diagonalization with overlap
     ethr =  2.39E-04,  avg # of iterations =  3.2

     total cpu time spent up to now is     6047.5 secs

     total energy              =    -585.80092207 Ry
     Harris-Foulkes estimate   =    -585.80888374 Ry
     estimated scf accuracy    <       0.06984466 Ry

     iteration # 15     ecut=    50.00 Ry     beta= 0.60
     Davidson diagonalization with overlap
     ethr =  1.13E-04,  avg # of iterations =  4.5

     total cpu time spent up to now is     6108.8 secs

     total energy              =    -585.80313289 Ry
     Harris-Foulkes estimate   =    -585.80477399 Ry
     estimated scf accuracy    <       0.01237316 Ry

     iteration # 16     ecut=    50.00 Ry     beta= 0.60
     Davidson diagonalization with overlap
     ethr =  2.00E-05,  avg # of iterations =  6.8

     total cpu time spent up to now is     6191.3 secs

     total energy              =    -585.80480901 Ry
     Harris-Foulkes estimate   =    -585.80548542 Ry
     estimated scf accuracy    <       0.00562559 Ry

     iteration # 17     ecut=    50.00 Ry     beta= 0.60
     Davidson diagonalization with overlap
     ethr =  9.07E-06,  avg # of iterations =  1.1

     total cpu time spent up to now is     6242.6 secs

     total energy              =    -585.80497197 Ry
     Harris-Foulkes estimate   =    -585.80509058 Ry
     estimated scf accuracy    <       0.00070406 Ry

     iteration # 18     ecut=    50.00 Ry     beta= 0.60
     Davidson diagonalization with overlap
     c_bands:  1 eigenvalues not converged
     ethr =  1.14E-06,  avg # of iterations =  5.8

     total cpu time spent up to now is     6323.4 secs

     total energy              =    -585.80511864 Ry
     Harris-Foulkes estimate   =    -585.80518706 Ry
     estimated scf accuracy    <       0.00060896 Ry

     iteration # 19     ecut=    50.00 Ry     beta= 0.60
     Davidson diagonalization with overlap
     ethr =  9.82E-07,  avg # of iterations =  1.0

     total cpu time spent up to now is     6374.5 secs

     total energy              =    -585.80511392 Ry
     Harris-Foulkes estimate   =    -585.80514342 Ry
     estimated scf accuracy    <       0.00030179 Ry

     iteration # 20     ecut=    50.00 Ry     beta= 0.60
     Davidson diagonalization with overlap
     ethr =  4.87E-07,  avg # of iterations =  2.9

     total cpu time spent up to now is     6432.6 secs

     total energy              =    -585.80513351 Ry
     Harris-Foulkes estimate   =    -585.80513507 Ry
     estimated scf accuracy    <       0.00000929 Ry

     iteration # 21     ecut=    50.00 Ry     beta= 0.60
     Davidson diagonalization with overlap
     ethr =  1.50E-08,  avg # of iterations =  5.0

     total cpu time spent up to now is     6511.6 secs

     total energy              =    -585.80513783 Ry
     Harris-Foulkes estimate   =    -585.80513871 Ry
     estimated scf accuracy    <       0.00000685 Ry

     iteration # 22     ecut=    50.00 Ry     beta= 0.60
     Davidson diagonalization with overlap
     ethr =  1.10E-08,  avg # of iterations =  2.1

     total cpu time spent up to now is     6565.7 secs

     total energy              =    -585.80513802 Ry
     Harris-Foulkes estimate   =    -585.80513853 Ry
     estimated scf accuracy    <       0.00000573 Ry

     iteration # 23     ecut=    50.00 Ry     beta= 0.60
     Davidson diagonalization with overlap
     ethr =  9.24E-09,  avg # of iterations =  1.0

     total cpu time spent up to now is     6616.9 secs

     total energy              =    -585.80513812 Ry
     Harris-Foulkes estimate   =    -585.80513825 Ry
     estimated scf accuracy    <       0.00000146 Ry

     iteration # 24     ecut=    50.00 Ry     beta= 0.60
     Davidson diagonalization with overlap
     ethr =  2.35E-09,  avg # of iterations =  2.8

     total cpu time spent up to now is     6674.4 secs

     total energy              =    -585.80513817 Ry
     Harris-Foulkes estimate   =    -585.80513822 Ry
     estimated scf accuracy    <       0.00000029 Ry

     iteration # 25     ecut=    50.00 Ry     beta= 0.60
     Davidson diagonalization with overlap
     ethr =  4.74E-10,  avg # of iterations =  4.0

     total cpu time spent up to now is     6743.9 secs

     total energy              =    -585.80513819 Ry
     Harris-Foulkes estimate   =    -585.80513824 Ry
     estimated scf accuracy    <       0.00000045 Ry

     iteration # 26     ecut=    50.00 Ry     beta= 0.60
     Davidson diagonalization with overlap
     ethr =  4.74E-10,  avg # of iterations =  1.0

     total cpu time spent up to now is     6795.0 secs

     total energy              =    -585.80513821 Ry
     Harris-Foulkes estimate   =    -585.80513821 Ry
     estimated scf accuracy    <       0.00000002 Ry

     iteration # 27     ecut=    50.00 Ry     beta= 0.60
     Davidson diagonalization with overlap
     ethr =  2.82E-11,  avg # of iterations =  4.8

     total cpu time spent up to now is     6873.0 secs

     total energy              =    -585.80513822 Ry
     Harris-Foulkes estimate   =    -585.80513822 Ry
     estimated scf accuracy    <       0.00000005 Ry

     iteration # 28     ecut=    50.00 Ry     beta= 0.60
     Davidson diagonalization with overlap
     ethr =  2.82E-11,  avg # of iterations =  1.0

     total cpu time spent up to now is     6924.0 secs

     total energy              =    -585.80513822 Ry
     Harris-Foulkes estimate   =    -585.80513822 Ry
     estimated scf accuracy    <       0.00000001 Ry

     iteration # 29     ecut=    50.00 Ry     beta= 0.60
     Davidson diagonalization with overlap
     ethr =  2.37E-11,  avg # of iterations =  2.5

     total cpu time spent up to now is     6979.2 secs

     total energy              =    -585.80513822 Ry
     Harris-Foulkes estimate   =    -585.80513822 Ry
     estimated scf accuracy    <          1.7E-09 Ry

     iteration # 30     ecut=    50.00 Ry     beta= 0.60
     Davidson diagonalization with overlap
     ethr =  2.80E-12,  avg # of iterations =  4.3

     total cpu time spent up to now is     7053.0 secs

     total energy              =    -585.80513822 Ry
     Harris-Foulkes estimate   =    -585.80513822 Ry
     estimated scf accuracy    <          5.9E-10 Ry

     iteration # 31     ecut=    50.00 Ry     beta= 0.60
     Davidson diagonalization with overlap
     ethr =  9.59E-13,  avg # of iterations =  1.1

     total cpu time spent up to now is     7104.3 secs

     total energy              =    -585.80513822 Ry
     Harris-Foulkes estimate   =    -585.80513822 Ry
     estimated scf accuracy    <          2.2E-10 Ry

     iteration # 32     ecut=    50.00 Ry     beta= 0.60
     Davidson diagonalization with overlap
     ethr =  3.56E-13,  avg # of iterations =  3.1

     total cpu time spent up to now is     7167.2 secs

     total energy              =    -585.80513822 Ry
     Harris-Foulkes estimate   =    -585.80513822 Ry
     estimated scf accuracy    <          1.1E-10 Ry

     iteration # 33     ecut=    50.00 Ry     beta= 0.60
     Davidson diagonalization with overlap
     ethr =  1.71E-13,  avg # of iterations =  1.1

     total cpu time spent up to now is     7218.3 secs

     End of self-consistent calculation

     Number of k-points >= 100: set verbosity='high' to print the bands.

     the Fermi energy is    15.9694 ev

!    total energy              =    -585.80513822 Ry
     Harris-Foulkes estimate   =    -585.80513822 Ry
     estimated scf accuracy    <          7.0E-12 Ry

     The total energy is the sum of the following terms:

     one-electron contribution =    -146.81497957 Ry
     hartree contribution      =     100.50322413 Ry
     xc contribution           =     -80.69651713 Ry
     ewald contribution        =    -458.79579251 Ry
     smearing contrib. (-TS)   =      -0.00107314 Ry

     convergence has been achieved in  33 iterations

     Forces acting on atoms (cartesian axes, Ry/au):

     atom    1 type  2   force =     0.00452602    0.00452602    0.00263769
     atom    2 type  2   force =    -0.00452499   -0.00452499   -0.00263338
     atom    3 type  1   force =     0.00903845    0.00903845   -0.00064284
     atom    4 type  2   force =     0.00000050    0.00000050   -0.00000073
     atom    5 type  1   force =    -0.00903999   -0.00903999    0.00063926

     Total force =     0.020578     Total SCF correction =     0.000007


     Computing stress (Cartesian axis) and pressure

          total   stress  (Ry/bohr**3)                   (kbar)     P=   59.48
   0.00040253   0.00000896  -0.00001416         59.21      1.32     -2.08
   0.00000896   0.00040253  -0.00001416          1.32     59.21     -2.08
  -0.00001416  -0.00001416   0.00040792         -2.08     -2.08     60.01


     number of scf cycles    =   3
     number of bfgs steps    =   2

     enthalpy old            =    -585.7756805446 Ry
     enthalpy new            =    -585.8051382205 Ry

     CASE: enthalpy_new < enthalpy_old

     new trust radius        =       0.0762845558 bohr
     new conv_thr            =            1.0E-10 Ry

     new unit-cell volume =    594.42549 a.u.^3 (    88.08477 Ang^3 )
     density =      6.20998 g/cm^3

CELL_PARAMETERS (alat=  1.88972599)
   4.921539546   1.644691700   4.919699820
   1.644691700   4.921539546   4.919699820
  -1.639463429  -1.639463429   1.637105865

ATOMIC_POSITIONS (angstrom)
Ti      -0.001132922  -0.001132922   3.264726334
Ti       1.645617448   1.645617448   4.930852687
Nb       3.295346206   3.295346206   6.544589090
Ti       4.925097262   4.925097262   8.198949427
Nb       4.915375456   4.915375456  11.490398978


     NEW-OLD atomic charge density approx. for the potential
     extrapolated charge   64.73151, renormalised to   62.00000

     total cpu time spent up to now is     7241.3 secs

     Self-consistent Calculation

     iteration #  1     ecut=    50.00 Ry     beta= 0.60
     Davidson diagonalization with overlap
     c_bands:  1 eigenvalues not converged
     c_bands:  1 eigenvalues not converged
     c_bands:  1 eigenvalues not converged
     c_bands:  1 eigenvalues not converged
     c_bands:  1 eigenvalues not converged
     c_bands:  1 eigenvalues not converged
     ethr =  1.00E-06,  avg # of iterations = 12.4

     total cpu time spent up to now is     7408.3 secs

     total energy              =    -585.21336145 Ry
     Harris-Foulkes estimate   =    -580.95381957 Ry
     estimated scf accuracy    <       0.48192301 Ry

     iteration #  2     ecut=    50.00 Ry     beta= 0.60
     Davidson diagonalization with overlap
     ethr =  7.77E-04,  avg # of iterations =  6.1

     total cpu time spent up to now is     7514.0 secs

     total energy              =    -585.30078028 Ry
     Harris-Foulkes estimate   =    -586.36049210 Ry
     estimated scf accuracy    <       5.01458335 Ry

     iteration #  3     ecut=    50.00 Ry     beta= 0.60
     Davidson diagonalization with overlap
     ethr =  7.77E-04,  avg # of iterations =  5.4

     total cpu time spent up to now is     7628.9 secs

     total energy              =    -585.44903930 Ry
     Harris-Foulkes estimate   =    -586.27890121 Ry
     estimated scf accuracy    <       7.54991050 Ry

     iteration #  4     ecut=    50.00 Ry     beta= 0.60
     Davidson diagonalization with overlap
     ethr =  7.77E-04,  avg # of iterations =  6.3

     total cpu time spent up to now is     7729.1 secs

     total energy              =    -585.74502987 Ry
     Harris-Foulkes estimate   =    -585.91658833 Ry
     estimated scf accuracy    <       1.33414476 Ry

     iteration #  5     ecut=    50.00 Ry     beta= 0.60
     Davidson diagonalization with overlap
     ethr =  7.77E-04,  avg # of iterations =  3.6

     total cpu time spent up to now is     7802.4 secs

     total energy              =    -585.82310409 Ry
     Harris-Foulkes estimate   =    -585.83886782 Ry
     estimated scf accuracy    <       0.13561444 Ry

     iteration #  6     ecut=    50.00 Ry     beta= 0.60
     Davidson diagonalization with overlap
     ethr =  2.19E-04,  avg # of iterations =  4.4

     total cpu time spent up to now is     7876.5 secs

     total energy              =    -585.81639131 Ry
     Harris-Foulkes estimate   =    -585.82942134 Ry
     estimated scf accuracy    <       0.08584516 Ry

     iteration #  7     ecut=    50.00 Ry     beta= 0.60
     Davidson diagonalization with overlap
     ethr =  1.38E-04,  avg # of iterations =  1.2

     total cpu time spent up to now is     7938.1 secs

     total energy              =    -585.81518578 Ry
     Harris-Foulkes estimate   =    -585.81832159 Ry
     estimated scf accuracy    <       0.04700474 Ry

     iteration #  8     ecut=    50.00 Ry     beta= 0.60
     Davidson diagonalization with overlap
     ethr =  7.58E-05,  avg # of iterations =  1.2

     total cpu time spent up to now is     7998.2 secs

     total energy              =    -585.81026300 Ry
     Harris-Foulkes estimate   =    -585.81600664 Ry
     estimated scf accuracy    <       0.03738534 Ry

     iteration #  9     ecut=    50.00 Ry     beta= 0.60
     Davidson diagonalization with overlap
     ethr =  6.03E-05,  avg # of iterations =  1.6

     total cpu time spent up to now is     8059.7 secs

     total energy              =    -585.80887282 Ry
     Harris-Foulkes estimate   =    -585.81137120 Ry
     estimated scf accuracy    <       0.01706458 Ry

     iteration # 10     ecut=    50.00 Ry     beta= 0.60
     Davidson diagonalization with overlap
     c_bands:  1 eigenvalues not converged
     c_bands:  1 eigenvalues not converged
     c_bands:  1 eigenvalues not converged
     c_bands:  1 eigenvalues not converged
     c_bands:  1 eigenvalues not converged
     ethr =  2.75E-05,  avg # of iterations =  6.3

     total cpu time spent up to now is     8149.3 secs

     total energy              =    -585.80925848 Ry
     Harris-Foulkes estimate   =    -585.81037574 Ry
     estimated scf accuracy    <       0.00406570 Ry

     iteration # 11     ecut=    50.00 Ry     beta= 0.60
     Davidson diagonalization with overlap
     c_bands:  1 eigenvalues not converged
     c_bands:  1 eigenvalues not converged
     ethr =  6.56E-06,  avg # of iterations =  6.5

     total cpu time spent up to now is     8248.5 secs

     total energy              =    -585.80987897 Ry
     Harris-Foulkes estimate   =    -585.80989509 Ry
     estimated scf accuracy    <       0.00016661 Ry

     iteration # 12     ecut=    50.00 Ry     beta= 0.60
     Davidson diagonalization with overlap
     c_bands:  1 eigenvalues not converged
     ethr =  2.69E-07,  avg # of iterations =  5.4

     total cpu time spent up to now is     8349.1 secs

     total energy              =    -585.80992698 Ry
     Harris-Foulkes estimate   =    -585.80993068 Ry
     estimated scf accuracy    <       0.00020302 Ry

     iteration # 13     ecut=    50.00 Ry     beta= 0.60
     Davidson diagonalization with overlap
     ethr =  2.69E-07,  avg # of iterations =  2.0

     total cpu time spent up to now is     8412.2 secs

     total energy              =    -585.80993302 Ry
     Harris-Foulkes estimate   =    -585.80994177 Ry
     estimated scf accuracy    <       0.00015146 Ry

     iteration # 14     ecut=    50.00 Ry     beta= 0.60
     Davidson diagonalization with overlap
     ethr =  2.44E-07,  avg # of iterations =  1.0

     total cpu time spent up to now is     8472.6 secs

     total energy              =    -585.80992470 Ry
     Harris-Foulkes estimate   =    -585.80993804 Ry
     estimated scf accuracy    <       0.00013191 Ry

     iteration # 15     ecut=    50.00 Ry     beta= 0.60
     Davidson diagonalization with overlap
     ethr =  2.13E-07,  avg # of iterations =  1.0

     total cpu time spent up to now is     8532.9 secs

     total energy              =    -585.80991501 Ry
     Harris-Foulkes estimate   =    -585.80992634 Ry
     estimated scf accuracy    <       0.00007936 Ry

     iteration # 16     ecut=    50.00 Ry     beta= 0.60
     Davidson diagonalization with overlap
     ethr =  1.28E-07,  avg # of iterations =  1.0

     total cpu time spent up to now is     8592.8 secs

     total energy              =    -585.80990639 Ry
     Harris-Foulkes estimate   =    -585.80991647 Ry
     estimated scf accuracy    <       0.00004373 Ry

     iteration # 17     ecut=    50.00 Ry     beta= 0.60
     Davidson diagonalization with overlap
     ethr =  7.05E-08,  avg # of iterations =  3.0

     total cpu time spent up to now is     8666.6 secs

     total energy              =    -585.80990857 Ry
     Harris-Foulkes estimate   =    -585.80990990 Ry
     estimated scf accuracy    <       0.00000837 Ry

     iteration # 18     ecut=    50.00 Ry     beta= 0.60
     Davidson diagonalization with overlap
     ethr =  1.35E-08,  avg # of iterations =  3.7

     total cpu time spent up to now is     8746.7 secs

     total energy              =    -585.80990858 Ry
     Harris-Foulkes estimate   =    -585.80990979 Ry
     estimated scf accuracy    <       0.00001635 Ry

     iteration # 19     ecut=    50.00 Ry     beta= 0.60
     Davidson diagonalization with overlap
     ethr =  1.35E-08,  avg # of iterations =  4.0

     total cpu time spent up to now is     8834.9 secs

     total energy              =    -585.80990447 Ry
     Harris-Foulkes estimate   =    -585.80991342 Ry
     estimated scf accuracy    <       0.00004884 Ry

     iteration # 20     ecut=    50.00 Ry     beta= 0.60
     Davidson diagonalization with overlap
     ethr =  1.35E-08,  avg # of iterations =  4.0

     total cpu time spent up to now is     8923.3 secs

     total energy              =    -585.80990840 Ry
     Harris-Foulkes estimate   =    -585.80990848 Ry
     estimated scf accuracy    <       0.00000025 Ry

     iteration # 21     ecut=    50.00 Ry     beta= 0.60
     Davidson diagonalization with overlap
     ethr =  3.96E-10,  avg # of iterations =  4.0

     total cpu time spent up to now is     9015.5 secs

     total energy              =    -585.80990847 Ry
     Harris-Foulkes estimate   =    -585.80990848 Ry
     estimated scf accuracy    <       0.00000004 Ry

     iteration # 22     ecut=    50.00 Ry     beta= 0.60
     Davidson diagonalization with overlap
     ethr =  5.66E-11,  avg # of iterations =  2.6

     total cpu time spent up to now is     9081.8 secs

     total energy              =    -585.80990848 Ry
     Harris-Foulkes estimate   =    -585.80990848 Ry
     estimated scf accuracy    <          1.1E-09 Ry

     iteration # 23     ecut=    50.00 Ry     beta= 0.60
     Davidson diagonalization with overlap
     ethr =  1.84E-12,  avg # of iterations =  5.0

     total cpu time spent up to now is     9173.9 secs

     total energy              =    -585.80990848 Ry
     Harris-Foulkes estimate   =    -585.80990848 Ry
     estimated scf accuracy    <          3.9E-09 Ry

     iteration # 24     ecut=    50.00 Ry     beta= 0.60
     Davidson diagonalization with overlap
     c_bands:  1 eigenvalues not converged
     ethr =  1.84E-12,  avg # of iterations =  4.0

     total cpu time spent up to now is     9245.4 secs

     total energy              =    -585.80990848 Ry
     Harris-Foulkes estimate   =    -585.80990848 Ry
     estimated scf accuracy    <          1.0E-09 Ry

     iteration # 25     ecut=    50.00 Ry     beta= 0.60
     Davidson diagonalization with overlap
     ethr =  1.64E-12,  avg # of iterations =  1.2

     total cpu time spent up to now is     9295.7 secs

     End of self-consistent calculation

     Number of k-points >= 100: set verbosity='high' to print the bands.

     the Fermi energy is    15.1114 ev

!    total energy              =    -585.80990848 Ry
     Harris-Foulkes estimate   =    -585.80990848 Ry
     estimated scf accuracy    <          7.2E-11 Ry

     The total energy is the sum of the following terms:

     one-electron contribution =    -157.17385029 Ry
     hartree contribution      =     103.48526510 Ry
     xc contribution           =     -80.47106149 Ry
     ewald contribution        =    -451.64918850 Ry
     smearing contrib. (-TS)   =      -0.00107330 Ry

     convergence has been achieved in  25 iterations

     Forces acting on atoms (cartesian axes, Ry/au):

     atom    1 type  2   force =     0.00190795    0.00190795   -0.00170253
     atom    2 type  2   force =    -0.00190799   -0.00190799    0.00170383
     atom    3 type  1   force =     0.00740477    0.00740477   -0.00366856
     atom    4 type  2   force =    -0.00000024   -0.00000024   -0.00000147
     atom    5 type  1   force =    -0.00740449   -0.00740449    0.00366873

     Total force =     0.016328     Total SCF correction =     0.000009


     Computing stress (Cartesian axis) and pressure

          total   stress  (Ry/bohr**3)                   (kbar)     P=   -7.61
  -0.00005424   0.00000896  -0.00000544         -7.98      1.32     -0.80
   0.00000896  -0.00005424  -0.00000544          1.32     -7.98     -0.80
  -0.00000544  -0.00000544  -0.00004663         -0.80     -0.80     -6.86


     number of scf cycles    =   4
     number of bfgs steps    =   3

     enthalpy old            =    -585.8051382205 Ry
     enthalpy new            =    -585.8099084773 Ry

     CASE: enthalpy_new < enthalpy_old

     new trust radius        =       0.0097234967 bohr
     new conv_thr            =            1.0E-10 Ry

     new unit-cell volume =    591.30157 a.u.^3 (    87.62185 Ang^3 )
     density =      6.24278 g/cm^3

CELL_PARAMETERS (alat=  1.88972599)
   4.912389869   1.642144800   4.910805611
   1.642144800   4.912389869   4.910805611
  -1.637034351  -1.637034351   1.634800449

ATOMIC_POSITIONS (angstrom)
Ti      -0.000683971  -0.000683971   3.258506657
Ti       1.641551201   1.641551201   4.923172259
Nb       3.292704156   3.292704156   6.531284291
Ti       4.916225794   4.916225794   8.184257094
Nb       4.902703776   4.902703776  11.472014709


     NEW-OLD atomic charge density approx. for the potential
     extrapolated charge   61.68833, renormalised to   62.00000

     total cpu time spent up to now is     9318.6 secs

     Self-consistent Calculation

     iteration #  1     ecut=    50.00 Ry     beta= 0.60
     Davidson diagonalization with overlap
     ethr =  1.00E-06,  avg # of iterations =  4.9

     total cpu time spent up to now is     9422.7 secs

     total energy              =    -585.79978656 Ry
     Harris-Foulkes estimate   =    -586.37509735 Ry
     estimated scf accuracy    <       0.00893651 Ry

     iteration #  2     ecut=    50.00 Ry     beta= 0.60
     Davidson diagonalization with overlap
     ethr =  1.44E-05,  avg # of iterations =  5.5

     total cpu time spent up to now is     9524.7 secs

     total energy              =    -585.80166173 Ry
     Harris-Foulkes estimate   =    -585.82167818 Ry
     estimated scf accuracy    <       0.09583771 Ry

     iteration #  3     ecut=    50.00 Ry     beta= 0.60
     Davidson diagonalization with overlap
     ethr =  1.44E-05,  avg # of iterations =  5.3

     total cpu time spent up to now is     9611.2 secs

     total energy              =    -585.80715350 Ry
     Harris-Foulkes estimate   =    -585.81530815 Ry
     estimated scf accuracy    <       0.04625287 Ry

     iteration #  4     ecut=    50.00 Ry     beta= 0.60
     Davidson diagonalization with overlap
     ethr =  1.44E-05,  avg # of iterations =  4.3

     total cpu time spent up to now is     9681.1 secs

     total energy              =    -585.81077357 Ry
     Harris-Foulkes estimate   =    -585.81106239 Ry
     estimated scf accuracy    <       0.00511006 Ry

     iteration #  5     ecut=    50.00 Ry     beta= 0.60
     Davidson diagonalization with overlap
     ethr =  8.24E-06,  avg # of iterations =  2.3

     total cpu time spent up to now is     9733.6 secs

     total energy              =    -585.81043855 Ry
     Harris-Foulkes estimate   =    -585.81090921 Ry
     estimated scf accuracy    <       0.00340559 Ry

     iteration #  6     ecut=    50.00 Ry     beta= 0.60
     Davidson diagonalization with overlap
     ethr =  5.49E-06,  avg # of iterations =  1.0

     total cpu time spent up to now is     9783.2 secs

     total energy              =    -585.81024766 Ry
     Harris-Foulkes estimate   =    -585.81050775 Ry
     estimated scf accuracy    <       0.00188265 Ry

     iteration #  7     ecut=    50.00 Ry     beta= 0.60
     Davidson diagonalization with overlap
     ethr =  3.04E-06,  avg # of iterations =  2.0

     total cpu time spent up to now is     9835.6 secs

     total energy              =    -585.81018568 Ry
     Harris-Foulkes estimate   =    -585.81031206 Ry
     estimated scf accuracy    <       0.00076294 Ry

     iteration #  8     ecut=    50.00 Ry     beta= 0.60
     Davidson diagonalization with overlap
     c_bands:  1 eigenvalues not converged
     ethr =  1.23E-06,  avg # of iterations =  3.3

     total cpu time spent up to now is     9893.3 secs

     total energy              =    -585.81021286 Ry
     Harris-Foulkes estimate   =    -585.81023971 Ry
     estimated scf accuracy    <       0.00014248 Ry

     iteration #  9     ecut=    50.00 Ry     beta= 0.60
     Davidson diagonalization with overlap
     ethr =  2.30E-07,  avg # of iterations =  4.2

     total cpu time spent up to now is     9958.0 secs

     total energy              =    -585.81023061 Ry
     Harris-Foulkes estimate   =    -585.81023252 Ry
     estimated scf accuracy    <       0.00002308 Ry

     iteration # 10     ecut=    50.00 Ry     beta= 0.60
     Davidson diagonalization with overlap
     ethr =  3.72E-08,  avg # of iterations =  3.4

     total cpu time spent up to now is    10016.5 secs

     total energy              =    -585.81022163 Ry
     Harris-Foulkes estimate   =    -585.81023237 Ry
     estimated scf accuracy    <       0.00001670 Ry

     iteration # 11     ecut=    50.00 Ry     beta= 0.60
     Davidson diagonalization with overlap
     ethr =  2.69E-08,  avg # of iterations =  3.7

     total cpu time spent up to now is    10091.2 secs

     total energy              =    -585.81022664 Ry
     Harris-Foulkes estimate   =    -585.81022842 Ry
     estimated scf accuracy    <       0.00000848 Ry

     iteration # 12     ecut=    50.00 Ry     beta= 0.60
     Davidson diagonalization with overlap
     ethr =  1.37E-08,  avg # of iterations =  1.8

     total cpu time spent up to now is    10142.7 secs

     total energy              =    -585.81022698 Ry
     Harris-Foulkes estimate   =    -585.81022718 Ry
     estimated scf accuracy    <       0.00000102 Ry

     iteration # 13     ecut=    50.00 Ry     beta= 0.60
     Davidson diagonalization with overlap
     ethr =  1.64E-09,  avg # of iterations =  4.2

     total cpu time spent up to now is    10214.1 secs

     total energy              =    -585.81022731 Ry
     Harris-Foulkes estimate   =    -585.81022734 Ry
     estimated scf accuracy    <       0.00000042 Ry

     iteration # 14     ecut=    50.00 Ry     beta= 0.60
     Davidson diagonalization with overlap
     ethr =  6.84E-10,  avg # of iterations =  1.0

     total cpu time spent up to now is    10263.9 secs

     total energy              =    -585.81022730 Ry
     Harris-Foulkes estimate   =    -585.81022732 Ry
     estimated scf accuracy    <       0.00000026 Ry

     iteration # 15     ecut=    50.00 Ry     beta= 0.60
     Davidson diagonalization with overlap
     ethr =  4.21E-10,  avg # of iterations =  2.6

     total cpu time spent up to now is    10318.7 secs

     total energy              =    -585.81022730 Ry
     Harris-Foulkes estimate   =    -585.81022731 Ry
     estimated scf accuracy    <       0.00000010 Ry

     iteration # 16     ecut=    50.00 Ry     beta= 0.60
     Davidson diagonalization with overlap
     ethr =  1.57E-10,  avg # of iterations =  2.0

     total cpu time spent up to now is    10370.9 secs

     total energy              =    -585.81022731 Ry
     Harris-Foulkes estimate   =    -585.81022731 Ry
     estimated scf accuracy    <       0.00000002 Ry

     iteration # 17     ecut=    50.00 Ry     beta= 0.60
     Davidson diagonalization with overlap
     ethr =  3.06E-11,  avg # of iterations =  4.0

     total cpu time spent up to now is    10439.2 secs

     total energy              =    -585.81022731 Ry
     Harris-Foulkes estimate   =    -585.81022731 Ry
     estimated scf accuracy    <          7.0E-09 Ry

     iteration # 18     ecut=    50.00 Ry     beta= 0.60
     Davidson diagonalization with overlap
     ethr =  1.13E-11,  avg # of iterations =  1.2

     total cpu time spent up to now is    10489.3 secs

     total energy              =    -585.81022731 Ry
     Harris-Foulkes estimate   =    -585.81022731 Ry
     estimated scf accuracy    <          7.3E-10 Ry

     iteration # 19     ecut=    50.00 Ry     beta= 0.60
     Davidson diagonalization with overlap
     ethr =  1.18E-12,  avg # of iterations =  4.0

     total cpu time spent up to now is    10559.5 secs

     total energy              =    -585.81022731 Ry
     Harris-Foulkes estimate   =    -585.81022731 Ry
     estimated scf accuracy    <          2.6E-10 Ry

     iteration # 20     ecut=    50.00 Ry     beta= 0.60
     Davidson diagonalization with overlap
     ethr =  4.23E-13,  avg # of iterations =  1.5

     total cpu time spent up to now is    10610.4 secs

     total energy              =    -585.81022731 Ry
     Harris-Foulkes estimate   =    -585.81022731 Ry
     estimated scf accuracy    <          2.7E-10 Ry

     iteration # 21     ecut=    50.00 Ry     beta= 0.60
     Davidson diagonalization with overlap
     ethr =  4.23E-13,  avg # of iterations =  1.0

     total cpu time spent up to now is    10660.1 secs

     End of self-consistent calculation

     Number of k-points >= 100: set verbosity='high' to print the bands.

     the Fermi energy is    15.2045 ev

!    total energy              =    -585.81022731 Ry
     Harris-Foulkes estimate   =    -585.81022731 Ry
     estimated scf accuracy    <          9.6E-11 Ry

     The total energy is the sum of the following terms:

     one-electron contribution =    -156.00650392 Ry
     hartree contribution      =     103.14057020 Ry
     xc contribution           =     -80.49518735 Ry
     ewald contribution        =    -452.44805290 Ry
     smearing contrib. (-TS)   =      -0.00105336 Ry

     convergence has been achieved in  21 iterations

     Forces acting on atoms (cartesian axes, Ry/au):

     atom    1 type  2   force =     0.00196250    0.00196250   -0.00161022
     atom    2 type  2   force =    -0.00196254   -0.00196254    0.00161244
     atom    3 type  1   force =     0.00682991    0.00682991   -0.00347217
     atom    4 type  2   force =     0.00000069    0.00000069   -0.00000014
     atom    5 type  1   force =    -0.00683056   -0.00683056    0.00347010

     Total force =     0.015209     Total SCF correction =     0.000040


     Computing stress (Cartesian axis) and pressure

          total   stress  (Ry/bohr**3)                   (kbar)     P=   -0.80
  -0.00000878   0.00000948  -0.00000551         -1.29      1.40     -0.81
   0.00000948  -0.00000878  -0.00000551          1.40     -1.29     -0.81
  -0.00000551  -0.00000551   0.00000116         -0.81     -0.81      0.17


     number of scf cycles    =   5
     number of bfgs steps    =   4

     enthalpy old            =    -585.8099084773 Ry
     enthalpy new            =    -585.8102273098 Ry

     CASE: enthalpy_new < enthalpy_old

     new trust radius        =       0.0145633777 bohr
     new conv_thr            =            1.0E-10 Ry

     new unit-cell volume =    589.57388 a.u.^3 (    87.36583 Ang^3 )
     density =      6.26108 g/cm^3

CELL_PARAMETERS (alat=  1.88972599)
   4.906637138   1.641061601   4.905775891
   1.641061601   4.906637138   4.905775891
  -1.636151084  -1.636151084   1.634223704

ATOMIC_POSITIONS (angstrom)
Ti       0.000067976   0.000067976   3.254840062
Ti       1.637934216   1.637934216   4.919997115
Nb       3.294079347   3.294079347   6.522442147
Ti       4.910934054   4.910934054   8.176093902
Nb       4.891627372   4.891627372  11.463953231


     NEW-OLD atomic charge density approx. for the potential
     extrapolated charge   61.82712, renormalised to   62.00000

     total cpu time spent up to now is    10683.1 secs

     Self-consistent Calculation

     iteration #  1     ecut=    50.00 Ry     beta= 0.60
     Davidson diagonalization with overlap
     ethr =  1.00E-06,  avg # of iterations =  4.4

     total cpu time spent up to now is    10788.3 secs

     total energy              =    -585.80748465 Ry
     Harris-Foulkes estimate   =    -586.12222119 Ry
     estimated scf accuracy    <       0.00257024 Ry

     iteration #  2     ecut=    50.00 Ry     beta= 0.60
     Davidson diagonalization with overlap
     ethr =  4.15E-06,  avg # of iterations =  5.1

     total cpu time spent up to now is    10889.5 secs

     total energy              =    -585.80806047 Ry
     Harris-Foulkes estimate   =    -585.81372691 Ry
     estimated scf accuracy    <       0.02720046 Ry

     iteration #  3     ecut=    50.00 Ry     beta= 0.60
     Davidson diagonalization with overlap
     ethr =  4.15E-06,  avg # of iterations =  5.1

     total cpu time spent up to now is    10975.1 secs

     total energy              =    -585.80937692 Ry
     Harris-Foulkes estimate   =    -585.81216533 Ry
     estimated scf accuracy    <       0.01690728 Ry

     iteration #  4     ecut=    50.00 Ry     beta= 0.60
     Davidson diagonalization with overlap
     ethr =  4.15E-06,  avg # of iterations =  4.6

     total cpu time spent up to now is    11048.6 secs

     total energy              =    -585.81057979 Ry
     Harris-Foulkes estimate   =    -585.81091700 Ry
     estimated scf accuracy    <       0.00411354 Ry

     iteration #  5     ecut=    50.00 Ry     beta= 0.60
     Davidson diagonalization with overlap
     ethr =  4.15E-06,  avg # of iterations =  1.0

     total cpu time spent up to now is    11098.3 secs

     total energy              =    -585.81054658 Ry
     Harris-Foulkes estimate   =    -585.81071308 Ry
     estimated scf accuracy    <       0.00118231 Ry

     iteration #  6     ecut=    50.00 Ry     beta= 0.60
     Davidson diagonalization with overlap
     ethr =  1.91E-06,  avg # of iterations =  2.6

     total cpu time spent up to now is    11151.9 secs

     total energy              =    -585.81054579 Ry
     Harris-Foulkes estimate   =    -585.81058905 Ry
     estimated scf accuracy    <       0.00046765 Ry

     iteration #  7     ecut=    50.00 Ry     beta= 0.60
     Davidson diagonalization with overlap
     ethr =  7.54E-07,  avg # of iterations =  3.0

     total cpu time spent up to now is    11207.7 secs

     total energy              =    -585.81051990 Ry
     Harris-Foulkes estimate   =    -585.81057248 Ry
     estimated scf accuracy    <       0.00033701 Ry

     iteration #  8     ecut=    50.00 Ry     beta= 0.60
     Davidson diagonalization with overlap
     ethr =  5.44E-07,  avg # of iterations =  1.4

     total cpu time spent up to now is    11258.3 secs

     total energy              =    -585.81050980 Ry
     Harris-Foulkes estimate   =    -585.81053348 Ry
     estimated scf accuracy    <       0.00008394 Ry

     iteration #  9     ecut=    50.00 Ry     beta= 0.60
     Davidson diagonalization with overlap
     ethr =  1.35E-07,  avg # of iterations =  4.1

     total cpu time spent up to now is    11326.5 secs

     total energy              =    -585.81052920 Ry
     Harris-Foulkes estimate   =    -585.81052982 Ry
     estimated scf accuracy    <       0.00000940 Ry

     iteration # 10     ecut=    50.00 Ry     beta= 0.60
     Davidson diagonalization with overlap
     ethr =  1.52E-08,  avg # of iterations =  2.4

     total cpu time spent up to now is    11381.6 secs

     total energy              =    -585.81052972 Ry
     Harris-Foulkes estimate   =    -585.81052996 Ry
     estimated scf accuracy    <       0.00000594 Ry

     iteration # 11     ecut=    50.00 Ry     beta= 0.60
     Davidson diagonalization with overlap
     ethr =  9.59E-09,  avg # of iterations =  1.0

     total cpu time spent up to now is    11431.3 secs

     total energy              =    -585.81052935 Ry
     Harris-Foulkes estimate   =    -585.81052989 Ry
     estimated scf accuracy    <       0.00000431 Ry

     iteration # 12     ecut=    50.00 Ry     beta= 0.60
     Davidson diagonalization with overlap
     ethr =  6.95E-09,  avg # of iterations =  1.3

     total cpu time spent up to now is    11481.7 secs

     total energy              =    -585.81052949 Ry
     Harris-Foulkes estimate   =    -585.81052957 Ry
     estimated scf accuracy    <       0.00000049 Ry

     iteration # 13     ecut=    50.00 Ry     beta= 0.60
[...]
     c_bands:  1 eigenvalues not converged
     c_bands:  1 eigenvalues not converged
     c_bands:  1 eigenvalues not converged
     c_bands:  1 eigenvalues not converged
     c_bands:  1 eigenvalues not converged
     c_bands:  1 eigenvalues not converged
     c_bands:  1 eigenvalues not converged
     c_bands:  1 eigenvalues not converged
     c_bands:  3 eigenvalues not converged
     c_bands:  3 eigenvalues not converged
     c_bands:  1 eigenvalues not converged
     c_bands:  1 eigenvalues not converged
     c_bands:  1 eigenvalues not converged
     c_bands:  1 eigenvalues not converged
     c_bands:  1 eigenvalues not converged
     c_bands:  1 eigenvalues not converged
     c_bands:  1 eigenvalues not converged
     c_bands:  1 eigenvalues not converged
     c_bands:  3 eigenvalues not converged
     c_bands:  1 eigenvalues not converged
     c_bands:  1 eigenvalues not converged
     c_bands:  1 eigenvalues not converged
     c_bands:  1 eigenvalues not converged
     c_bands:  1 eigenvalues not converged
     c_bands:  3 eigenvalues not converged
     c_bands:  2 eigenvalues not converged
     c_bands:  1 eigenvalues not converged
     c_bands:  2 eigenvalues not converged
     c_bands:  2 eigenvalues not converged
     c_bands:  1 eigenvalues not converged
     c_bands:  1 eigenvalues not converged
     c_bands:  1 eigenvalues not converged
     c_bands:  1 eigenvalues not converged
     c_bands:  1 eigenvalues not converged
     c_bands:  3 eigenvalues not converged
     c_bands:  1 eigenvalues not converged
     c_bands:  1 eigenvalues not converged
     c_bands:  1 eigenvalues not converged
     c_bands:  1 eigenvalues not converged
     c_bands:  1 eigenvalues not converged
     c_bands:  1 eigenvalues not converged
     c_bands:  1 eigenvalues not converged
     c_bands:  1 eigenvalues not converged
     c_bands:  1 eigenvalues not converged
     c_bands:  1 eigenvalues not converged
     c_bands:  1 eigenvalues not converged
     c_bands:  1 eigenvalues not converged
     c_bands:  1 eigenvalues not converged
     c_bands:  1 eigenvalues not converged
     c_bands:  1 eigenvalues not converged
     c_bands:  1 eigenvalues not converged
     c_bands:  1 eigenvalues not converged
     c_bands:  2 eigenvalues not converged
     c_bands:  1 eigenvalues not converged
     c_bands:  1 eigenvalues not converged
     c_bands:  1 eigenvalues not converged
     c_bands:  2 eigenvalues not converged
     c_bands:  1 eigenvalues not converged
     c_bands:  1 eigenvalues not converged
     c_bands:  3 eigenvalues not converged
     c_bands:  3 eigenvalues not converged
     c_bands:  2 eigenvalues not converged
     c_bands:  2 eigenvalues not converged
     c_bands:  1 eigenvalues not converged
     c_bands:  1 eigenvalues not converged
     c_bands:  3 eigenvalues not converged
     c_bands:  1 eigenvalues not converged
     c_bands:  1 eigenvalues not converged
     c_bands:  2 eigenvalues not converged
     c_bands:  2 eigenvalues not converged
     c_bands:  2 eigenvalues not converged
     c_bands:  2 eigenvalues not converged
     c_bands:  1 eigenvalues not converged
     c_bands:  1 eigenvalues not converged
     c_bands:  1 eigenvalues not converged
     c_bands:  1 eigenvalues not converged
     c_bands:  1 eigenvalues not converged
     c_bands:  2 eigenvalues not converged
     c_bands:  2 eigenvalues not converged
     ethr =  1.00E-06,  avg # of iterations = 15.9

     total cpu time spent up to now is    48783.5 secs

     total energy              =    -556.10776033 Ry
     Harris-Foulkes estimate   =    -590.14552400 Ry
     estimated scf accuracy    <      42.08666161 Ry

     iteration #  2     ecut=    50.00 Ry     beta= 0.60
     Davidson diagonalization with overlap
     ethr =  1.00E-02,  avg # of iterations =  7.8

     total cpu time spent up to now is    48892.5 secs

     total energy              =    -560.41839926 Ry
     Harris-Foulkes estimate   =    -653.22719177 Ry
     estimated scf accuracy    <     333.26484027 Ry

     iteration #  3     ecut=    50.00 Ry     beta= 0.60
     Davidson diagonalization with overlap
     ethr =  1.00E-02,  avg # of iterations =  7.0

     total cpu time spent up to now is    48977.9 secs

     total energy              =    -585.57854044 Ry
     Harris-Foulkes estimate   =    -589.03209317 Ry
     estimated scf accuracy    <      31.23525468 Ry

     iteration #  4     ecut=    50.00 Ry     beta= 0.60
     Davidson diagonalization with overlap
     ethr =  1.00E-02,  avg # of iterations =  3.8

     total cpu time spent up to now is    49028.0 secs

     total energy              =    -586.18344530 Ry
     Harris-Foulkes estimate   =    -586.82097891 Ry
     estimated scf accuracy    <       6.77940624 Ry

     iteration #  5     ecut=    50.00 Ry     beta= 0.60
     Davidson diagonalization with overlap
     ethr =  1.00E-02,  avg # of iterations =  1.1

     total cpu time spent up to now is    49067.7 secs

     total energy              =    -585.84600749 Ry
     Harris-Foulkes estimate   =    -586.26553843 Ry
     estimated scf accuracy    <       4.95495701 Ry

     iteration #  6     ecut=    50.00 Ry     beta= 0.60
     Davidson diagonalization with overlap
     ethr =  7.99E-03,  avg # of iterations =  1.1

     total cpu time spent up to now is    49113.3 secs

     total energy              =    -585.40434049 Ry
     Harris-Foulkes estimate   =    -585.91104150 Ry
     estimated scf accuracy    <       3.15155278 Ry

     iteration #  7     ecut=    50.00 Ry     beta= 0.60
     Davidson diagonalization with overlap
     ethr =  5.08E-03,  avg # of iterations =  4.9

     total cpu time spent up to now is    49186.1 secs

     total energy              =    -585.93970746 Ry
     Harris-Foulkes estimate   =    -585.90945413 Ry
     estimated scf accuracy    <       1.36444830 Ry

     iteration #  8     ecut=    50.00 Ry     beta= 0.60
     Davidson diagonalization with overlap
     ethr =  2.20E-03,  avg # of iterations =  1.4

     total cpu time spent up to now is    49235.4 secs

     total energy              =    -585.65671006 Ry
     Harris-Foulkes estimate   =    -585.96613664 Ry
     estimated scf accuracy    <       2.59713528 Ry

     iteration #  9     ecut=    50.00 Ry     beta= 0.60
     Davidson diagonalization with overlap
     ethr =  2.20E-03,  avg # of iterations =  1.9

     total cpu time spent up to now is    49286.3 secs

     total energy              =    -585.82528849 Ry
     Harris-Foulkes estimate   =    -585.83155556 Ry
     estimated scf accuracy    <       0.16664987 Ry

     iteration # 10     ecut=    50.00 Ry     beta= 0.60
     Davidson diagonalization with overlap
     ethr =  2.69E-04,  avg # of iterations =  6.9

     total cpu time spent up to now is    49373.9 secs

     total energy              =    -585.86126320 Ry
     Harris-Foulkes estimate   =    -585.86956415 Ry
     estimated scf accuracy    <       0.52406832 Ry

     iteration # 11     ecut=    50.00 Ry     beta= 0.60
     Davidson diagonalization with overlap
     ethr =  2.69E-04,  avg # of iterations =  1.4

     total cpu time spent up to now is    49423.0 secs

     total energy              =    -585.83802009 Ry
     Harris-Foulkes estimate   =    -585.87114531 Ry
     estimated scf accuracy    <       0.51339904 Ry

     iteration # 12     ecut=    50.00 Ry     beta= 0.60
     Davidson diagonalization with overlap
     ethr =  2.69E-04,  avg # of iterations =  2.0

     total cpu time spent up to now is    49474.8 secs

     total energy              =    -585.82432376 Ry
     Harris-Foulkes estimate   =    -585.84721233 Ry
     estimated scf accuracy    <       0.40000025 Ry

     iteration # 13     ecut=    50.00 Ry     beta= 0.60
     Davidson diagonalization with overlap
     ethr =  2.69E-04,  avg # of iterations =  1.0

     total cpu time spent up to now is    49522.3 secs

     total energy              =    -585.81425643 Ry
     Harris-Foulkes estimate   =    -585.82765210 Ry
     estimated scf accuracy    <       0.24993218 Ry

     iteration # 14     ecut=    50.00 Ry     beta= 0.60
     Davidson diagonalization with overlap
     ethr =  2.69E-04,  avg # of iterations =  1.3

     total cpu time spent up to now is    49570.7 secs

     total energy              =    -585.80739666 Ry
     Harris-Foulkes estimate   =    -585.81754446 Ry
     estimated scf accuracy    <       0.12023653 Ry

     iteration # 15     ecut=    50.00 Ry     beta= 0.60
     Davidson diagonalization with overlap
     ethr =  1.94E-04,  avg # of iterations =  2.5

     total cpu time spent up to now is    49623.7 secs

     total energy              =    -585.80401835 Ry
     Harris-Foulkes estimate   =    -585.81161530 Ry
     estimated scf accuracy    <       0.02427588 Ry

     iteration # 16     ecut=    50.00 Ry     beta= 0.60
     Davidson diagonalization with overlap
     ethr =  3.92E-05,  avg # of iterations =  5.8

     total cpu time spent up to now is    49714.8 secs

     total energy              =    -585.80811298 Ry
     Harris-Foulkes estimate   =    -585.81985851 Ry
     estimated scf accuracy    <       0.10885541 Ry

     iteration # 17     ecut=    50.00 Ry     beta= 0.60
     Davidson diagonalization with overlap
     ethr =  3.92E-05,  avg # of iterations =  4.3

     total cpu time spent up to now is    49776.2 secs

     total energy              =    -585.81274176 Ry
     Harris-Foulkes estimate   =    -585.81311167 Ry
     estimated scf accuracy    <       0.00348277 Ry

     iteration # 18     ecut=    50.00 Ry     beta= 0.60
     Davidson diagonalization with overlap
     c_bands:  1 eigenvalues not converged
     c_bands:  1 eigenvalues not converged
     ethr =  5.62E-06,  avg # of iterations =  7.3

     total cpu time spent up to now is    49861.2 secs

     total energy              =    -585.81321365 Ry
     Harris-Foulkes estimate   =    -585.81338161 Ry
     estimated scf accuracy    <       0.00077637 Ry

     iteration # 19     ecut=    50.00 Ry     beta= 0.60
     Davidson diagonalization with overlap
     ethr =  1.25E-06,  avg # of iterations =  4.3

     total cpu time spent up to now is    49931.0 secs

     total energy              =    -585.81321098 Ry
     Harris-Foulkes estimate   =    -585.81343865 Ry
     estimated scf accuracy    <       0.00193700 Ry

     iteration # 20     ecut=    50.00 Ry     beta= 0.60
     Davidson diagonalization with overlap
     ethr =  1.25E-06,  avg # of iterations =  2.9

     total cpu time spent up to now is    49986.4 secs

     total energy              =    -585.81331348 Ry
     Harris-Foulkes estimate   =    -585.81332823 Ry
     estimated scf accuracy    <       0.00014204 Ry

     iteration # 21     ecut=    50.00 Ry     beta= 0.60
     Davidson diagonalization with overlap
     ethr =  2.29E-07,  avg # of iterations =  3.9

     total cpu time spent up to now is    50051.3 secs

     total energy              =    -585.81332875 Ry
     Harris-Foulkes estimate   =    -585.81333464 Ry
     estimated scf accuracy    <       0.00004872 Ry

     iteration # 22     ecut=    50.00 Ry     beta= 0.60
     Davidson diagonalization with overlap
     ethr =  7.86E-08,  avg # of iterations =  1.8

     total cpu time spent up to now is    50101.4 secs

     total energy              =    -585.81333088 Ry
     Harris-Foulkes estimate   =    -585.81333139 Ry
     estimated scf accuracy    <       0.00000377 Ry

     iteration # 23     ecut=    50.00 Ry     beta= 0.60
     Davidson diagonalization with overlap
     ethr =  6.07E-09,  avg # of iterations =  4.4

     total cpu time spent up to now is    50174.8 secs

     total energy              =    -585.81333196 Ry
     Harris-Foulkes estimate   =    -585.81333217 Ry
     estimated scf accuracy    <       0.00000160 Ry

     iteration # 24     ecut=    50.00 Ry     beta= 0.60
     Davidson diagonalization with overlap
     ethr =  2.58E-09,  avg # of iterations =  1.3

     total cpu time spent up to now is    50224.1 secs

     total energy              =    -585.81333200 Ry
     Harris-Foulkes estimate   =    -585.81333206 Ry
     estimated scf accuracy    <       0.00000040 Ry

     iteration # 25     ecut=    50.00 Ry     beta= 0.60
     Davidson diagonalization with overlap
     ethr =  6.52E-10,  avg # of iterations =  3.5

     total cpu time spent up to now is    50287.8 secs

     total energy              =    -585.81333206 Ry
     Harris-Foulkes estimate   =    -585.81333207 Ry
     estimated scf accuracy    <       0.00000015 Ry

     iteration # 26     ecut=    50.00 Ry     beta= 0.60
     Davidson diagonalization with overlap
     ethr =  2.41E-10,  avg # of iterations =  1.1

     total cpu time spent up to now is    50335.6 secs

     total energy              =    -585.81333206 Ry
     Harris-Foulkes estimate   =    -585.81333206 Ry
     estimated scf accuracy    <          7.5E-09 Ry

     iteration # 27     ecut=    50.00 Ry     beta= 0.60
     Davidson diagonalization with overlap
     ethr =  1.22E-11,  avg # of iterations =  4.6

     total cpu time spent up to now is    50412.2 secs

     total energy              =    -585.81333207 Ry
     Harris-Foulkes estimate   =    -585.81333207 Ry
     estimated scf accuracy    <          7.3E-09 Ry

     iteration # 28     ecut=    50.00 Ry     beta= 0.60
     Davidson diagonalization with overlap
     ethr =  1.18E-11,  avg # of iterations =  1.0

     total cpu time spent up to now is    50459.7 secs

     total energy              =    -585.81333207 Ry
     Harris-Foulkes estimate   =    -585.81333207 Ry
     estimated scf accuracy    <          2.1E-09 Ry

     iteration # 29     ecut=    50.00 Ry     beta= 0.60
     Davidson diagonalization with overlap
     ethr =  3.40E-12,  avg # of iterations =  3.6

     total cpu time spent up to now is    50519.9 secs

     total energy              =    -585.81333207 Ry
     Harris-Foulkes estimate   =    -585.81333207 Ry
     estimated scf accuracy    <          2.4E-10 Ry

     iteration # 30     ecut=    50.00 Ry     beta= 0.60
     Davidson diagonalization with overlap
     ethr =  3.89E-13,  avg # of iterations =  3.4

     total cpu time spent up to now is    50582.8 secs

     total energy              =    -585.81333207 Ry
     Harris-Foulkes estimate   =    -585.81333207 Ry
     estimated scf accuracy    <          1.7E-10 Ry

     iteration # 31     ecut=    50.00 Ry     beta= 0.60
     Davidson diagonalization with overlap
     ethr =  2.73E-13,  avg # of iterations =  1.5

     total cpu time spent up to now is    50631.0 secs

     total energy              =    -585.81333207 Ry
     Harris-Foulkes estimate   =    -585.81333207 Ry
     estimated scf accuracy    <          9.1E-12 Ry

     iteration # 32     ecut=    50.00 Ry     beta= 0.60
     Davidson diagonalization with overlap
     ethr =  1.00E-13,  avg # of iterations =  2.9

     total cpu time spent up to now is    50675.4 secs

     total energy              =    -585.81333207 Ry
     Harris-Foulkes estimate   =    -585.81333207 Ry
     estimated scf accuracy    <          3.5E-12 Ry

     iteration # 33     ecut=    50.00 Ry     beta= 0.60
     Davidson diagonalization with overlap
     ethr =  1.00E-13,  avg # of iterations =  1.0

     total cpu time spent up to now is    50714.9 secs

     total energy              =    -585.81333207 Ry
     Harris-Foulkes estimate   =    -585.81333207 Ry
     estimated scf accuracy    <          1.6E-12 Ry

     iteration # 34     ecut=    50.00 Ry     beta= 0.60
     Davidson diagonalization with overlap
     ethr =  1.00E-13,  avg # of iterations =  1.0

     total cpu time spent up to now is    50754.3 secs

     End of self-consistent calculation

     Number of k-points >= 100: set verbosity='high' to print the bands.

     the Fermi energy is    15.1705 ev

!    total energy              =    -585.81333207 Ry
     Harris-Foulkes estimate   =    -585.81333207 Ry
     estimated scf accuracy    <          6.5E-13 Ry

     The total energy is the sum of the following terms:

     one-electron contribution =    -157.46901247 Ry
     hartree contribution      =     103.73844587 Ry
     xc contribution           =     -80.49864417 Ry
     ewald contribution        =    -451.58396717 Ry
     smearing contrib. (-TS)   =      -0.00015412 Ry

     convergence has been achieved in  34 iterations

     Forces acting on atoms (cartesian axes, Ry/au):

     atom    1 type  2   force =     0.00000662    0.00000662    0.00001762
     atom    2 type  2   force =    -0.00000681   -0.00000681   -0.00001816
     atom    3 type  1   force =    -0.00000906   -0.00000906   -0.00001259
     atom    4 type  2   force =    -0.00000080   -0.00000080   -0.00000143
     atom    5 type  1   force =     0.00001005    0.00001005    0.00001457

     Total force =     0.000040     Total SCF correction =     0.000003


     Computing stress (Cartesian axis) and pressure

          total   stress  (Ry/bohr**3)                   (kbar)     P=   -0.64
  -0.00000379  -0.00000002   0.00000021         -0.56     -0.00      0.03
  -0.00000002  -0.00000379   0.00000021         -0.00     -0.56      0.03
   0.00000021   0.00000021  -0.00000544          0.03      0.03     -0.80

 
     init_run     :     53.09s CPU     53.95s WALL (       2 calls)
     electrons    :  49181.65s CPU  49847.75s WALL (      36 calls)
     update_pot   :     63.93s CPU     64.29s WALL (      34 calls)
     forces       :    204.89s CPU    209.87s WALL (      36 calls)
     stress       :    563.07s CPU    576.75s WALL (      36 calls)

     Called by init_run:
     wfcinit      :     49.93s CPU     50.61s WALL (       2 calls)
     potinit      :      0.94s CPU      0.97s WALL (       2 calls)
     hinit0       :      1.71s CPU      1.73s WALL (       2 calls)

     Called by electrons:
     c_bands      :  42433.34s CPU  42876.32s WALL (     697 calls)
     sum_band     :   6499.76s CPU   6637.69s WALL (     697 calls)
     v_of_rho     :     59.86s CPU     60.43s WALL (     722 calls)
     newd         :    188.85s CPU    273.21s WALL (     722 calls)
     mix_rho      :      6.92s CPU      6.97s WALL (     697 calls)

     Called by c_bands:
     init_us_2    :    619.41s CPU    623.28s WALL (  734000 calls)
     cegterg      :  39140.31s CPU  39510.47s WALL (  348500 calls)

     Called by sum_band:
     sum_band:bec :     14.31s CPU     14.36s WALL (  348500 calls)
     addusdens    :    218.74s CPU    293.64s WALL (     697 calls)

     Called by *egterg:
     h_psi        :  29063.71s CPU  29385.50s WALL ( 1485024 calls)
     s_psi        :   1227.03s CPU   1231.54s WALL ( 1485024 calls)
     g_psi        :    183.55s CPU    186.87s WALL ( 1135524 calls)
     cdiaghg      :   4133.20s CPU   4144.79s WALL ( 1461524 calls)

     Called by h_psi:
     h_psi:pot    :  28954.73s CPU  29273.23s WALL ( 1485024 calls)
     h_psi:calbec :   1205.34s CPU   1215.08s WALL ( 1485024 calls)
     vloc_psi     :  26481.55s CPU  26783.95s WALL ( 1485024 calls)
     add_vuspsi   :   1260.38s CPU   1264.81s WALL ( 1485024 calls)

     General routines
     calbec       :   1707.46s CPU   1719.11s WALL ( 1923524 calls)
     fft          :     40.20s CPU     40.84s WALL (   10295 calls)
     ffts         :      0.98s CPU      0.97s WALL (    1419 calls)
     fftw         :  27640.43s CPU  27894.93s WALL (79957260 calls)
     interpolate  :      3.82s CPU      3.84s WALL (     722 calls)
 
     Parallel routines
     fft_scatt_xy :   4521.56s CPU   4612.15s WALL (79968974 calls)
     fft_scatt_yz :   4890.02s CPU   4940.20s WALL (79968974 calls)
 
     PWSCF        :    13h54m CPU       54h14m WALL

       6h
 
   This run was terminated on:   2:52:12   2Feb2020            

=------------------------------------------------------------------------------=
   JOB DONE.
=------------------------------------------------------------------------------=
