
     Program PWSCF v.6.3MaX starts on 27Jan2020 at  9:10: 0 

     This program is part of the open-source Quantum ESPRESSO suite
     for quantum simulation of materials; please cite
         "P. Giannozzi et al., J. Phys.:Condens. Matter 21 395502 (2009);
         "P. Giannozzi et al., J. Phys.:Condens. Matter 29 465901 (2017);
          URL http://www.quantum-espresso.org", 
     in publications or presentations arising from this work. More details at
     http://www.quantum-espresso.org/quote

     Parallel version (MPI), running on     4 processors

     MPI processes distributed on     1 nodes
     R & G space division:  proc/nbgrp/npool/nimage =       4
     Waiting for input...
     Reading input from standard input

     Current dimensions of program PWSCF are:
     Max number of different atomic species (ntypx) = 10
     Max number of k-points (npk) =  40000
     Max angular momentum in pseudopotentials (lmaxx) =  3
     Message from routine iosys:
     minimal I/O required, wf_collect reset to FALSE

     Subspace diagonalization in iterative solution of the eigenvalue problem:
     a serial algorithm will be used

 
     Parallelization info
     --------------------
     sticks:   dense  smooth     PW     G-vecs:    dense   smooth      PW
     Min         681     274     78                27327     6928    1090
     Max         682     275     79                27332     6929    1095
     Sum        2725    1099    313               109319    27715    4365
 


     bravais-lattice index     =            0
     lattice parameter (alat)  =       1.8897  a.u.
     unit-cell volume          =     808.3427 (a.u.)^3
     number of atoms/cell      =            6
     number of atomic types    =            2
     number of electrons       =        77.00
     number of Kohn-Sham states=           47
     kinetic-energy cutoff     =      40.0000  Ry
     charge density cutoff     =     400.0000  Ry
     convergence threshold     =      1.0E-10
     mixing beta               =       0.6000
     number of iterations used =            8  plain     mixing
     Exchange-correlation      = SLA PW PBE PBE ( 1  4  3  4 0 0)
     nstep                     =           50


     celldm(1)=   1.889726  celldm(2)=   0.000000  celldm(3)=   0.000000
     celldm(4)=   0.000000  celldm(5)=   0.000000  celldm(6)=   0.000000

     crystal axes: (cart. coord. in units of alat)
               a(1) = (   4.567506  -2.637051   0.000000 )  
               a(2) = (  -4.567506  -2.637051   0.000000 )  
               a(3) = (   0.000000   0.000000  -4.972461 )  

     reciprocal axes: (cart. coord. in units 2 pi/alat)
               b(1) = (  0.109469 -0.189606  0.000000 )  
               b(2) = ( -0.109469 -0.189606  0.000000 )  
               b(3) = (  0.000000  0.000000 -0.201108 )  


     PseudoPot. # 1 for Nb read from file:
     ./Nb.pbe-nsp-van.UPF
     MD5 check sum: 0a22fc7fb0ba19a08ca5db297a5d2854
     Pseudo is Ultrasoft + core correction, Zval = 13.0
     Generated by new atomic code, or converted to UPF format
     Using radial grid of  887 points,  6 beta functions with: 
                l(1) =   0
                l(2) =   0
                l(3) =   1
                l(4) =   1
                l(5) =   2
                l(6) =   2
     Q(r) pseudized with  6 coefficients,  rinner =    1.000   1.000   1.000
                                                       1.000   1.000

     PseudoPot. # 2 for Ti read from file:
     ./Ti.pbe-sp-van_ak.UPF
     MD5 check sum: f98fea3e8887528921fefa5636a534ca
     Pseudo is Ultrasoft, Zval = 12.0
     Generated by new atomic code, or converted to UPF format
     Using radial grid of  851 points,  6 beta functions with: 
                l(1) =   0
                l(2) =   0
                l(3) =   1
                l(4) =   1
                l(5) =   2
                l(6) =   2
     Q(r) pseudized with  8 coefficients,  rinner =    1.000   1.000   1.000
                                                       1.000   1.000

     atomic species   valence    mass     pseudopotential
        Nb            13.00    92.90638     Nb( 1.00)
        Ti            12.00    47.86700     Ti( 1.00)

     12 Sym. Ops. (no inversion) found



   Cartesian axes

     site n.     atom                  positions (alat units)
         1           Ti  tau(   1) = (   0.0000000  -5.2741024  -4.9724614  )
         2           Nb  tau(   2) = (   0.0000015  -1.7580350  -2.4862307  )
         3           Nb  tau(   3) = (  -1.5225021  -2.6370512  -4.9724614  )
         4           Nb  tau(   4) = (  -1.5225006  -4.3950862  -2.4862307  )
         5           Nb  tau(   5) = (   1.5225021  -2.6370512  -4.9724614  )
         6           Nb  tau(   6) = (   1.5225036  -4.3950862  -2.4862307  )

     number of k points=   112  Marzari-Vanderbilt smearing, width (Ry)=  0.0200

     Number of k-points >= 100: set verbosity='high' to print them.

     Dense  grid:   109319 G-vectors     FFT dimensions: (  64,  64,  60)

     Smooth grid:    27715 G-vectors     FFT dimensions: (  45,  45,  40)

     Estimated max dynamical RAM per process >     174.03 MB

     Estimated total dynamical RAM >     696.11 MB

     Check: negative/imaginary core charge=   -0.000001    0.000000

     Initial potential from superposition of free atoms

     starting charge   75.98629, renormalised to   77.00000
     Starting wfcs are   75 randomized atomic wfcs

     total cpu time spent up to now is        8.7 secs

     Self-consistent Calculation

     iteration #  1     ecut=    40.00 Ry     beta= 0.60
     Davidson diagonalization with overlap
     ethr =  1.00E-02,  avg # of iterations =  2.0

     total cpu time spent up to now is       21.3 secs

     total energy              =    -686.72910777 Ry
     Harris-Foulkes estimate   =    -708.32173569 Ry
     estimated scf accuracy    <      27.06092443 Ry

     iteration #  2     ecut=    40.00 Ry     beta= 0.60
     Davidson diagonalization with overlap
     ethr =  1.00E-02,  avg # of iterations =  5.8

     total cpu time spent up to now is       44.6 secs

     total energy              =    -693.44207152 Ry
     Harris-Foulkes estimate   =    -734.74068303 Ry
     estimated scf accuracy    <     128.19965993 Ry

     iteration #  3     ecut=    40.00 Ry     beta= 0.60
     Davidson diagonalization with overlap
     ethr =  1.00E-02,  avg # of iterations =  5.2

     total cpu time spent up to now is       65.7 secs

     total energy              =    -705.62299301 Ry
     Harris-Foulkes estimate   =    -712.91419115 Ry
     estimated scf accuracy    <      42.03663141 Ry

     iteration #  4     ecut=    40.00 Ry     beta= 0.60
     Davidson diagonalization with overlap
     ethr =  1.00E-02,  avg # of iterations =  2.4

     total cpu time spent up to now is       78.0 secs

     total energy              =    -707.74078812 Ry
     Harris-Foulkes estimate   =    -708.04438446 Ry
     estimated scf accuracy    <       5.85072908 Ry

     iteration #  5     ecut=    40.00 Ry     beta= 0.60
     Davidson diagonalization with overlap
     ethr =  7.60E-03,  avg # of iterations =  1.1

     total cpu time spent up to now is       88.7 secs

     total energy              =    -706.31086304 Ry
     Harris-Foulkes estimate   =    -707.77970831 Ry
     estimated scf accuracy    <       5.23322826 Ry

     iteration #  6     ecut=    40.00 Ry     beta= 0.60
     Davidson diagonalization with overlap
     ethr =  6.80E-03,  avg # of iterations =  1.2

     total cpu time spent up to now is       99.6 secs

     total energy              =    -706.22517959 Ry
     Harris-Foulkes estimate   =    -706.45816645 Ry
     estimated scf accuracy    <       2.24217071 Ry

     iteration #  7     ecut=    40.00 Ry     beta= 0.60
     Davidson diagonalization with overlap
     ethr =  2.91E-03,  avg # of iterations =  2.6

     total cpu time spent up to now is      111.4 secs

     total energy              =    -706.27940853 Ry
     Harris-Foulkes estimate   =    -706.28645794 Ry
     estimated scf accuracy    <       1.42528777 Ry

     iteration #  8     ecut=    40.00 Ry     beta= 0.60
     Davidson diagonalization with overlap
     ethr =  1.85E-03,  avg # of iterations =  2.8

     total cpu time spent up to now is      123.3 secs

     total energy              =    -706.30882910 Ry
     Harris-Foulkes estimate   =    -706.29852510 Ry
     estimated scf accuracy    <       1.25716224 Ry

     iteration #  9     ecut=    40.00 Ry     beta= 0.60
     Davidson diagonalization with overlap
     ethr =  1.63E-03,  avg # of iterations =  1.2

     total cpu time spent up to now is      134.0 secs

     total energy              =    -705.93829506 Ry
     Harris-Foulkes estimate   =    -706.31569473 Ry
     estimated scf accuracy    <       1.23705992 Ry

     iteration # 10     ecut=    40.00 Ry     beta= 0.60
     Davidson diagonalization with overlap
     ethr =  1.61E-03,  avg # of iterations =  4.8

     total cpu time spent up to now is      151.4 secs

     total energy              =    -706.07413968 Ry
     Harris-Foulkes estimate   =    -706.24759458 Ry
     estimated scf accuracy    <       1.79715632 Ry

     iteration # 11     ecut=    40.00 Ry     beta= 0.60
     Davidson diagonalization with overlap
     ethr =  1.61E-03,  avg # of iterations =  1.1

     total cpu time spent up to now is      161.9 secs

     total energy              =    -706.14801130 Ry
     Harris-Foulkes estimate   =    -706.15044180 Ry
     estimated scf accuracy    <       0.03344974 Ry

     iteration # 12     ecut=    40.00 Ry     beta= 0.60
     Davidson diagonalization with overlap
     ethr =  4.34E-05,  avg # of iterations =  5.7

     total cpu time spent up to now is      182.2 secs

     total energy              =    -706.16449481 Ry
     Harris-Foulkes estimate   =    -706.16400566 Ry
     estimated scf accuracy    <       0.01410447 Ry

     iteration # 13     ecut=    40.00 Ry     beta= 0.60
     Davidson diagonalization with overlap
     ethr =  1.83E-05,  avg # of iterations =  2.9

     total cpu time spent up to now is      195.4 secs

     total energy              =    -706.16319218 Ry
     Harris-Foulkes estimate   =    -706.16600387 Ry
     estimated scf accuracy    <       0.02466721 Ry

     iteration # 14     ecut=    40.00 Ry     beta= 0.60
     Davidson diagonalization with overlap
     ethr =  1.83E-05,  avg # of iterations =  5.9

     total cpu time spent up to now is      216.6 secs

     total energy              =    -706.19016725 Ry
     Harris-Foulkes estimate   =    -706.18603520 Ry
     estimated scf accuracy    <       0.41464872 Ry

     iteration # 15     ecut=    40.00 Ry     beta= 0.60
     Davidson diagonalization with overlap
     ethr =  1.83E-05,  avg # of iterations =  3.9

     total cpu time spent up to now is      231.6 secs

     total energy              =    -706.14985015 Ry
     Harris-Foulkes estimate   =    -706.19558199 Ry
     estimated scf accuracy    <       0.66993000 Ry

     iteration # 16     ecut=    40.00 Ry     beta= 0.60
     Davidson diagonalization with overlap
     ethr =  1.83E-05,  avg # of iterations =  5.6

     total cpu time spent up to now is      251.4 secs

     total energy              =    -706.15923744 Ry
     Harris-Foulkes estimate   =    -706.16635145 Ry
     estimated scf accuracy    <       0.05906159 Ry

     iteration # 17     ecut=    40.00 Ry     beta= 0.60
     Davidson diagonalization with overlap
     ethr =  1.83E-05,  avg # of iterations =  4.1

     total cpu time spent up to now is      265.4 secs

     total energy              =    -706.16258711 Ry
     Harris-Foulkes estimate   =    -706.16259772 Ry
     estimated scf accuracy    <       0.00008325 Ry

     iteration # 18     ecut=    40.00 Ry     beta= 0.60
     Davidson diagonalization with overlap
     ethr =  1.08E-07,  avg # of iterations =  5.7

     total cpu time spent up to now is      284.1 secs

     total energy              =    -706.16263091 Ry
     Harris-Foulkes estimate   =    -706.16264573 Ry
     estimated scf accuracy    <       0.00013379 Ry

     iteration # 19     ecut=    40.00 Ry     beta= 0.60
     Davidson diagonalization with overlap
     ethr =  1.08E-07,  avg # of iterations =  1.2

     total cpu time spent up to now is      294.7 secs

     total energy              =    -706.16263473 Ry
     Harris-Foulkes estimate   =    -706.16263609 Ry
     estimated scf accuracy    <       0.00001032 Ry

     iteration # 20     ecut=    40.00 Ry     beta= 0.60
     Davidson diagonalization with overlap
     ethr =  1.34E-08,  avg # of iterations =  4.7

     total cpu time spent up to now is      311.1 secs

     total energy              =    -706.16263762 Ry
     Harris-Foulkes estimate   =    -706.16263795 Ry
     estimated scf accuracy    <       0.00000526 Ry

     iteration # 21     ecut=    40.00 Ry     beta= 0.60
     Davidson diagonalization with overlap
     ethr =  6.83E-09,  avg # of iterations =  1.0

     total cpu time spent up to now is      321.6 secs

     total energy              =    -706.16263753 Ry
     Harris-Foulkes estimate   =    -706.16263769 Ry
     estimated scf accuracy    <       0.00000179 Ry

     iteration # 22     ecut=    40.00 Ry     beta= 0.60
     Davidson diagonalization with overlap
     ethr =  2.32E-09,  avg # of iterations =  2.9

     total cpu time spent up to now is      333.7 secs

     total energy              =    -706.16263759 Ry
     Harris-Foulkes estimate   =    -706.16263760 Ry
     estimated scf accuracy    <       0.00000012 Ry

     iteration # 23     ecut=    40.00 Ry     beta= 0.60
     Davidson diagonalization with overlap
     ethr =  1.58E-10,  avg # of iterations =  4.1

     total cpu time spent up to now is      348.6 secs

     total energy              =    -706.16263761 Ry
     Harris-Foulkes estimate   =    -706.16263761 Ry
     estimated scf accuracy    <          1.4E-09 Ry

     iteration # 24     ecut=    40.00 Ry     beta= 0.60
     Davidson diagonalization with overlap
     ethr =  1.81E-12,  avg # of iterations =  4.6

     total cpu time spent up to now is      365.1 secs

     total energy              =    -706.16263761 Ry
     Harris-Foulkes estimate   =    -706.16263761 Ry
     estimated scf accuracy    <          7.7E-10 Ry

     iteration # 25     ecut=    40.00 Ry     beta= 0.60
     Davidson diagonalization with overlap
     ethr =  9.94E-13,  avg # of iterations =  1.0

     total cpu time spent up to now is      375.6 secs

     total energy              =    -706.16263761 Ry
     Harris-Foulkes estimate   =    -706.16263761 Ry
     estimated scf accuracy    <          6.3E-10 Ry

     iteration # 26     ecut=    40.00 Ry     beta= 0.60
     Davidson diagonalization with overlap
     ethr =  8.20E-13,  avg # of iterations =  2.7

     total cpu time spent up to now is      387.4 secs

     End of self-consistent calculation

     Number of k-points >= 100: set verbosity='high' to print the bands.

     the Fermi energy is    15.4868 ev

!    total energy              =    -706.16263761 Ry
     Harris-Foulkes estimate   =    -706.16263761 Ry
     estimated scf accuracy    <          3.2E-12 Ry

     The total energy is the sum of the following terms:

     one-electron contribution =    -150.57138163 Ry
     hartree contribution      =     107.42869618 Ry
     xc contribution           =    -106.08392311 Ry
     ewald contribution        =    -556.93447678 Ry
     smearing contrib. (-TS)   =      -0.00155227 Ry

     convergence has been achieved in  26 iterations

     Forces acting on atoms (cartesian axes, Ry/au):

     atom    1 type  2   force =     0.00000000    0.00000000    0.00000000
     atom    2 type  1   force =     0.00000000    0.00118970    0.00000000
     atom    3 type  1   force =     0.00000000   -0.00000000    0.00000000
     atom    4 type  1   force =     0.00103031   -0.00059485    0.00000000
     atom    5 type  1   force =     0.00000000    0.00000000    0.00000000
     atom    6 type  1   force =    -0.00103031   -0.00059485    0.00000000

     Total force =     0.002061     Total SCF correction =     0.000002


     Computing stress (Cartesian axis) and pressure

          total   stress  (Ry/bohr**3)                   (kbar)     P= -111.08
  -0.00088729   0.00000000  -0.00000000       -130.52      0.00     -0.00
   0.00000000  -0.00088729   0.00000000          0.00   -130.52      0.00
   0.00000000   0.00000000  -0.00049078          0.00      0.00    -72.20


     BFGS Geometry Optimization

     number of scf cycles    =   1
     number of bfgs steps    =   0

     enthalpy new            =    -706.1626376138 Ry

     new trust radius        =       0.1261338412 bohr
     new conv_thr            =            1.0E-10 Ry

     new unit-cell volume =    763.39609 a.u.^3 (   113.12363 Ang^3 )
     density =      7.52149 g/cm^3

CELL_PARAMETERS (alat=  1.88972599)
   4.466188845  -2.578555517   0.000000000
  -4.466188845  -2.578555517   0.000000000
   0.000000000  -0.000000000  -4.911451480

ATOMIC_POSITIONS (angstrom)
Ti       0.000000000  -5.157111035  -4.911451480
Nb       0.000001489  -1.718422272  -2.455725740
Nb      -1.488729615  -2.578555517  -4.911451480
Nb      -1.488195001  -4.297901188  -2.455725740
Nb       1.488729615  -2.578555517  -4.911451480
Nb       1.488197979  -4.297901188  -2.455725740


     NEW-OLD atomic charge density approx. for the potential

     Check: negative/imaginary core charge=   -0.000001    0.000000
     extrapolated charge   72.52614, renormalised to   77.00000

     total cpu time spent up to now is      396.2 secs

     Self-consistent Calculation

     iteration #  1     ecut=    40.00 Ry     beta= 0.60
     Davidson diagonalization with overlap
     c_bands:  1 eigenvalues not converged
     c_bands:  1 eigenvalues not converged
     c_bands:  1 eigenvalues not converged
     c_bands:  1 eigenvalues not converged
     c_bands:  1 eigenvalues not converged
     c_bands:  1 eigenvalues not converged
     c_bands:  1 eigenvalues not converged
     c_bands:  1 eigenvalues not converged
     c_bands:  1 eigenvalues not converged
     c_bands:  1 eigenvalues not converged
     c_bands:  1 eigenvalues not converged
     c_bands:  1 eigenvalues not converged
     c_bands:  1 eigenvalues not converged
     c_bands:  1 eigenvalues not converged
     c_bands:  1 eigenvalues not converged
     c_bands:  1 eigenvalues not converged
     c_bands:  1 eigenvalues not converged
     c_bands:  1 eigenvalues not converged
     ethr =  1.00E-06,  avg # of iterations = 14.3

     total cpu time spent up to now is      438.3 secs

     total energy              =    -702.08357544 Ry
     Harris-Foulkes estimate   =    -711.87678774 Ry
     estimated scf accuracy    <       4.39569159 Ry

     iteration #  2     ecut=    40.00 Ry     beta= 0.60
     Davidson diagonalization with overlap
     ethr =  5.71E-03,  avg # of iterations =  5.3

     total cpu time spent up to now is      456.7 secs

     total energy              =    -706.44602034 Ry
     Harris-Foulkes estimate   =    -711.28056086 Ry
     estimated scf accuracy    <      13.30009234 Ry

     iteration #  3     ecut=    40.00 Ry     beta= 0.60
     Davidson diagonalization with overlap
     ethr =  5.71E-03,  avg # of iterations =  2.3

     total cpu time spent up to now is      469.5 secs

     total energy              =    -706.62559360 Ry
     Harris-Foulkes estimate   =    -707.29121603 Ry
     estimated scf accuracy    <       4.26468261 Ry

     iteration #  4     ecut=    40.00 Ry     beta= 0.60
     Davidson diagonalization with overlap
     ethr =  5.54E-03,  avg # of iterations =  1.0

     total cpu time spent up to now is      480.1 secs

     total energy              =    -706.18787102 Ry
     Harris-Foulkes estimate   =    -706.85517676 Ry
     estimated scf accuracy    <       3.31200257 Ry

     iteration #  5     ecut=    40.00 Ry     beta= 0.60
     Davidson diagonalization with overlap
     ethr =  4.30E-03,  avg # of iterations =  1.7

     total cpu time spent up to now is      491.2 secs

     total energy              =    -705.96602177 Ry
     Harris-Foulkes estimate   =    -706.29980870 Ry
     estimated scf accuracy    <       1.44264835 Ry

     iteration #  6     ecut=    40.00 Ry     beta= 0.60
     Davidson diagonalization with overlap
     ethr =  1.87E-03,  avg # of iterations =  4.5

     total cpu time spent up to now is      507.7 secs

     total energy              =    -706.10461808 Ry
     Harris-Foulkes estimate   =    -706.23477879 Ry
     estimated scf accuracy    <       0.44180540 Ry

     iteration #  7     ecut=    40.00 Ry     beta= 0.60
     Davidson diagonalization with overlap
     ethr =  5.74E-04,  avg # of iterations =  5.1

     total cpu time spent up to now is      523.8 secs

     total energy              =    -706.30640363 Ry
     Harris-Foulkes estimate   =    -706.31465862 Ry
     estimated scf accuracy    <       0.82255663 Ry

     iteration #  8     ecut=    40.00 Ry     beta= 0.60
     Davidson diagonalization with overlap
     ethr =  5.74E-04,  avg # of iterations =  1.0

     total cpu time spent up to now is      534.3 secs

     total energy              =    -706.31344881 Ry
     Harris-Foulkes estimate   =    -706.30679811 Ry
     estimated scf accuracy    <       0.79254187 Ry

     iteration #  9     ecut=    40.00 Ry     beta= 0.60
     Davidson diagonalization with overlap
     ethr =  5.74E-04,  avg # of iterations =  1.0

     total cpu time spent up to now is      544.9 secs

     total energy              =    -706.22798261 Ry
     Harris-Foulkes estimate   =    -706.31356032 Ry
     estimated scf accuracy    <       0.81383749 Ry

     iteration # 10     ecut=    40.00 Ry     beta= 0.60
     Davidson diagonalization with overlap
     ethr =  5.74E-04,  avg # of iterations =  1.0

     total cpu time spent up to now is      555.5 secs

     total energy              =    -706.08773810 Ry
     Harris-Foulkes estimate   =    -706.23356229 Ry
     estimated scf accuracy    <       0.52514655 Ry

     iteration # 11     ecut=    40.00 Ry     beta= 0.60
     Davidson diagonalization with overlap
     ethr =  5.74E-04,  avg # of iterations =  4.7

     total cpu time spent up to now is      573.0 secs

     total energy              =    -706.20786122 Ry
     Harris-Foulkes estimate   =    -706.21937580 Ry
     estimated scf accuracy    <       0.56147537 Ry

     iteration # 12     ecut=    40.00 Ry     beta= 0.60
     Davidson diagonalization with overlap
     ethr =  5.74E-04,  avg # of iterations =  1.0

     total cpu time spent up to now is      583.6 secs

     total energy              =    -706.19949529 Ry
     Harris-Foulkes estimate   =    -706.20895706 Ry
     estimated scf accuracy    <       0.40158249 Ry

     iteration # 13     ecut=    40.00 Ry     beta= 0.60
     Davidson diagonalization with overlap
     ethr =  5.22E-04,  avg # of iterations =  1.0

     total cpu time spent up to now is      594.1 secs

     total energy              =    -706.19609010 Ry
     Harris-Foulkes estimate   =    -706.20089361 Ry
     estimated scf accuracy    <       0.24196063 Ry

     iteration # 14     ecut=    40.00 Ry     beta= 0.60
     Davidson diagonalization with overlap
     ethr =  3.14E-04,  avg # of iterations =  1.0

     total cpu time spent up to now is      604.6 secs

     total energy              =    -706.19182825 Ry
     Harris-Foulkes estimate   =    -706.19665106 Ry
     estimated scf accuracy    <       0.16970074 Ry

     iteration # 15     ecut=    40.00 Ry     beta= 0.60
     Davidson diagonalization with overlap
     ethr =  2.20E-04,  avg # of iterations =  1.0

     total cpu time spent up to now is      615.2 secs

     total energy              =    -706.18506768 Ry
     Harris-Foulkes estimate   =    -706.19283011 Ry
     estimated scf accuracy    <       0.09343930 Ry

     iteration # 16     ecut=    40.00 Ry     beta= 0.60
     Davidson diagonalization with overlap
     ethr =  1.21E-04,  avg # of iterations =  1.8

     total cpu time spent up to now is      626.3 secs

     total energy              =    -706.18460272 Ry
     Harris-Foulkes estimate   =    -706.18746629 Ry
     estimated scf accuracy    <       0.01742326 Ry

     iteration # 17     ecut=    40.00 Ry     beta= 0.60
     Davidson diagonalization with overlap
     ethr =  2.26E-05,  avg # of iterations =  5.8

     total cpu time spent up to now is      644.2 secs

     total energy              =    -706.18868554 Ry
     Harris-Foulkes estimate   =    -706.18900181 Ry
     estimated scf accuracy    <       0.00816107 Ry

     iteration # 18     ecut=    40.00 Ry     beta= 0.60
     Davidson diagonalization with overlap
     ethr =  1.06E-05,  avg # of iterations =  1.0

     total cpu time spent up to now is      654.7 secs

     total energy              =    -706.18831992 Ry
     Harris-Foulkes estimate   =    -706.18872923 Ry
     estimated scf accuracy    <       0.00548519 Ry

     iteration # 19     ecut=    40.00 Ry     beta= 0.60
     Davidson diagonalization with overlap
     ethr =  7.12E-06,  avg # of iterations =  1.1

     total cpu time spent up to now is      665.3 secs

     total energy              =    -706.18834640 Ry
     Harris-Foulkes estimate   =    -706.18843500 Ry
     estimated scf accuracy    <       0.00135322 Ry

     iteration # 20     ecut=    40.00 Ry     beta= 0.60
     Davidson diagonalization with overlap
     ethr =  1.76E-06,  avg # of iterations =  3.9

     total cpu time spent up to now is      678.8 secs

     total energy              =    -706.18838100 Ry
     Harris-Foulkes estimate   =    -706.18840926 Ry
     estimated scf accuracy    <       0.00023078 Ry

     iteration # 21     ecut=    40.00 Ry     beta= 0.60
     Davidson diagonalization with overlap
     ethr =  3.00E-07,  avg # of iterations =  3.5

     total cpu time spent up to now is      691.9 secs

     total energy              =    -706.18839854 Ry
     Harris-Foulkes estimate   =    -706.18839971 Ry
     estimated scf accuracy    <       0.00001148 Ry

     iteration # 22     ecut=    40.00 Ry     beta= 0.60
     Davidson diagonalization with overlap
     ethr =  1.49E-08,  avg # of iterations =  4.8

     total cpu time spent up to now is      707.8 secs

     total energy              =    -706.18840192 Ry
     Harris-Foulkes estimate   =    -706.18840206 Ry
     estimated scf accuracy    <       0.00000038 Ry

     iteration # 23     ecut=    40.00 Ry     beta= 0.60
     Davidson diagonalization with overlap
     ethr =  4.93E-10,  avg # of iterations =  4.7

     total cpu time spent up to now is      724.9 secs

     total energy              =    -706.18840212 Ry
     Harris-Foulkes estimate   =    -706.18840222 Ry
     estimated scf accuracy    <       0.00000221 Ry

     iteration # 24     ecut=    40.00 Ry     beta= 0.60
     Davidson diagonalization with overlap
     ethr =  4.93E-10,  avg # of iterations =  1.0

     total cpu time spent up to now is      735.6 secs

     total energy              =    -706.18840200 Ry
     Harris-Foulkes estimate   =    -706.18840213 Ry
     estimated scf accuracy    <       0.00000135 Ry

     iteration # 25     ecut=    40.00 Ry     beta= 0.60
     Davidson diagonalization with overlap
     ethr =  4.93E-10,  avg # of iterations =  3.1

     total cpu time spent up to now is      748.4 secs

     total energy              =    -706.18840204 Ry
     Harris-Foulkes estimate   =    -706.18840204 Ry
     estimated scf accuracy    <       0.00000013 Ry

     iteration # 26     ecut=    40.00 Ry     beta= 0.60
     Davidson diagonalization with overlap
     ethr =  1.71E-10,  avg # of iterations =  1.2

     total cpu time spent up to now is      759.2 secs

     total energy              =    -706.18840204 Ry
     Harris-Foulkes estimate   =    -706.18840204 Ry
     estimated scf accuracy    <       0.00000009 Ry

     iteration # 27     ecut=    40.00 Ry     beta= 0.60
     Davidson diagonalization with overlap
     ethr =  1.14E-10,  avg # of iterations =  1.0

     total cpu time spent up to now is      769.8 secs

     total energy              =    -706.18840203 Ry
     Harris-Foulkes estimate   =    -706.18840204 Ry
     estimated scf accuracy    <       0.00000005 Ry

     iteration # 28     ecut=    40.00 Ry     beta= 0.60
     Davidson diagonalization with overlap
     ethr =  6.33E-11,  avg # of iterations =  3.2

     total cpu time spent up to now is      782.4 secs

     total energy              =    -706.18840203 Ry
     Harris-Foulkes estimate   =    -706.18840203 Ry
     estimated scf accuracy    <          1.2E-09 Ry

     iteration # 29     ecut=    40.00 Ry     beta= 0.60
     Davidson diagonalization with overlap
     ethr =  1.56E-12,  avg # of iterations =  4.7

     total cpu time spent up to now is      799.2 secs

     total energy              =    -706.18840203 Ry
     Harris-Foulkes estimate   =    -706.18840203 Ry
     estimated scf accuracy    <          6.1E-10 Ry

     iteration # 30     ecut=    40.00 Ry     beta= 0.60
     Davidson diagonalization with overlap
     ethr =  7.87E-13,  avg # of iterations =  1.0

     total cpu time spent up to now is      809.8 secs

     total energy              =    -706.18840203 Ry
     Harris-Foulkes estimate   =    -706.18840203 Ry
     estimated scf accuracy    <          2.3E-10 Ry

     iteration # 31     ecut=    40.00 Ry     beta= 0.60
     Davidson diagonalization with overlap
     ethr =  3.04E-13,  avg # of iterations =  3.2

     total cpu time spent up to now is      822.4 secs

     End of self-consistent calculation

     Number of k-points >= 100: set verbosity='high' to print the bands.

     the Fermi energy is    16.5517 ev

!    total energy              =    -706.18840203 Ry
     Harris-Foulkes estimate   =    -706.18840203 Ry
     estimated scf accuracy    <          2.6E-12 Ry

     The total energy is the sum of the following terms:

     one-electron contribution =    -135.21008749 Ry
     hartree contribution      =     103.09801820 Ry
     xc contribution           =    -106.42308641 Ry
     ewald contribution        =    -567.65258839 Ry
     smearing contrib. (-TS)   =      -0.00065794 Ry

     convergence has been achieved in  31 iterations

     Forces acting on atoms (cartesian axes, Ry/au):

     atom    1 type  2   force =     0.00000000    0.00000000    0.00000000
     atom    2 type  1   force =     0.00000000    0.00385421   -0.00000000
     atom    3 type  1   force =     0.00000000    0.00000000    0.00000000
     atom    4 type  1   force =     0.00333784   -0.00192711    0.00000000
     atom    5 type  1   force =     0.00000000    0.00000000    0.00000000
     atom    6 type  1   force =    -0.00333784   -0.00192711   -0.00000000

     Total force =     0.006676     Total SCF correction =     0.000002


     Computing stress (Cartesian axis) and pressure

          total   stress  (Ry/bohr**3)                   (kbar)     P=  -39.64
  -0.00041590  -0.00000000   0.00000000        -61.18     -0.00      0.00
  -0.00000000  -0.00041590   0.00000000         -0.00    -61.18      0.00
  -0.00000000   0.00000000   0.00002346         -0.00      0.00      3.45


     number of scf cycles    =   2
     number of bfgs steps    =   1

     enthalpy old            =    -706.1626376138 Ry
     enthalpy new            =    -706.1884020344 Ry

     CASE: enthalpy_new < enthalpy_old

     new trust radius        =       0.1023935499 bohr
     new conv_thr            =            1.0E-10 Ry

     new unit-cell volume =    735.33195 a.u.^3 (   108.96495 Ang^3 )
     density =      7.80855 g/cm^3

CELL_PARAMETERS (alat=  1.88972599)
   4.383431848  -2.530775746  -0.000000000
  -4.383431848  -2.530775746   0.000000000
  -0.000000000  -0.000000000  -4.911215718

ATOMIC_POSITIONS (angstrom)
Ti      -0.000000000  -5.061551493  -4.911215718
Nb       0.000001462  -1.683411350  -2.455607859
Nb      -1.461143949  -2.530775746  -4.911215718
Nb      -1.457874693  -4.219847083  -2.455607859
Nb       1.461143949  -2.530775746  -4.911215718
Nb       1.457877616  -4.219847083  -2.455607859


     NEW-OLD atomic charge density approx. for the potential

     Check: negative/imaginary core charge=   -0.000001    0.000000
     extrapolated charge   74.09996, renormalised to   77.00000

     total cpu time spent up to now is      831.3 secs

     Self-consistent Calculation

     iteration #  1     ecut=    40.00 Ry     beta= 0.60
     Davidson diagonalization with overlap
     ethr =  1.00E-06,  avg # of iterations = 11.4

     total cpu time spent up to now is      872.2 secs

     total energy              =    -705.18707164 Ry
     Harris-Foulkes estimate   =    -709.58465667 Ry
     estimated scf accuracy    <       1.01469113 Ry

     iteration #  2     ecut=    40.00 Ry     beta= 0.60
     Davidson diagonalization with overlap
     ethr =  1.32E-03,  avg # of iterations =  6.4

     total cpu time spent up to now is      895.3 secs

     total energy              =    -706.12638949 Ry
     Harris-Foulkes estimate   =    -707.73305943 Ry
     estimated scf accuracy    <       5.30249928 Ry

     iteration #  3     ecut=    40.00 Ry     beta= 0.60
     Davidson diagonalization with overlap
     ethr =  1.32E-03,  avg # of iterations =  4.2

     total cpu time spent up to now is      912.2 secs

     total energy              =    -706.22991474 Ry
     Harris-Foulkes estimate   =    -706.44207649 Ry
     estimated scf accuracy    <       1.27000182 Ry

     iteration #  4     ecut=    40.00 Ry     beta= 0.60
     Davidson diagonalization with overlap
     ethr =  1.32E-03,  avg # of iterations =  1.8

     total cpu time spent up to now is      923.3 secs

     total energy              =    -706.15981244 Ry
     Harris-Foulkes estimate   =    -706.31867149 Ry
     estimated scf accuracy    <       1.04668656 Ry

     iteration #  5     ecut=    40.00 Ry     beta= 0.60
     Davidson diagonalization with overlap
     ethr =  1.32E-03,  avg # of iterations =  2.2

     total cpu time spent up to now is      935.0 secs

     total energy              =    -706.19667129 Ry
     Harris-Foulkes estimate   =    -706.21526209 Ry
     estimated scf accuracy    <       0.17954539 Ry

     iteration #  6     ecut=    40.00 Ry     beta= 0.60
     Davidson diagonalization with overlap
     ethr =  2.33E-04,  avg # of iterations =  3.4

     total cpu time spent up to now is      947.8 secs

     total energy              =    -706.19759633 Ry
     Harris-Foulkes estimate   =    -706.20438527 Ry
     estimated scf accuracy    <       0.08064291 Ry

     iteration #  7     ecut=    40.00 Ry     beta= 0.60
     Davidson diagonalization with overlap
     ethr =  1.05E-04,  avg # of iterations =  3.2

     total cpu time spent up to now is      960.1 secs

     total energy              =    -706.18656683 Ry
     Harris-Foulkes estimate   =    -706.19982608 Ry
     estimated scf accuracy    <       0.05204922 Ry

     iteration #  8     ecut=    40.00 Ry     beta= 0.60
     Davidson diagonalization with overlap
     ethr =  6.76E-05,  avg # of iterations =  5.2

     total cpu time spent up to now is      976.9 secs

     total energy              =    -706.19328865 Ry
     Harris-Foulkes estimate   =    -706.19602208 Ry
     estimated scf accuracy    <       0.01465805 Ry

     iteration #  9     ecut=    40.00 Ry     beta= 0.60
     Davidson diagonalization with overlap
     ethr =  1.90E-05,  avg # of iterations =  4.6

     total cpu time spent up to now is      992.0 secs

     total energy              =    -706.19441387 Ry
     Harris-Foulkes estimate   =    -706.19685723 Ry
     estimated scf accuracy    <       0.01137464 Ry

     iteration # 10     ecut=    40.00 Ry     beta= 0.60
     Davidson diagonalization with overlap
     ethr =  1.48E-05,  avg # of iterations =  1.6

     total cpu time spent up to now is     1003.0 secs

     total energy              =    -706.19462964 Ry
     Harris-Foulkes estimate   =    -706.19497841 Ry
     estimated scf accuracy    <       0.00148771 Ry

     iteration # 11     ecut=    40.00 Ry     beta= 0.60
     Davidson diagonalization with overlap
     ethr =  1.93E-06,  avg # of iterations =  5.4

     total cpu time spent up to now is     1021.3 secs

     total energy              =    -706.19504097 Ry
     Harris-Foulkes estimate   =    -706.19504021 Ry
     estimated scf accuracy    <       0.00005691 Ry

     iteration # 12     ecut=    40.00 Ry     beta= 0.60
     Davidson diagonalization with overlap
     ethr =  7.39E-08,  avg # of iterations =  2.5

     total cpu time spent up to now is     1033.3 secs

     total energy              =    -706.19503382 Ry
     Harris-Foulkes estimate   =    -706.19504312 Ry
     estimated scf accuracy    <       0.00006802 Ry

     iteration # 13     ecut=    40.00 Ry     beta= 0.60
     Davidson diagonalization with overlap
     ethr =  7.39E-08,  avg # of iterations =  1.4

     total cpu time spent up to now is     1044.1 secs

     total energy              =    -706.19503502 Ry
     Harris-Foulkes estimate   =    -706.19503581 Ry
     estimated scf accuracy    <       0.00001795 Ry

     iteration # 14     ecut=    40.00 Ry     beta= 0.60
     Davidson diagonalization with overlap
     ethr =  2.33E-08,  avg # of iterations =  3.0

     total cpu time spent up to now is     1056.3 secs

     total energy              =    -706.19503520 Ry
     Harris-Foulkes estimate   =    -706.19503568 Ry
     estimated scf accuracy    <       0.00000861 Ry

     iteration # 15     ecut=    40.00 Ry     beta= 0.60
     Davidson diagonalization with overlap
     ethr =  1.12E-08,  avg # of iterations =  1.9

     total cpu time spent up to now is     1067.5 secs

     total energy              =    -706.19503506 Ry
     Harris-Foulkes estimate   =    -706.19503540 Ry
     estimated scf accuracy    <       0.00000414 Ry

     iteration # 16     ecut=    40.00 Ry     beta= 0.60
     Davidson diagonalization with overlap
     ethr =  5.37E-09,  avg # of iterations =  3.3

     total cpu time spent up to now is     1080.2 secs

     total energy              =    -706.19503528 Ry
     Harris-Foulkes estimate   =    -706.19503530 Ry
     estimated scf accuracy    <       0.00000059 Ry

     iteration # 17     ecut=    40.00 Ry     beta= 0.60
     Davidson diagonalization with overlap
     ethr =  7.67E-10,  avg # of iterations =  3.3

     total cpu time spent up to now is     1092.9 secs

     total energy              =    -706.19503528 Ry
     Harris-Foulkes estimate   =    -706.19503532 Ry
     estimated scf accuracy    <       0.00000031 Ry

     iteration # 18     ecut=    40.00 Ry     beta= 0.60
     Davidson diagonalization with overlap
     ethr =  4.08E-10,  avg # of iterations =  2.8

     total cpu time spent up to now is     1104.7 secs

     total energy              =    -706.19503529 Ry
     Harris-Foulkes estimate   =    -706.19503529 Ry
     estimated scf accuracy    <       0.00000005 Ry

     iteration # 19     ecut=    40.00 Ry     beta= 0.60
     Davidson diagonalization with overlap
     ethr =  6.70E-11,  avg # of iterations =  4.0

     total cpu time spent up to now is     1119.0 secs

     total energy              =    -706.19503530 Ry
     Harris-Foulkes estimate   =    -706.19503530 Ry
     estimated scf accuracy    <          6.3E-09 Ry

     iteration # 20     ecut=    40.00 Ry     beta= 0.60
     Davidson diagonalization with overlap
     ethr =  8.22E-12,  avg # of iterations =  3.2

     total cpu time spent up to now is     1131.6 secs

     total energy              =    -706.19503530 Ry
     Harris-Foulkes estimate   =    -706.19503530 Ry
     estimated scf accuracy    <          6.6E-10 Ry

     iteration # 21     ecut=    40.00 Ry     beta= 0.60
     Davidson diagonalization with overlap
     ethr =  8.53E-13,  avg # of iterations =  3.9

     total cpu time spent up to now is     1146.3 secs

     End of self-consistent calculation

     Number of k-points >= 100: set verbosity='high' to print the bands.

     the Fermi energy is    17.2716 ev

!    total energy              =    -706.19503530 Ry
     Harris-Foulkes estimate   =    -706.19503530 Ry
     estimated scf accuracy    <          7.6E-11 Ry

     The total energy is the sum of the following terms:

     one-electron contribution =    -125.14868442 Ry
     hartree contribution      =     100.34820569 Ry
     xc contribution           =    -106.66060257 Ry
     ewald contribution        =    -574.73359695 Ry
     smearing contrib. (-TS)   =      -0.00035704 Ry

     convergence has been achieved in  21 iterations

     Forces acting on atoms (cartesian axes, Ry/au):

     atom    1 type  2   force =     0.00000000    0.00000000    0.00000000
     atom    2 type  1   force =    -0.00000000    0.00462027   -0.00000000
     atom    3 type  1   force =     0.00000000    0.00000000    0.00000000
     atom    4 type  1   force =     0.00400127   -0.00231014    0.00000000
     atom    5 type  1   force =     0.00000000    0.00000000    0.00000000
     atom    6 type  1   force =    -0.00400127   -0.00231014    0.00000000

     Total force =     0.008003     Total SCF correction =     0.000008


     Computing stress (Cartesian axis) and pressure

          total   stress  (Ry/bohr**3)                   (kbar)     P=   15.67
  -0.00003988  -0.00000000   0.00000000         -5.87     -0.00      0.00
   0.00000000  -0.00003988   0.00000000          0.00     -5.87      0.00
   0.00000000   0.00000000   0.00039943          0.00      0.00     58.76


     number of scf cycles    =   3
     number of bfgs steps    =   2

     enthalpy old            =    -706.1884020344 Ry
     enthalpy new            =    -706.1950352975 Ry

     CASE: enthalpy_new < enthalpy_old

     new trust radius        =       0.0503335186 bohr
     new conv_thr            =            1.0E-10 Ry

     new unit-cell volume =    732.33414 a.u.^3 (   108.52072 Ang^3 )
     density =      7.84051 g/cm^3

CELL_PARAMETERS (alat=  1.88972599)
   4.354328354  -2.513972838  -0.000000000
  -4.354328354  -2.513972838  -0.000000000
  -0.000000000  -0.000000000  -4.956795746

ATOMIC_POSITIONS (angstrom)
Ti      -0.000000000  -5.027945675  -4.956795746
Nb       0.000001452  -1.669100867  -2.478397873
Nb      -1.451442785  -2.513972838  -4.956795746
Nb      -1.445481464  -4.193396499  -2.478397873
Nb       1.451442785  -2.513972838  -4.956795746
Nb       1.445484368  -4.193396499  -2.478397873


     NEW-OLD atomic charge density approx. for the potential

     Check: negative/imaginary core charge=   -0.000001    0.000000
     extrapolated charge   76.68895, renormalised to   77.00000

     total cpu time spent up to now is     1155.1 secs

     Self-consistent Calculation

     iteration #  1     ecut=    40.00 Ry     beta= 0.60
     Davidson diagonalization with overlap
     ethr =  1.00E-06,  avg # of iterations =  8.3

     total cpu time spent up to now is     1183.9 secs

     total energy              =    -706.19050865 Ry
     Harris-Foulkes estimate   =    -706.55270801 Ry
     estimated scf accuracy    <       0.00737722 Ry

     iteration #  2     ecut=    40.00 Ry     beta= 0.60
     Davidson diagonalization with overlap
     ethr =  9.58E-06,  avg # of iterations =  6.6

     total cpu time spent up to now is     1207.8 secs

     total energy              =    -706.18461212 Ry
     Harris-Foulkes estimate   =    -706.21772959 Ry
     estimated scf accuracy    <       0.22317097 Ry

     iteration #  3     ecut=    40.00 Ry     beta= 0.60
     Davidson diagonalization with overlap
     ethr =  9.58E-06,  avg # of iterations =  5.2

     total cpu time spent up to now is     1227.8 secs

     total energy              =    -706.19760530 Ry
     Harris-Foulkes estimate   =    -706.19911007 Ry
     estimated scf accuracy    <       0.00442837 Ry

     iteration #  4     ecut=    40.00 Ry     beta= 0.60
     Davidson diagonalization with overlap
     ethr =  5.75E-06,  avg # of iterations =  3.4

     total cpu time spent up to now is     1242.5 secs

     total energy              =    -706.19773607 Ry
     Harris-Foulkes estimate   =    -706.19870895 Ry
     estimated scf accuracy    <       0.00652391 Ry

     iteration #  5     ecut=    40.00 Ry     beta= 0.60
     Davidson diagonalization with overlap
     ethr =  5.75E-06,  avg # of iterations =  1.8

     total cpu time spent up to now is     1253.7 secs

     total energy              =    -706.19789859 Ry
     Harris-Foulkes estimate   =    -706.19814537 Ry
     estimated scf accuracy    <       0.00127014 Ry

     iteration #  6     ecut=    40.00 Ry     beta= 0.60
     Davidson diagonalization with overlap
     ethr =  1.65E-06,  avg # of iterations =  3.1

     total cpu time spent up to now is     1266.3 secs

     total energy              =    -706.19792917 Ry
     Harris-Foulkes estimate   =    -706.19799395 Ry
     estimated scf accuracy    <       0.00026025 Ry

     iteration #  7     ecut=    40.00 Ry     beta= 0.60
     Davidson diagonalization with overlap
     ethr =  3.38E-07,  avg # of iterations =  3.5

     total cpu time spent up to now is     1280.3 secs

     total energy              =    -706.19796088 Ry
     Harris-Foulkes estimate   =    -706.19796786 Ry
     estimated scf accuracy    <       0.00003427 Ry

     iteration #  8     ecut=    40.00 Ry     beta= 0.60
     Davidson diagonalization with overlap
     ethr =  4.45E-08,  avg # of iterations =  2.9

     total cpu time spent up to now is     1293.2 secs

     total energy              =    -706.19796500 Ry
     Harris-Foulkes estimate   =    -706.19796614 Ry
     estimated scf accuracy    <       0.00000322 Ry

     iteration #  9     ecut=    40.00 Ry     beta= 0.60
     Davidson diagonalization with overlap
     ethr =  4.18E-09,  avg # of iterations =  4.2

     total cpu time spent up to now is     1309.3 secs

     total energy              =    -706.19796579 Ry
     Harris-Foulkes estimate   =    -706.19796612 Ry
     estimated scf accuracy    <       0.00000146 Ry

     iteration # 10     ecut=    40.00 Ry     beta= 0.60
     Davidson diagonalization with overlap
     ethr =  1.90E-09,  avg # of iterations =  2.7

     total cpu time spent up to now is     1321.3 secs

     total energy              =    -706.19796594 Ry
     Harris-Foulkes estimate   =    -706.19796594 Ry
     estimated scf accuracy    <          1.8E-09 Ry

     iteration # 11     ecut=    40.00 Ry     beta= 0.60
     Davidson diagonalization with overlap
     ethr =  2.34E-12,  avg # of iterations =  5.5

     total cpu time spent up to now is     1344.7 secs

     total energy              =    -706.19796596 Ry
     Harris-Foulkes estimate   =    -706.19796596 Ry
     estimated scf accuracy    <       0.00000003 Ry

     iteration # 12     ecut=    40.00 Ry     beta= 0.60
     Davidson diagonalization with overlap
     ethr =  2.34E-12,  avg # of iterations =  3.9

     total cpu time spent up to now is     1357.9 secs

     total energy              =    -706.19796596 Ry
     Harris-Foulkes estimate   =    -706.19796596 Ry
     estimated scf accuracy    <       0.00000002 Ry

     iteration # 13     ecut=    40.00 Ry     beta= 0.60
     Davidson diagonalization with overlap
     ethr =  2.34E-12,  avg # of iterations =  4.0

     total cpu time spent up to now is     1373.1 secs

     total energy              =    -706.19796596 Ry
     Harris-Foulkes estimate   =    -706.19796596 Ry
     estimated scf accuracy    <          1.1E-09 Ry

     iteration # 14     ecut=    40.00 Ry     beta= 0.60
     Davidson diagonalization with overlap
     ethr =  1.49E-12,  avg # of iterations =  1.0

     total cpu time spent up to now is     1383.8 secs

     End of self-consistent calculation

     Number of k-points >= 100: set verbosity='high' to print the bands.

     the Fermi energy is    17.3422 ev

!    total energy              =    -706.19796596 Ry
     Harris-Foulkes estimate   =    -706.19796596 Ry
     estimated scf accuracy    <          6.9E-11 Ry

     The total energy is the sum of the following terms:

     one-electron contribution =    -124.22246513 Ry
     hartree contribution      =     100.14041092 Ry
     xc contribution           =    -106.69212828 Ry
     ewald contribution        =    -575.42336390 Ry
     smearing contrib. (-TS)   =      -0.00041957 Ry

     convergence has been achieved in  14 iterations

     Forces acting on atoms (cartesian axes, Ry/au):

     atom    1 type  2   force =     0.00000000   -0.00000000    0.00000000
     atom    2 type  1   force =     0.00000000    0.00333672   -0.00000000
     atom    3 type  1   force =     0.00000000   -0.00000000    0.00000000
     atom    4 type  1   force =     0.00288968   -0.00166836   -0.00000000
     atom    5 type  1   force =    -0.00000000   -0.00000000    0.00000000
     atom    6 type  1   force =    -0.00288968   -0.00166836   -0.00000000

     Total force =     0.005779     Total SCF correction =     0.000003


     Computing stress (Cartesian axis) and pressure

          total   stress  (Ry/bohr**3)                   (kbar)     P=   21.34
   0.00001552   0.00000000  -0.00000000          2.28      0.00     -0.00
  -0.00000000   0.00001552  -0.00000000         -0.00      2.28     -0.00
   0.00000000   0.00000000   0.00040423          0.00      0.00     59.46


     number of scf cycles    =   4
     number of bfgs steps    =   3

     enthalpy old            =    -706.1950352975 Ry
     enthalpy new            =    -706.1979659593 Ry

     CASE: enthalpy_new < enthalpy_old


     WARNING: bfgs curvature condition failed, Theta= 0.973
     new trust radius        =       0.0746533774 bohr
     new conv_thr            =            1.0E-10 Ry

     new unit-cell volume =    732.25769 a.u.^3 (   108.50939 Ang^3 )
     density =      7.84133 g/cm^3

CELL_PARAMETERS (alat=  1.88972599)
   4.324379681  -2.496681965   0.000000000
  -4.324379681  -2.496681965  -0.000000000
  -0.000000000  -0.000000000  -5.025165789

ATOMIC_POSITIONS (angstrom)
Ti      -0.000000000  -4.993363929  -5.025165789
Nb       0.000001442  -1.653962652  -2.512582895
Nb      -1.441459894  -2.496681965  -5.025165789
Nb      -1.432371399  -4.166383852  -2.512582895
Nb       1.441459894  -2.496681965  -5.025165789
Nb       1.432374283  -4.166383852  -2.512582895


     NEW-OLD atomic charge density approx. for the potential

     Check: negative/imaginary core charge=   -0.000001    0.000000
     extrapolated charge   76.99207, renormalised to   77.00000

     total cpu time spent up to now is     1392.8 secs

     Self-consistent Calculation

     iteration #  1     ecut=    40.00 Ry     beta= 0.60
     Davidson diagonalization with overlap
     c_bands:  1 eigenvalues not converged
     c_bands:  1 eigenvalues not converged
     ethr =  1.00E-06,  avg # of iterations =  8.0

     total cpu time spent up to now is     1421.1 secs

     total energy              =    -706.20088237 Ry
     Harris-Foulkes estimate   =    -706.21065287 Ry
     estimated scf accuracy    <       0.00108365 Ry

     iteration #  2     ecut=    40.00 Ry     beta= 0.60
     Davidson diagonalization with overlap
     ethr =  1.41E-06,  avg # of iterations =  5.3

     total cpu time spent up to now is     1441.1 secs

     total energy              =    -706.19901581 Ry
     Harris-Foulkes estimate   =    -706.20374079 Ry
     estimated scf accuracy    <       0.03320254 Ry

     iteration #  3     ecut=    40.00 Ry     beta= 0.60
     Davidson diagonalization with overlap
     ethr =  1.41E-06,  avg # of iterations =  4.9

     total cpu time spent up to now is     1460.3 secs

     total energy              =    -706.20137671 Ry
     Harris-Foulkes estimate   =    -706.20143382 Ry
     estimated scf accuracy    <       0.00023173 Ry

     iteration #  4     ecut=    40.00 Ry     beta= 0.60
     Davidson diagonalization with overlap
     ethr =  3.01E-07,  avg # of iterations =  4.1

     total cpu time spent up to now is     1475.8 secs

     total energy              =    -706.20134256 Ry
     Harris-Foulkes estimate   =    -706.20149388 Ry
     estimated scf accuracy    <       0.00085128 Ry

     iteration #  5     ecut=    40.00 Ry     beta= 0.60
     Davidson diagonalization with overlap
     ethr =  3.01E-07,  avg # of iterations =  3.7

     total cpu time spent up to now is     1490.4 secs

     total energy              =    -706.20141707 Ry
     Harris-Foulkes estimate   =    -706.20141736 Ry
     estimated scf accuracy    <       0.00000254 Ry

     iteration #  6     ecut=    40.00 Ry     beta= 0.60
     Davidson diagonalization with overlap
     ethr =  3.30E-09,  avg # of iterations =  3.7

     total cpu time spent up to now is     1505.2 secs

     total energy              =    -706.20141771 Ry
     Harris-Foulkes estimate   =    -706.20141777 Ry
     estimated scf accuracy    <       0.00000033 Ry

     iteration #  7     ecut=    40.00 Ry     beta= 0.60
     Davidson diagonalization with overlap
     ethr =  4.33E-10,  avg # of iterations =  2.5

     total cpu time spent up to now is     1518.2 secs

     total energy              =    -706.20141777 Ry
     Harris-Foulkes estimate   =    -706.20141777 Ry
     estimated scf accuracy    <       0.00000002 Ry

     iteration #  8     ecut=    40.00 Ry     beta= 0.60
     Davidson diagonalization with overlap
     ethr =  2.36E-11,  avg # of iterations =  4.3

     total cpu time spent up to now is     1534.9 secs

     total energy              =    -706.20141777 Ry
     Harris-Foulkes estimate   =    -706.20141777 Ry
     estimated scf accuracy    <          3.8E-09 Ry

     iteration #  9     ecut=    40.00 Ry     beta= 0.60
     Davidson diagonalization with overlap
     ethr =  4.97E-12,  avg # of iterations =  3.6

     total cpu time spent up to now is     1548.3 secs

     total energy              =    -706.20141777 Ry
     Harris-Foulkes estimate   =    -706.20141777 Ry
     estimated scf accuracy    <          3.7E-10 Ry

     iteration # 10     ecut=    40.00 Ry     beta= 0.60
     Davidson diagonalization with overlap
     ethr =  4.86E-13,  avg # of iterations =  3.2

     total cpu time spent up to now is     1561.6 secs

     End of self-consistent calculation

     Number of k-points >= 100: set verbosity='high' to print the bands.

     the Fermi energy is    17.3318 ev

!    total energy              =    -706.20141777 Ry
     Harris-Foulkes estimate   =    -706.20141777 Ry
     estimated scf accuracy    <          5.3E-11 Ry

     The total energy is the sum of the following terms:

     one-electron contribution =    -124.57963041 Ry
     hartree contribution      =     100.33048516 Ry
     xc contribution           =    -106.70348924 Ry
     ewald contribution        =    -575.24817486 Ry
     smearing contrib. (-TS)   =      -0.00060842 Ry

     convergence has been achieved in  10 iterations

     Forces acting on atoms (cartesian axes, Ry/au):

     atom    1 type  2   force =     0.00000000    0.00000000    0.00000000
     atom    2 type  1   force =     0.00000000    0.00129613   -0.00000000
     atom    3 type  1   force =     0.00000000    0.00000000    0.00000000
     atom    4 type  1   force =     0.00112248   -0.00064806    0.00000000
     atom    5 type  1   force =     0.00000000    0.00000000   -0.00000000
     atom    6 type  1   force =    -0.00112248   -0.00064806    0.00000000

     Total force =     0.002245     Total SCF correction =     0.000009


     Computing stress (Cartesian axis) and pressure

          total   stress  (Ry/bohr**3)                   (kbar)     P=   20.72
   0.00004626   0.00000000   0.00000000          6.81      0.00      0.00
  -0.00000000   0.00004626   0.00000000         -0.00      6.81      0.00
  -0.00000000  -0.00000000   0.00033001         -0.00     -0.00     48.55


     number of scf cycles    =   5
     number of bfgs steps    =   4

     enthalpy old            =    -706.1979659593 Ry
     enthalpy new            =    -706.2014177713 Ry

     CASE: enthalpy_new < enthalpy_old

     new trust radius        =       0.1104507520 bohr
     new conv_thr            =            1.0E-10 Ry

     new unit-cell volume =    735.63644 a.u.^3 (   109.01007 Ang^3 )
     density =      7.80532 g/cm^3

CELL_PARAMETERS (alat=  1.88972599)
   4.290782236  -2.477284472   0.000000000
  -4.290782236  -2.477284472  -0.000000000
  -0.000000000  -0.000000000  -5.127720853

ATOMIC_POSITIONS (angstrom)
Ti      -0.000000000  -4.954568944  -5.127720853
Nb       0.000001431  -1.637035123  -2.563860427
Nb      -1.430260745  -2.477284472  -5.127720853
Nb      -1.417711746  -4.136052621  -2.563860427
Nb       1.430260745  -2.477284472  -5.127720853
Nb       1.417714607  -4.136052621  -2.563860427


     NEW-OLD atomic charge density approx. for the potential

     Check: negative/imaginary core charge=   -0.000001    0.000000
     extrapolated charge   77.34900, renormalised to   77.00000

     total cpu time spent up to now is     1570.5 secs

     Self-consistent Calculation

     iteration #  1     ecut=    40.00 Ry     beta= 0.60
     Davidson diagonalization with overlap
     c_bands:  1 eigenvalues not converged
     ethr =  1.00E-06,  avg # of iterations =  9.2

     total cpu time spent up to now is     1601.5 secs

     total energy              =    -706.19895455 Ry
     Harris-Foulkes estimate   =    -705.79961848 Ry
     estimated scf accuracy    <       0.00474007 Ry

     iteration #  2     ecut=    40.00 Ry     beta= 0.60
     Davidson diagonalization with overlap
     ethr =  6.16E-06,  avg # of iterations =  5.4

     total cpu time spent up to now is     1624.9 secs

     total energy              =    -706.19757265 Ry
     Harris-Foulkes estimate   =    -706.21318623 Ry
     estimated scf accuracy    <       0.09856234 Ry

     iteration #  3     ecut=    40.00 Ry     beta= 0.60
     Davidson diagonalization with overlap
     ethr =  6.16E-06,  avg # of iterations =  4.9

     total cpu time spent up to now is     1644.3 secs

     total energy              =    -706.20359109 Ry
     Harris-Foulkes estimate   =    -706.20562579 Ry
     estimated scf accuracy    <       0.00653088 Ry

     iteration #  4     ecut=    40.00 Ry     beta= 0.60
     Davidson diagonalization with overlap
     ethr =  6.16E-06,  avg # of iterations =  4.3

     total cpu time spent up to now is     1659.7 secs

     total energy              =    -706.20407142 Ry
     Harris-Foulkes estimate   =    -706.20552225 Ry
     estimated scf accuracy    <       0.01275007 Ry

     iteration #  5     ecut=    40.00 Ry     beta= 0.60
     Davidson diagonalization with overlap
     ethr =  6.16E-06,  avg # of iterations =  2.1

     total cpu time spent up to now is     1671.2 secs

     total energy              =    -706.20418471 Ry
     Harris-Foulkes estimate   =    -706.20459949 Ry
     estimated scf accuracy    <       0.00177822 Ry

     iteration #  6     ecut=    40.00 Ry     beta= 0.60
     Davidson diagonalization with overlap
     ethr =  2.31E-06,  avg # of iterations =  4.3

     total cpu time spent up to now is     1685.9 secs

     total energy              =    -706.20438134 Ry
     Harris-Foulkes estimate   =    -706.20440229 Ry
     estimated scf accuracy    <       0.00016097 Ry

     iteration #  7     ecut=    40.00 Ry     beta= 0.60
     Davidson diagonalization with overlap
     ethr =  2.09E-07,  avg # of iterations =  2.9

     total cpu time spent up to now is     1698.7 secs

     total energy              =    -706.20438441 Ry
     Harris-Foulkes estimate   =    -706.20439388 Ry
     estimated scf accuracy    <       0.00005915 Ry

     iteration #  8     ecut=    40.00 Ry     beta= 0.60
     Davidson diagonalization with overlap
     ethr =  7.68E-08,  avg # of iterations =  2.6

     total cpu time spent up to now is     1711.1 secs

     total energy              =    -706.20438937 Ry
     Harris-Foulkes estimate   =    -706.20438960 Ry
     estimated scf accuracy    <       0.00000104 Ry

     iteration #  9     ecut=    40.00 Ry     beta= 0.60
     Davidson diagonalization with overlap
     ethr =  1.35E-09,  avg # of iterations =  4.6

     total cpu time spent up to now is     1732.3 secs

     total energy              =    -706.20438989 Ry
     Harris-Foulkes estimate   =    -706.20439007 Ry
     estimated scf accuracy    <       0.00000104 Ry

     iteration # 10     ecut=    40.00 Ry     beta= 0.60
     Davidson diagonalization with overlap
     ethr =  1.35E-09,  avg # of iterations =  1.5

     total cpu time spent up to now is     1751.3 secs

     total energy              =    -706.20438993 Ry
     Harris-Foulkes estimate   =    -706.20438995 Ry
     estimated scf accuracy    <       0.00000012 Ry

     iteration # 11     ecut=    40.00 Ry     beta= 0.60
     Davidson diagonalization with overlap
     ethr =  1.52E-10,  avg # of iterations =  3.8

     total cpu time spent up to now is     1945.9 secs

     total energy              =    -706.20438996 Ry
     Harris-Foulkes estimate   =    -706.20438996 Ry
     estimated scf accuracy    <          6.1E-09 Ry

     iteration # 12     ecut=    40.00 Ry     beta= 0.60
     Davidson diagonalization with overlap
     ethr =  7.93E-12,  avg # of iterations =  2.4

     total cpu time spent up to now is     2026.9 secs

     total energy              =    -706.20438996 Ry
     Harris-Foulkes estimate   =    -706.20438996 Ry
     estimated scf accuracy    <          1.8E-09 Ry

     iteration # 13     ecut=    40.00 Ry     beta= 0.60
     Davidson diagonalization with overlap
     ethr =  2.29E-12,  avg # of iterations =  3.7

     total cpu time spent up to now is     2046.6 secs

     total energy              =    -706.20438996 Ry
     Harris-Foulkes estimate   =    -706.20438996 Ry
     estimated scf accuracy    <          1.8E-10 Ry

     iteration # 14     ecut=    40.00 Ry     beta= 0.60
     Davidson diagonalization with overlap
     ethr =  2.32E-13,  avg # of iterations =  2.7

     total cpu time spent up to now is     2060.6 secs

     End of self-consistent calculation

     Number of k-points >= 100: set verbosity='high' to print the bands.

     the Fermi energy is    17.2275 ev

!    total energy              =    -706.20438996 Ry
     Harris-Foulkes estimate   =    -706.20438996 Ry
     estimated scf accuracy    <          1.1E-11 Ry

     The total energy is the sum of the following terms:

     one-electron contribution =    -126.62607829 Ry
     hartree contribution      =     101.07761309 Ry
     xc contribution           =    -106.69504662 Ry
     ewald contribution        =    -573.95984287 Ry
     smearing contrib. (-TS)   =      -0.00103526 Ry

     convergence has been achieved in  14 iterations

     Forces acting on atoms (cartesian axes, Ry/au):

     atom    1 type  2   force =     0.00000000    0.00000000    0.00000000
     atom    2 type  1   force =     0.00000000   -0.00175161    0.00000000
     atom    3 type  1   force =     0.00000000    0.00000000    0.00000000
     atom    4 type  1   force =    -0.00151694    0.00087580   -0.00000000
     atom    5 type  1   force =     0.00000000    0.00000000    0.00000000
     atom    6 type  1   force =     0.00151694    0.00087580   -0.00000000

     Total force =     0.003034     Total SCF correction =     0.000002


     Computing stress (Cartesian axis) and pressure

          total   stress  (Ry/bohr**3)                   (kbar)     P=   13.38
   0.00006260  -0.00000000   0.00000000          9.21     -0.00      0.00
  -0.00000000   0.00006260   0.00000000         -0.00      9.21      0.00
  -0.00000000  -0.00000000   0.00014765         -0.00     -0.00     21.72


     number of scf cycles    =   6
     number of bfgs steps    =   5

     enthalpy old            =    -706.2014177713 Ry
     enthalpy new            =    -706.2043899554 Ry

     CASE: enthalpy_new < enthalpy_old

     new trust radius        =       0.0540404795 bohr
     new conv_thr            =            1.0E-10 Ry

     new unit-cell volume =    741.11744 a.u.^3 (   109.82227 Ang^3 )
     density =      7.74759 g/cm^3

CELL_PARAMETERS (alat=  1.88972599)
   4.285443792  -2.474202320   0.000000000
  -4.285443792  -2.474202320  -0.000000000
  -0.000000000  -0.000000000  -5.178804508

ATOMIC_POSITIONS (angstrom)
Ti      -0.000000000  -4.948404640  -5.178804508
Nb       0.000001429  -1.634694111  -2.589402254
Nb      -1.428481264  -2.474202320  -5.178804508
Nb      -1.415684372  -4.131058821  -2.589402254
Nb       1.428481264  -2.474202320  -5.178804508
Nb       1.415687230  -4.131058821  -2.589402254


     NEW-OLD atomic charge density approx. for the potential

     Check: negative/imaginary core charge=   -0.000001    0.000000
     extrapolated charge   77.56196, renormalised to   77.00000

     total cpu time spent up to now is     2069.4 secs

     Self-consistent Calculation

     iteration #  1     ecut=    40.00 Ry     beta= 0.60
     Davidson diagonalization with overlap
     ethr =  1.00E-06,  avg # of iterations =  7.8

     total cpu time spent up to now is     2096.1 secs

     total energy              =    -706.18869526 Ry
     Harris-Foulkes estimate   =    -705.54208664 Ry
     estimated scf accuracy    <       0.01317694 Ry

     iteration #  2     ecut=    40.00 Ry     beta= 0.60
     Davidson diagonalization with overlap
     ethr =  1.71E-05,  avg # of iterations =  7.0

     total cpu time spent up to now is     2120.6 secs

     total energy              =    -706.17371642 Ry
     Harris-Foulkes estimate   =    -706.24005338 Ry
     estimated scf accuracy    <       0.54782363 Ry

     iteration #  3     ecut=    40.00 Ry     beta= 0.60
     Davidson diagonalization with overlap
     ethr =  1.71E-05,  avg # of iterations =  5.4

     total cpu time spent up to now is     2140.9 secs

     total energy              =    -706.20272438 Ry
     Harris-Foulkes estimate   =    -706.20868556 Ry
     estimated scf accuracy    <       0.01957784 Ry

     iteration #  4     ecut=    40.00 Ry     beta= 0.60
     Davidson diagonalization with overlap
     ethr =  1.71E-05,  avg # of iterations =  3.9

     total cpu time spent up to now is     2155.5 secs

     total energy              =    -706.20414717 Ry
     Harris-Foulkes estimate   =    -706.20770918 Ry
     estimated scf accuracy    <       0.02750597 Ry

     iteration #  5     ecut=    40.00 Ry     beta= 0.60
     Davidson diagonalization with overlap
     ethr =  1.71E-05,  avg # of iterations =  1.9

     total cpu time spent up to now is     2166.8 secs

     total energy              =    -706.20491901 Ry
     Harris-Foulkes estimate   =    -706.20552196 Ry
     estimated scf accuracy    <       0.00398137 Ry

     iteration #  6     ecut=    40.00 Ry     beta= 0.60
     Davidson diagonalization with overlap
     ethr =  5.17E-06,  avg # of iterations =  3.2

     total cpu time spent up to now is     2179.2 secs

     total energy              =    -706.20482740 Ry
     Harris-Foulkes estimate   =    -706.20510469 Ry
     estimated scf accuracy    <       0.00159160 Ry

     iteration #  7     ecut=    40.00 Ry     beta= 0.60
     Davidson diagonalization with overlap
     ethr =  2.07E-06,  avg # of iterations =  3.6

     total cpu time spent up to now is     2192.2 secs

     total energy              =    -706.20486702 Ry
     Harris-Foulkes estimate   =    -706.20492146 Ry
     estimated scf accuracy    <       0.00040059 Ry

     iteration #  8     ecut=    40.00 Ry     beta= 0.60
     Davidson diagonalization with overlap
     ethr =  5.20E-07,  avg # of iterations =  3.2

     total cpu time spent up to now is     2204.9 secs

     total energy              =    -706.20489425 Ry
     Harris-Foulkes estimate   =    -706.20489740 Ry
     estimated scf accuracy    <       0.00004964 Ry

     iteration #  9     ecut=    40.00 Ry     beta= 0.60
     Davidson diagonalization with overlap
     ethr =  6.45E-08,  avg # of iterations =  3.5

     total cpu time spent up to now is     2218.1 secs

     total energy              =    -706.20489685 Ry
     Harris-Foulkes estimate   =    -706.20489847 Ry
     estimated scf accuracy    <       0.00001921 Ry

     iteration # 10     ecut=    40.00 Ry     beta= 0.60
     Davidson diagonalization with overlap
     ethr =  2.50E-08,  avg # of iterations =  1.7

     total cpu time spent up to now is     2229.1 secs

     total energy              =    -706.20489568 Ry
     Harris-Foulkes estimate   =    -706.20489755 Ry
     estimated scf accuracy    <       0.00001265 Ry

     iteration # 11     ecut=    40.00 Ry     beta= 0.60
     Davidson diagonalization with overlap
     ethr =  1.64E-08,  avg # of iterations =  3.1

     total cpu time spent up to now is     2241.8 secs

     total energy              =    -706.20489661 Ry
     Harris-Foulkes estimate   =    -706.20489668 Ry
     estimated scf accuracy    <       0.00000099 Ry

     iteration # 12     ecut=    40.00 Ry     beta= 0.60
     Davidson diagonalization with overlap
     ethr =  1.29E-09,  avg # of iterations =  3.8

     total cpu time spent up to now is     2256.0 secs

     total energy              =    -706.20489672 Ry
     Harris-Foulkes estimate   =    -706.20489675 Ry
     estimated scf accuracy    <       0.00000024 Ry

     iteration # 13     ecut=    40.00 Ry     beta= 0.60
     Davidson diagonalization with overlap
     ethr =  3.09E-10,  avg # of iterations =  3.0

     total cpu time spent up to now is     2268.4 secs

     total energy              =    -706.20489674 Ry
     Harris-Foulkes estimate   =    -706.20489674 Ry
     estimated scf accuracy    <          3.9E-09 Ry

     iteration # 14     ecut=    40.00 Ry     beta= 0.60
     Davidson diagonalization with overlap
     ethr =  5.09E-12,  avg # of iterations =  4.8

     total cpu time spent up to now is     2287.3 secs

     total energy              =    -706.20489674 Ry
     Harris-Foulkes estimate   =    -706.20489675 Ry
     estimated scf accuracy    <          3.4E-09 Ry

     iteration # 15     ecut=    40.00 Ry     beta= 0.60
     Davidson diagonalization with overlap
     ethr =  4.44E-12,  avg # of iterations =  1.0

     total cpu time spent up to now is     2298.0 secs

     total energy              =    -706.20489674 Ry
     Harris-Foulkes estimate   =    -706.20489674 Ry
     estimated scf accuracy    <          4.8E-10 Ry

     iteration # 16     ecut=    40.00 Ry     beta= 0.60
     Davidson diagonalization with overlap
     ethr =  6.24E-13,  avg # of iterations =  3.5

     total cpu time spent up to now is     2312.3 secs

     total energy              =    -706.20489674 Ry
     Harris-Foulkes estimate   =    -706.20489674 Ry
     estimated scf accuracy    <          1.2E-10 Ry

     iteration # 17     ecut=    40.00 Ry     beta= 0.60
     Davidson diagonalization with overlap
     ethr =  1.53E-13,  avg # of iterations =  1.8

     total cpu time spent up to now is     2323.4 secs

     End of self-consistent calculation

     Number of k-points >= 100: set verbosity='high' to print the bands.

     the Fermi energy is    17.0766 ev

!    total energy              =    -706.20489674 Ry
     Harris-Foulkes estimate   =    -706.20489674 Ry
     estimated scf accuracy    <          4.9E-12 Ry

     The total energy is the sum of the following terms:

     one-electron contribution =    -129.04830155 Ry
     hartree contribution      =     101.83630197 Ry
     xc contribution           =    -106.65822463 Ry
     ewald contribution        =    -572.33341487 Ry
     smearing contrib. (-TS)   =      -0.00125765 Ry

     convergence has been achieved in  17 iterations

     Forces acting on atoms (cartesian axes, Ry/au):

     atom    1 type  2   force =     0.00000000    0.00000000    0.00000000
     atom    2 type  1   force =     0.00000000   -0.00268258    0.00000000
     atom    3 type  1   force =     0.00000000   -0.00000000    0.00000000
     atom    4 type  1   force =    -0.00232318    0.00134129    0.00000000
     atom    5 type  1   force =    -0.00000000    0.00000000   -0.00000000
     atom    6 type  1   force =     0.00232318    0.00134129   -0.00000000

     Total force =     0.004646     Total SCF correction =     0.000001


     Computing stress (Cartesian axis) and pressure

          total   stress  (Ry/bohr**3)                   (kbar)     P=    2.24
   0.00001684   0.00000000  -0.00000000          2.48      0.00     -0.00
   0.00000000   0.00001684  -0.00000000          0.00      2.48     -0.00
  -0.00000000  -0.00000000   0.00001197         -0.00     -0.00      1.76


     number of scf cycles    =   7
     number of bfgs steps    =   6

     enthalpy old            =    -706.2043899554 Ry
     enthalpy new            =    -706.2048967447 Ry

     CASE: enthalpy_new < enthalpy_old

     new trust radius        =       0.0041086358 bohr
     new conv_thr            =            1.0E-10 Ry

     new unit-cell volume =    742.29940 a.u.^3 (   109.99742 Ang^3 )
     density =      7.73526 g/cm^3

CELL_PARAMETERS (alat=  1.88972599)
   4.288677642  -2.476069384   0.000000000
  -4.288677642  -2.476069384  -0.000000000
  -0.000000000  -0.000000000  -5.179244248

ATOMIC_POSITIONS (angstrom)
Ti      -0.000000000  -4.952138768  -5.179244248
Nb       0.000001430  -1.637325828  -2.589622124
Nb      -1.429559214  -2.476069384  -5.179244248
Nb      -1.417963504  -4.133477092  -2.589622124
Nb       1.429559214  -2.476069384  -5.179244248
Nb       1.417966365  -4.133477092  -2.589622124


     NEW-OLD atomic charge density approx. for the potential

     Check: negative/imaginary core charge=   -0.000001    0.000000
     extrapolated charge   77.12099, renormalised to   77.00000

     total cpu time spent up to now is     2332.7 secs

     Self-consistent Calculation

     iteration #  1     ecut=    40.00 Ry     beta= 0.60
     Davidson diagonalization with overlap
     ethr =  1.00E-06,  avg # of iterations =  3.4

     total cpu time spent up to now is     2351.6 secs

     total energy              =    -706.20399852 Ry
     Harris-Foulkes estimate   =    -706.06157690 Ry
     estimated scf accuracy    <       0.00081833 Ry

     iteration #  2     ecut=    40.00 Ry     beta= 0.60
     Davidson diagonalization with overlap
     ethr =  1.06E-06,  avg # of iterations =  6.5

     total cpu time spent up to now is     2375.6 secs

     total energy              =    -706.20309989 Ry
     Harris-Foulkes estimate   =    -706.20716201 Ry
     estimated scf accuracy    <       0.03105986 Ry

     iteration #  3     ecut=    40.00 Ry     beta= 0.60
     Davidson diagonalization with overlap
     ethr =  1.06E-06,  avg # of iterations =  4.9

     total cpu time spent up to now is     2395.1 secs

     total energy              =    -706.20482408 Ry
     Harris-Foulkes estimate   =    -706.20511038 Ry
     estimated scf accuracy    <       0.00089737 Ry

     iteration #  4     ecut=    40.00 Ry     beta= 0.60
     Davidson diagonalization with overlap
     ethr =  1.06E-06,  avg # of iterations =  2.9

     total cpu time spent up to now is     2408.1 secs

     total energy              =    -706.20488594 Ry
     Harris-Foulkes estimate   =    -706.20505846 Ry
     estimated scf accuracy    <       0.00127555 Ry

     iteration #  5     ecut=    40.00 Ry     beta= 0.60
     Davidson diagonalization with overlap
     ethr =  1.06E-06,  avg # of iterations =  1.6

     total cpu time spent up to now is     2419.1 secs

     total energy              =    -706.20493184 Ry
     Harris-Foulkes estimate   =    -706.20495327 Ry
     estimated scf accuracy    <       0.00019479 Ry

     iteration #  6     ecut=    40.00 Ry     beta= 0.60
     Davidson diagonalization with overlap
     ethr =  2.53E-07,  avg # of iterations =  2.5

     total cpu time spent up to now is     2430.9 secs

     total energy              =    -706.20492055 Ry
     Harris-Foulkes estimate   =    -706.20493934 Ry
     estimated scf accuracy    <       0.00010070 Ry

     iteration #  7     ecut=    40.00 Ry     beta= 0.60
     Davidson diagonalization with overlap
     ethr =  1.31E-07,  avg # of iterations =  2.2

     total cpu time spent up to now is     2442.4 secs

     total energy              =    -706.20492135 Ry
     Harris-Foulkes estimate   =    -706.20492577 Ry
     estimated scf accuracy    <       0.00002470 Ry

     iteration #  8     ecut=    40.00 Ry     beta= 0.60
     Davidson diagonalization with overlap
     ethr =  3.21E-08,  avg # of iterations =  3.4

     total cpu time spent up to now is     2456.0 secs

     total energy              =    -706.20492414 Ry
     Harris-Foulkes estimate   =    -706.20492441 Ry
     estimated scf accuracy    <       0.00000216 Ry

     iteration #  9     ecut=    40.00 Ry     beta= 0.60
     Davidson diagonalization with overlap
     ethr =  2.81E-09,  avg # of iterations =  3.4

     total cpu time spent up to now is     2469.1 secs

     total energy              =    -706.20492425 Ry
     Harris-Foulkes estimate   =    -706.20492435 Ry
     estimated scf accuracy    <       0.00000065 Ry

     iteration # 10     ecut=    40.00 Ry     beta= 0.60
     Davidson diagonalization with overlap
     ethr =  8.39E-10,  avg # of iterations =  2.7

     total cpu time spent up to now is     2481.2 secs

     total energy              =    -706.20492429 Ry
     Harris-Foulkes estimate   =    -706.20492430 Ry
     estimated scf accuracy    <       0.00000008 Ry

     iteration # 11     ecut=    40.00 Ry     beta= 0.60
     Davidson diagonalization with overlap
     ethr =  9.97E-11,  avg # of iterations =  3.9

     total cpu time spent up to now is     2496.6 secs

     total energy              =    -706.20492430 Ry
     Harris-Foulkes estimate   =    -706.20492430 Ry
     estimated scf accuracy    <       0.00000002 Ry

     iteration # 12     ecut=    40.00 Ry     beta= 0.60
     Davidson diagonalization with overlap
     ethr =  2.45E-11,  avg # of iterations =  1.4

     total cpu time spent up to now is     2507.5 secs

     total energy              =    -706.20492430 Ry
     Harris-Foulkes estimate   =    -706.20492430 Ry
     estimated scf accuracy    <       0.00000001 Ry

     iteration # 13     ecut=    40.00 Ry     beta= 0.60
     Davidson diagonalization with overlap
     ethr =  1.46E-11,  avg # of iterations =  2.4

     total cpu time spent up to now is     2519.1 secs

     total energy              =    -706.20492430 Ry
     Harris-Foulkes estimate   =    -706.20492430 Ry
     estimated scf accuracy    <          8.0E-10 Ry

     iteration # 14     ecut=    40.00 Ry     beta= 0.60
     Davidson diagonalization with overlap
     ethr =  1.04E-12,  avg # of iterations =  4.2

     total cpu time spent up to now is     2535.0 secs

     total energy              =    -706.20492430 Ry
     Harris-Foulkes estimate   =    -706.20492430 Ry
     estimated scf accuracy    <          3.2E-10 Ry

     iteration # 15     ecut=    40.00 Ry     beta= 0.60
     Davidson diagonalization with overlap
     ethr =  4.12E-13,  avg # of iterations =  1.0

     total cpu time spent up to now is     2545.5 secs

     End of self-consistent calculation

     Number of k-points >= 100: set verbosity='high' to print the bands.

     the Fermi energy is    17.0453 ev

!    total energy              =    -706.20492430 Ry
     Harris-Foulkes estimate   =    -706.20492430 Ry
     estimated scf accuracy    <          5.1E-11 Ry

     The total energy is the sum of the following terms:

     one-electron contribution =    -129.45385457 Ry
     hartree contribution      =     101.94129896 Ry
[...]
     atom    6 type  1   force =    -0.00000589   -0.00000340    0.00000000

     Total force =     0.000012     Total SCF correction =     0.000000


     Computing stress (Cartesian axis) and pressure

          total   stress  (Ry/bohr**3)                   (kbar)     P=   -0.00
  -0.00000002  -0.00000000   0.00000000         -0.00     -0.00      0.00
  -0.00000000  -0.00000002   0.00000000         -0.00     -0.00      0.00
   0.00000000   0.00000000  -0.00000001          0.00      0.00     -0.00


     bfgs converged in  14 scf cycles and  13 bfgs steps
     (criteria: energy <  1.0E-10 Ry, force <  1.0E-05Ry/Bohr, cell <  1.0E-03kbar)

     End of BFGS Geometry Optimization

     Final enthalpy =    -706.2049589398 Ry
Begin final coordinates
     new unit-cell volume =    742.31140 a.u.^3 (   109.99920 Ang^3 )
     density =      7.73513 g/cm^3

CELL_PARAMETERS (alat=  1.88972599)
   4.287722234  -2.475517779   0.000000000
  -4.287722234  -2.475517779  -0.000000000
  -0.000000000  -0.000000000  -5.181636383

ATOMIC_POSITIONS (angstrom)
Ti      -0.000000000  -4.951035558  -5.181636383
Nb       0.000001430  -1.642597994  -2.590818192
Nb      -1.429240745  -2.475517779  -5.181636383
Nb      -1.422529335  -4.129737799  -2.590818192
Nb       1.429240745  -2.475517779  -5.181636383
Nb       1.422532194  -4.129737799  -2.590818192
End final coordinates



     A final scf calculation at the relaxed structure.
     The G-vectors are recalculated for the final unit cell
     Results may differ from those at the preceding step.
 
     Parallelization info
     --------------------
     sticks:   dense  smooth     PW     G-vecs:    dense   smooth      PW
     Min         601     238     70                25053     6336    1014
     Max         602     239     71                25056     6343    1015
     Sum        2407     955    283               100221    25365    4059
 


     bravais-lattice index     =            0
     lattice parameter (alat)  =       1.8897  a.u.
     unit-cell volume          =     742.3114 (a.u.)^3
     number of atoms/cell      =            6
     number of atomic types    =            2
     number of electrons       =        77.00
     number of Kohn-Sham states=           47
     kinetic-energy cutoff     =      40.0000  Ry
     charge density cutoff     =     400.0000  Ry
     convergence threshold     =      1.0E-12
     mixing beta               =       0.6000
     number of iterations used =            8  plain     mixing
     Exchange-correlation      = SLA PW PBE PBE ( 1  4  3  4 0 0)

     celldm(1)=   1.889726  celldm(2)=   0.000000  celldm(3)=   0.000000
     celldm(4)=   0.000000  celldm(5)=   0.000000  celldm(6)=   0.000000

     crystal axes: (cart. coord. in units of alat)
               a(1) = (   4.287722  -2.475518   0.000000 )  
               a(2) = (  -4.287722  -2.475518  -0.000000 )  
               a(3) = (  -0.000000  -0.000000  -5.181636 )  

     reciprocal axes: (cart. coord. in units 2 pi/alat)
               b(1) = (  0.116612 -0.201978  0.000000 )  
               b(2) = ( -0.116612 -0.201978  0.000000 )  
               b(3) = (  0.000000  0.000000 -0.192989 )  


     PseudoPot. # 1 for Nb read from file:
     ./Nb.pbe-nsp-van.UPF
     MD5 check sum: 0a22fc7fb0ba19a08ca5db297a5d2854
     Pseudo is Ultrasoft + core correction, Zval = 13.0
     Generated by new atomic code, or converted to UPF format
     Using radial grid of  887 points,  6 beta functions with: 
                l(1) =   0
                l(2) =   0
                l(3) =   1
                l(4) =   1
                l(5) =   2
                l(6) =   2
     Q(r) pseudized with  6 coefficients,  rinner =    1.000   1.000   1.000
                                                       1.000   1.000

     PseudoPot. # 2 for Ti read from file:
     ./Ti.pbe-sp-van_ak.UPF
     MD5 check sum: f98fea3e8887528921fefa5636a534ca
     Pseudo is Ultrasoft, Zval = 12.0
     Generated by new atomic code, or converted to UPF format
     Using radial grid of  851 points,  6 beta functions with: 
                l(1) =   0
                l(2) =   0
                l(3) =   1
                l(4) =   1
                l(5) =   2
                l(6) =   2
     Q(r) pseudized with  8 coefficients,  rinner =    1.000   1.000   1.000
                                                       1.000   1.000

     atomic species   valence    mass     pseudopotential
        Nb            13.00    92.90638     Nb( 1.00)
        Ti            12.00    47.86700     Ti( 1.00)

     12 Sym. Ops. (no inversion) found



   Cartesian axes

     site n.     atom                  positions (alat units)
         1           Ti  tau(   1) = (  -0.0000000  -4.9510359  -5.1816368  )
         2           Nb  tau(   2) = (   0.0000014  -1.6425981  -2.5908184  )
         3           Nb  tau(   3) = (  -1.4292409  -2.4755180  -5.1816368  )
         4           Nb  tau(   4) = (  -1.4225294  -4.1297381  -2.5908184  )
         5           Nb  tau(   5) = (   1.4292409  -2.4755180  -5.1816368  )
         6           Nb  tau(   6) = (   1.4225323  -4.1297381  -2.5908184  )

     number of k points=   112  Marzari-Vanderbilt smearing, width (Ry)=  0.0200

     Number of k-points >= 100: set verbosity='high' to print them.

     Dense  grid:   100221 G-vectors     FFT dimensions: (  60,  60,  64)

     Smooth grid:    25365 G-vectors     FFT dimensions: (  40,  40,  40)

     Estimated max dynamical RAM per process >     160.27 MB

     Estimated total dynamical RAM >     641.10 MB

     Check: negative/imaginary core charge=   -0.000001    0.000000

     Initial potential from superposition of free atoms

     starting charge   75.98629, renormalised to   77.00000
     Starting wfcs are   75 randomized atomic wfcs

     total cpu time spent up to now is     3634.0 secs

     Self-consistent Calculation

     iteration #  1     ecut=    40.00 Ry     beta= 0.60
     Davidson diagonalization with overlap
     ethr =  1.00E-06,  avg # of iterations = 11.1

     total cpu time spent up to now is     3665.7 secs

     total energy              =    -688.86302881 Ry
     Harris-Foulkes estimate   =    -708.19307236 Ry
     estimated scf accuracy    <      24.23372126 Ry

     iteration #  2     ecut=    40.00 Ry     beta= 0.60
     Davidson diagonalization with overlap
     ethr =  1.00E-02,  avg # of iterations =  6.0

     total cpu time spent up to now is     3684.4 secs

     total energy              =    -690.20420687 Ry
     Harris-Foulkes estimate   =    -733.62653874 Ry
     estimated scf accuracy    <     147.24036260 Ry

     iteration #  3     ecut=    40.00 Ry     beta= 0.60
     Davidson diagonalization with overlap
     ethr =  1.00E-02,  avg # of iterations =  5.3

     total cpu time spent up to now is     3701.7 secs

     total energy              =    -704.58144323 Ry
     Harris-Foulkes estimate   =    -713.75156135 Ry
     estimated scf accuracy    <      47.65340475 Ry

     iteration #  4     ecut=    40.00 Ry     beta= 0.60
     Davidson diagonalization with overlap
     ethr =  1.00E-02,  avg # of iterations =  2.2

     total cpu time spent up to now is     3711.4 secs

     total energy              =    -707.59864904 Ry
     Harris-Foulkes estimate   =    -707.73964913 Ry
     estimated scf accuracy    <       5.15219271 Ry

     iteration #  5     ecut=    40.00 Ry     beta= 0.60
     Davidson diagonalization with overlap
     ethr =  6.69E-03,  avg # of iterations =  1.1

     total cpu time spent up to now is     3719.6 secs

     total energy              =    -706.64927462 Ry
     Harris-Foulkes estimate   =    -707.63074467 Ry
     estimated scf accuracy    <       4.84661683 Ry

     iteration #  6     ecut=    40.00 Ry     beta= 0.60
     Davidson diagonalization with overlap
     ethr =  6.29E-03,  avg # of iterations =  1.1

     total cpu time spent up to now is     3727.8 secs

     total energy              =    -706.11721097 Ry
     Harris-Foulkes estimate   =    -706.73041473 Ry
     estimated scf accuracy    <       2.73882931 Ry

     iteration #  7     ecut=    40.00 Ry     beta= 0.60
     Davidson diagonalization with overlap
     ethr =  3.56E-03,  avg # of iterations =  3.4

     total cpu time spent up to now is     3737.9 secs

     total energy              =    -706.24916388 Ry
     Harris-Foulkes estimate   =    -706.26098213 Ry
     estimated scf accuracy    <       0.58929766 Ry

     iteration #  8     ecut=    40.00 Ry     beta= 0.60
     Davidson diagonalization with overlap
     ethr =  7.65E-04,  avg # of iterations =  5.0

     total cpu time spent up to now is     3749.3 secs

     total energy              =    -706.18415118 Ry
     Harris-Foulkes estimate   =    -706.26988730 Ry
     estimated scf accuracy    <       0.42341454 Ry

     iteration #  9     ecut=    40.00 Ry     beta= 0.60
     Davidson diagonalization with overlap
     ethr =  5.50E-04,  avg # of iterations =  3.4

     total cpu time spent up to now is     3759.2 secs

     total energy              =    -706.19334342 Ry
     Harris-Foulkes estimate   =    -706.21342462 Ry
     estimated scf accuracy    <       0.06342582 Ry

     iteration # 10     ecut=    40.00 Ry     beta= 0.60
     Davidson diagonalization with overlap
     ethr =  8.24E-05,  avg # of iterations =  5.3

     total cpu time spent up to now is     3774.2 secs

     total energy              =    -706.22087036 Ry
     Harris-Foulkes estimate   =    -706.21456789 Ry
     estimated scf accuracy    <       0.10644068 Ry

     iteration # 11     ecut=    40.00 Ry     beta= 0.60
     Davidson diagonalization with overlap
     ethr =  8.24E-05,  avg # of iterations =  1.2

     total cpu time spent up to now is     3782.5 secs

     total energy              =    -706.15172041 Ry
     Harris-Foulkes estimate   =    -706.22491552 Ry
     estimated scf accuracy    <       0.27859265 Ry

     iteration # 12     ecut=    40.00 Ry     beta= 0.60
     Davidson diagonalization with overlap
     ethr =  8.24E-05,  avg # of iterations =  5.3

     total cpu time spent up to now is     3797.3 secs

     total energy              =    -706.21237684 Ry
     Harris-Foulkes estimate   =    -706.22500483 Ry
     estimated scf accuracy    <       0.22030971 Ry

     iteration # 13     ecut=    40.00 Ry     beta= 0.60
     Davidson diagonalization with overlap
     ethr =  8.24E-05,  avg # of iterations =  1.0

     total cpu time spent up to now is     3805.4 secs

     total energy              =    -706.18142031 Ry
     Harris-Foulkes estimate   =    -706.21332116 Ry
     estimated scf accuracy    <       0.14926842 Ry

     iteration # 14     ecut=    40.00 Ry     beta= 0.60
     Davidson diagonalization with overlap
     ethr =  8.24E-05,  avg # of iterations =  4.8

     total cpu time spent up to now is     3819.3 secs

     total energy              =    -706.20066645 Ry
     Harris-Foulkes estimate   =    -706.20717969 Ry
     estimated scf accuracy    <       0.05282340 Ry

     iteration # 15     ecut=    40.00 Ry     beta= 0.60
     Davidson diagonalization with overlap
     ethr =  6.86E-05,  avg # of iterations =  1.0

     total cpu time spent up to now is     3827.5 secs

     total energy              =    -706.20254880 Ry
     Harris-Foulkes estimate   =    -706.20289676 Ry
     estimated scf accuracy    <       0.00383717 Ry

     iteration # 16     ecut=    40.00 Ry     beta= 0.60
     Davidson diagonalization with overlap
     ethr =  4.98E-06,  avg # of iterations =  5.2

     total cpu time spent up to now is     3841.9 secs

     total energy              =    -706.20361044 Ry
     Harris-Foulkes estimate   =    -706.20355836 Ry
     estimated scf accuracy    <       0.00028800 Ry

     iteration # 17     ecut=    40.00 Ry     beta= 0.60
     Davidson diagonalization with overlap
     ethr =  3.74E-07,  avg # of iterations =  3.3

     total cpu time spent up to now is     3851.6 secs

     total energy              =    -706.20347377 Ry
     Harris-Foulkes estimate   =    -706.20364170 Ry
     estimated scf accuracy    <       0.00127174 Ry

     iteration # 18     ecut=    40.00 Ry     beta= 0.60
     Davidson diagonalization with overlap
     ethr =  3.74E-07,  avg # of iterations =  3.7

     total cpu time spent up to now is     3862.0 secs

     total energy              =    -706.20352907 Ry
     Harris-Foulkes estimate   =    -706.20353393 Ry
     estimated scf accuracy    <       0.00005816 Ry

     iteration # 19     ecut=    40.00 Ry     beta= 0.60
     Davidson diagonalization with overlap
     ethr =  7.55E-08,  avg # of iterations =  2.1

     total cpu time spent up to now is     3870.9 secs

     total energy              =    -706.20353071 Ry
     Harris-Foulkes estimate   =    -706.20353155 Ry
     estimated scf accuracy    <       0.00001355 Ry

     iteration # 20     ecut=    40.00 Ry     beta= 0.60
     Davidson diagonalization with overlap
     ethr =  1.76E-08,  avg # of iterations =  3.7

     total cpu time spent up to now is     3881.5 secs

     total energy              =    -706.20353173 Ry
     Harris-Foulkes estimate   =    -706.20353185 Ry
     estimated scf accuracy    <       0.00000127 Ry

     iteration # 21     ecut=    40.00 Ry     beta= 0.60
     Davidson diagonalization with overlap
     ethr =  1.64E-09,  avg # of iterations =  3.1

     total cpu time spent up to now is     3891.5 secs

     total energy              =    -706.20353180 Ry
     Harris-Foulkes estimate   =    -706.20353183 Ry
     estimated scf accuracy    <       0.00000025 Ry

     iteration # 22     ecut=    40.00 Ry     beta= 0.60
     Davidson diagonalization with overlap
     ethr =  3.29E-10,  avg # of iterations =  3.7

     total cpu time spent up to now is     3902.3 secs

     total energy              =    -706.20353183 Ry
     Harris-Foulkes estimate   =    -706.20353183 Ry
     estimated scf accuracy    <          3.5E-09 Ry

     iteration # 23     ecut=    40.00 Ry     beta= 0.60
     Davidson diagonalization with overlap
     ethr =  4.55E-12,  avg # of iterations =  4.3

     total cpu time spent up to now is     3915.1 secs

     total energy              =    -706.20353183 Ry
     Harris-Foulkes estimate   =    -706.20353183 Ry
     estimated scf accuracy    <          6.9E-10 Ry

     iteration # 24     ecut=    40.00 Ry     beta= 0.60
     Davidson diagonalization with overlap
     ethr =  8.94E-13,  avg # of iterations =  2.6

     total cpu time spent up to now is     3924.7 secs

     total energy              =    -706.20353183 Ry
     Harris-Foulkes estimate   =    -706.20353183 Ry
     estimated scf accuracy    <          9.4E-10 Ry

     iteration # 25     ecut=    40.00 Ry     beta= 0.60
     Davidson diagonalization with overlap
     ethr =  8.94E-13,  avg # of iterations =  1.0

     total cpu time spent up to now is     3932.9 secs

     total energy              =    -706.20353183 Ry
     Harris-Foulkes estimate   =    -706.20353183 Ry
     estimated scf accuracy    <          4.9E-10 Ry

     iteration # 26     ecut=    40.00 Ry     beta= 0.60
     Davidson diagonalization with overlap
     ethr =  6.37E-13,  avg # of iterations =  3.0

     total cpu time spent up to now is     3942.6 secs

     total energy              =    -706.20353183 Ry
     Harris-Foulkes estimate   =    -706.20353183 Ry
     estimated scf accuracy    <          2.5E-12 Ry

     iteration # 27     ecut=    40.00 Ry     beta= 0.60
     Davidson diagonalization with overlap
     ethr =  1.00E-13,  avg # of iterations =  2.9

     total cpu time spent up to now is     3952.3 secs

     End of self-consistent calculation

     Number of k-points >= 100: set verbosity='high' to print the bands.

     the Fermi energy is    17.0457 ev

!    total energy              =    -706.20353183 Ry
     Harris-Foulkes estimate   =    -706.20353183 Ry
     estimated scf accuracy    <          6.4E-13 Ry

     The total energy is the sum of the following terms:

     one-electron contribution =    -129.48206142 Ry
     hartree contribution      =     101.95465950 Ry
     xc contribution           =    -106.64736948 Ry
     ewald contribution        =    -572.02752875 Ry
     smearing contrib. (-TS)   =      -0.00123167 Ry

     convergence has been achieved in  27 iterations

     Forces acting on atoms (cartesian axes, Ry/au):

     atom    1 type  2   force =     0.00000000    0.00000000    0.00000000
     atom    2 type  1   force =    -0.00000000    0.00001141   -0.00000000
     atom    3 type  1   force =     0.00000000   -0.00000000    0.00000000
     atom    4 type  1   force =     0.00000988   -0.00000570    0.00000000
     atom    5 type  1   force =    -0.00000000    0.00000000   -0.00000000
     atom    6 type  1   force =    -0.00000988   -0.00000570    0.00000000

     Total force =     0.000020     Total SCF correction =     0.000000


     Computing stress (Cartesian axis) and pressure

          total   stress  (Ry/bohr**3)                   (kbar)     P=   -0.03
  -0.00000164   0.00000000  -0.00000000         -0.24      0.00     -0.00
   0.00000000  -0.00000164  -0.00000000          0.00     -0.24     -0.00
  -0.00000000  -0.00000000   0.00000276         -0.00     -0.00      0.41

 
     init_run     :     12.45s CPU     13.19s WALL (       2 calls)
     electrons    :   3438.40s CPU   3814.61s WALL (      15 calls)
     update_pot   :     18.09s CPU     18.21s WALL (      13 calls)
     forces       :     28.03s CPU     29.50s WALL (      15 calls)
     stress       :     68.75s CPU     73.15s WALL (      15 calls)

     Called by init_run:
     wfcinit      :     10.46s CPU     10.71s WALL (       2 calls)
     potinit      :      0.58s CPU      0.59s WALL (       2 calls)
     hinit0       :      1.12s CPU      1.41s WALL (       2 calls)

     Called by electrons:
     c_bands      :   2944.27s CPU   3209.13s WALL (     252 calls)
     sum_band     :    452.38s CPU    482.95s WALL (     252 calls)
     v_of_rho     :      8.85s CPU      8.92s WALL (     262 calls)
     newd         :     33.44s CPU     57.67s WALL (     262 calls)
     mix_rho      :      1.19s CPU      1.20s WALL (     252 calls)

     Called by c_bands:
     init_us_2    :     38.90s CPU     39.32s WALL (   60032 calls)
     cegterg      :   2713.21s CPU   2756.80s WALL (   28224 calls)

     Called by sum_band:
     sum_band:bec :      1.55s CPU      1.59s WALL (   28224 calls)
     addusdens    :     40.13s CPU     62.49s WALL (     252 calls)

     Called by *egterg:
     h_psi        :   1723.49s CPU   1762.57s WALL (  121510 calls)
     s_psi        :     88.23s CPU     88.59s WALL (  121510 calls)
     g_psi        :     14.26s CPU     14.44s WALL (   93062 calls)
     cdiaghg      :    524.29s CPU    525.89s WALL (  119270 calls)

     Called by h_psi:
     h_psi:pot    :   1715.89s CPU   1754.45s WALL (  121510 calls)
     h_psi:calbec :    101.87s CPU    102.85s WALL (  121510 calls)
     vloc_psi     :   1521.55s CPU   1558.71s WALL (  121510 calls)
     add_vuspsi   :     91.94s CPU     92.17s WALL (  121510 calls)

     General routines
     calbec       :    149.39s CPU    150.65s WALL (  158134 calls)
     fft          :      5.57s CPU      5.98s WALL (    3784 calls)
     ffts         :      0.20s CPU      0.22s WALL (     514 calls)
     fftw         :   1651.91s CPU   1686.68s WALL ( 8095026 calls)
     interpolate  :      0.49s CPU      0.50s WALL (     262 calls)
 
     Parallel routines
     fft_scatt_xy :    290.09s CPU    297.94s WALL ( 8099324 calls)
     fft_scatt_yz :    326.31s CPU    327.65s WALL ( 8099324 calls)
 
     PWSCF        : 59m27.86s CPU       59h 1m WALL

       5h
 
   This run was terminated on:  10:15:57  27Jan2020            

=------------------------------------------------------------------------------=
   JOB DONE.
=------------------------------------------------------------------------------=
