
     Program PWSCF v.6.0 (svn rev. 13079) starts on 26Apr2018 at 18:20:42 

     This program is part of the open-source Quantum ESPRESSO suite
     for quantum simulation of materials; please cite
         "P. Giannozzi et al., J. Phys.:Condens. Matter 21 395502 (2009);
          URL http://www.quantum-espresso.org", 
     in publications or presentations arising from this work. More details at
     http://www.quantum-espresso.org/quote

     Parallel version (MPI), running on     4 processors
     R & G space division:  proc/nbgrp/npool/nimage =       4
     Waiting for input...
     Reading input from standard input

     Current dimensions of program PWSCF are:
     Max number of different atomic species (ntypx) = 10
     Max number of k-points (npk) =  40000
     Max angular momentum in pseudopotentials (lmaxx) =  3

     Subspace diagonalization in iterative solution of the eigenvalue problem:
     a serial algorithm will be used


     Parallelization info
     --------------------
     sticks:   dense  smooth     PW     G-vecs:    dense   smooth      PW
     Min         762     303     91                20782     5255     869
     Max         763     304     93                20783     5258     870
     Sum        3049    1213    367                83129    21025    3477



     bravais-lattice index     =            0
     lattice parameter (alat)  =       1.8897  a.u.
     unit-cell volume          =     440.0051 (a.u.)^3
     number of atoms/cell      =            3
     number of atomic types    =            2
     number of electrons       =        38.00
     number of Kohn-Sham states=           23
     kinetic-energy cutoff     =      50.0000  Ry
     charge density cutoff     =     500.0000  Ry
     convergence threshold     =      1.0E-10
     mixing beta               =       0.6000
     number of iterations used =            8  plain     mixing
     Exchange-correlation      = SLA  PW   PBE  PBE ( 1  4  3  4 0 0)
     nstep                     =           50


     celldm(1)=   1.889726  celldm(2)=   0.000000  celldm(3)=   0.000000
     celldm(4)=   0.000000  celldm(5)=   0.000000  celldm(6)=   0.000000

     crystal axes: (cart. coord. in units of alat)
               a(1) = (   0.000000  -3.516063  -3.516063 )  
               a(2) = (  -3.516063   3.516063   0.000000 )  
               a(3) = (   1.758031   1.758031  -1.758031 )  

     reciprocal axes: (cart. coord. in units 2 pi/alat)
               b(1) = ( -0.094803 -0.094803 -0.189606 )  
               b(2) = ( -0.189606  0.094803 -0.094803 )  
               b(3) = (  0.189606  0.189606 -0.189606 )  


     PseudoPot. # 1 for Nb read from file:
     ./Nb.pbe-nsp-van.UPF
     MD5 check sum: 0a22fc7fb0ba19a08ca5db297a5d2854
     Pseudo is Ultrasoft + core correction, Zval = 13.0
     Generated by new atomic code, or converted to UPF format
     Using radial grid of  887 points,  6 beta functions with: 
                l(1) =   0
                l(2) =   0
                l(3) =   1
                l(4) =   1
                l(5) =   2
                l(6) =   2
     Q(r) pseudized with  6 coefficients,  rinner =    1.000   1.000   1.000
                                                       1.000   1.000

     PseudoPot. # 2 for Ti read from file:
     ./Ti.pbe-sp-van_ak.UPF
     MD5 check sum: f98fea3e8887528921fefa5636a534ca
     Pseudo is Ultrasoft, Zval = 12.0
     Generated by new atomic code, or converted to UPF format
     Using radial grid of  851 points,  6 beta functions with: 
                l(1) =   0
                l(2) =   0
                l(3) =   1
                l(4) =   1
                l(5) =   2
                l(6) =   2
     Q(r) pseudized with  8 coefficients,  rinner =    1.000   1.000   1.000
                                                       1.000   1.000

     atomic species   valence    mass     pseudopotential
        Nb            13.00    92.90638     Nb( 1.00)
        Ti            12.00    47.86700     Ti( 1.00)

     12 Sym. Ops., with inversion, found



   Cartesian axes

     site n.     atom                  positions (alat units)
         1           Ti  tau(   1) = (  -1.7580316   1.7580316  -5.2740949  )
         2           Nb  tau(   2) = (   0.0000000   0.0000000  -3.5160633  )
         3           Nb  tau(   3) = (  -1.7580316   1.7580316  -1.7580316  )

     number of k points=   298  Marzari-Vanderbilt smearing, width (Ry)=  0.0200

     Number of k-points >= 100: set verbosity='high' to print them.

     Dense  grid:    83129 G-vectors     FFT dimensions: (  72,  72,  45)

     Smooth grid:    21025 G-vectors     FFT dimensions: (  45,  45,  25)

     Estimated max dynamical RAM per process >      84.29Mb

     Estimated total allocated dynamical RAM >     337.17Mb

     Initial potential from superposition of free atoms

     starting charge   36.99449, renormalised to   38.00000
     Starting wfc are   36 randomized atomic wfcs

     total cpu time spent up to now is       13.4 secs

     per-process dynamical memory:   152.1 Mb

     Self-consistent Calculation

     iteration #  1     ecut=    50.00 Ry     beta=0.60
     Davidson diagonalization with overlap
     ethr =  1.00E-02,  avg # of iterations =  2.5

     total cpu time spent up to now is       37.5 secs

     total energy              =    -338.75585035 Ry
     Harris-Foulkes estimate   =    -353.91747534 Ry
     estimated scf accuracy    <      19.07209053 Ry

     iteration #  2     ecut=    50.00 Ry     beta=0.60
     Davidson diagonalization with overlap
     ethr =  1.00E-02,  avg # of iterations =  7.3

     total cpu time spent up to now is       83.8 secs

     total energy              =    -341.14615616 Ry
     Harris-Foulkes estimate   =    -372.85784970 Ry
     estimated scf accuracy    <     100.86846783 Ry

     iteration #  3     ecut=    50.00 Ry     beta=0.60
     Davidson diagonalization with overlap
     ethr =  1.00E-02,  avg # of iterations =  4.9

     total cpu time spent up to now is      119.0 secs

     total energy              =    -353.57653360 Ry
     Harris-Foulkes estimate   =    -354.01799889 Ry
     estimated scf accuracy    <       5.21679327 Ry

     iteration #  4     ecut=    50.00 Ry     beta=0.60
     Davidson diagonalization with overlap
     ethr =  1.00E-02,  avg # of iterations =  1.0

     total cpu time spent up to now is      139.8 secs

     total energy              =    -352.36022936 Ry
     Harris-Foulkes estimate   =    -353.58980940 Ry
     estimated scf accuracy    <       4.39916861 Ry

     iteration #  5     ecut=    50.00 Ry     beta=0.60
     Davidson diagonalization with overlap
     ethr =  1.00E-02,  avg # of iterations =  2.1

     total cpu time spent up to now is      163.3 secs

     total energy              =    -352.64361667 Ry
     Harris-Foulkes estimate   =    -352.50974238 Ry
     estimated scf accuracy    <       1.42460889 Ry

     iteration #  6     ecut=    50.00 Ry     beta=0.60
     Davidson diagonalization with overlap
     ethr =  3.75E-03,  avg # of iterations =  1.2

     total cpu time spent up to now is      182.1 secs

     total energy              =    -352.42808036 Ry
     Harris-Foulkes estimate   =    -352.67257387 Ry
     estimated scf accuracy    <       1.75923608 Ry

     iteration #  7     ecut=    50.00 Ry     beta=0.60
     Davidson diagonalization with overlap
     ethr =  3.75E-03,  avg # of iterations =  1.3

     total cpu time spent up to now is      201.0 secs

     total energy              =    -352.11795687 Ry
     Harris-Foulkes estimate   =    -352.46119712 Ry
     estimated scf accuracy    <       0.95082474 Ry

     iteration #  8     ecut=    50.00 Ry     beta=0.60
     Davidson diagonalization with overlap
     ethr =  2.50E-03,  avg # of iterations =  4.1

     total cpu time spent up to now is      231.2 secs

     total energy              =    -352.37831346 Ry
     Harris-Foulkes estimate   =    -352.90968183 Ry
     estimated scf accuracy    <       9.93061508 Ry

     iteration #  9     ecut=    50.00 Ry     beta=0.60
     Davidson diagonalization with overlap
     ethr =  2.50E-03,  avg # of iterations =  1.1

     total cpu time spent up to now is      249.8 secs

     total energy              =    -352.47433660 Ry
     Harris-Foulkes estimate   =    -352.49945122 Ry
     estimated scf accuracy    <       2.61308268 Ry

     iteration # 10     ecut=    50.00 Ry     beta=0.60
     Davidson diagonalization with overlap
     ethr =  2.50E-03,  avg # of iterations =  1.2

     total cpu time spent up to now is      268.6 secs

     total energy              =    -352.69041049 Ry
     Harris-Foulkes estimate   =    -352.48878496 Ry
     estimated scf accuracy    <       1.95349400 Ry

     iteration # 11     ecut=    50.00 Ry     beta=0.60
     Davidson diagonalization with overlap
     ethr =  2.50E-03,  avg # of iterations =  1.0

     total cpu time spent up to now is      287.8 secs

     total energy              =    -352.91107167 Ry
     Harris-Foulkes estimate   =    -352.78258730 Ry
     estimated scf accuracy    <       6.94082117 Ry

     iteration # 12     ecut=    50.00 Ry     beta=0.60
     Davidson diagonalization with overlap
     ethr =  2.50E-03,  avg # of iterations =  1.1

     total cpu time spent up to now is      307.0 secs

     total energy              =    -352.27860663 Ry
     Harris-Foulkes estimate   =    -352.92795096 Ry
     estimated scf accuracy    <       9.95961928 Ry

     iteration # 13     ecut=    50.00 Ry     beta=0.60
     Davidson diagonalization with overlap
     ethr =  2.50E-03,  avg # of iterations =  1.2

     total cpu time spent up to now is      325.6 secs

     total energy              =    -352.55644930 Ry
     Harris-Foulkes estimate   =    -352.45988321 Ry
     estimated scf accuracy    <       1.53175082 Ry

     iteration # 14     ecut=    50.00 Ry     beta=0.60
     Davidson diagonalization with overlap
     ethr =  2.50E-03,  avg # of iterations =  1.0

     total cpu time spent up to now is      343.9 secs

     total energy              =    -352.06002209 Ry
     Harris-Foulkes estimate   =    -352.59461321 Ry
     estimated scf accuracy    <       4.04648311 Ry

     iteration # 15     ecut=    50.00 Ry     beta=0.60
     Davidson diagonalization with overlap
     ethr =  2.50E-03,  avg # of iterations =  4.6

     total cpu time spent up to now is      368.3 secs

     total energy              =    -352.47862102 Ry
     Harris-Foulkes estimate   =    -352.51715425 Ry
     estimated scf accuracy    <       0.67218678 Ry

     iteration # 16     ecut=    50.00 Ry     beta=0.60
     Davidson diagonalization with overlap
     ethr =  1.77E-03,  avg # of iterations =  1.1

     total cpu time spent up to now is      386.7 secs

     total energy              =    -352.45304601 Ry
     Harris-Foulkes estimate   =    -352.48335453 Ry
     estimated scf accuracy    <       0.44760021 Ry

     iteration # 17     ecut=    50.00 Ry     beta=0.60
     Davidson diagonalization with overlap
     ethr =  1.18E-03,  avg # of iterations =  1.0

     total cpu time spent up to now is      405.0 secs

     total energy              =    -352.43229813 Ry
     Harris-Foulkes estimate   =    -352.45891172 Ry
     estimated scf accuracy    <       0.18725140 Ry

     iteration # 18     ecut=    50.00 Ry     beta=0.60
     Davidson diagonalization with overlap
     ethr =  4.93E-04,  avg # of iterations =  3.5

     total cpu time spent up to now is      426.7 secs

     total energy              =    -352.45207422 Ry
     Harris-Foulkes estimate   =    -352.45176984 Ry
     estimated scf accuracy    <       0.03192964 Ry

     iteration # 19     ecut=    50.00 Ry     beta=0.60
     Davidson diagonalization with overlap
     ethr =  8.40E-05,  avg # of iterations =  5.1

     total cpu time spent up to now is      455.4 secs

     total energy              =    -352.43988297 Ry
     Harris-Foulkes estimate   =    -352.46388791 Ry
     estimated scf accuracy    <       0.33062517 Ry

     iteration # 20     ecut=    50.00 Ry     beta=0.60
     Davidson diagonalization with overlap
     ethr =  8.40E-05,  avg # of iterations =  3.6

     total cpu time spent up to now is      476.9 secs

     total energy              =    -352.44284814 Ry
     Harris-Foulkes estimate   =    -352.44767871 Ry
     estimated scf accuracy    <       0.03766736 Ry

     iteration # 21     ecut=    50.00 Ry     beta=0.60
     Davidson diagonalization with overlap
     ethr =  8.40E-05,  avg # of iterations =  4.1

     total cpu time spent up to now is      500.2 secs

     total energy              =    -352.44727668 Ry
     Harris-Foulkes estimate   =    -352.44759642 Ry
     estimated scf accuracy    <       0.00570466 Ry

     iteration # 22     ecut=    50.00 Ry     beta=0.60
     Davidson diagonalization with overlap
     ethr =  1.50E-05,  avg # of iterations =  5.7

     total cpu time spent up to now is      528.8 secs

     total energy              =    -352.45160058 Ry
     Harris-Foulkes estimate   =    -352.44834929 Ry
     estimated scf accuracy    <       0.01390329 Ry

     iteration # 23     ecut=    50.00 Ry     beta=0.60
     Davidson diagonalization with overlap
     ethr =  1.50E-05,  avg # of iterations =  6.0

     total cpu time spent up to now is      558.5 secs

     total energy              =    -352.44999677 Ry
     Harris-Foulkes estimate   =    -352.45436225 Ry
     estimated scf accuracy    <       0.10262814 Ry

     iteration # 24     ecut=    50.00 Ry     beta=0.60
     Davidson diagonalization with overlap
     ethr =  1.50E-05,  avg # of iterations =  1.3

     total cpu time spent up to now is      577.2 secs

     total energy              =    -352.44274486 Ry
     Harris-Foulkes estimate   =    -352.45042495 Ry
     estimated scf accuracy    <       0.06272346 Ry

     iteration # 25     ecut=    50.00 Ry     beta=0.60
     Davidson diagonalization with overlap
     ethr =  1.50E-05,  avg # of iterations =  5.2

     total cpu time spent up to now is      608.3 secs

     total energy              =    -352.44711949 Ry
     Harris-Foulkes estimate   =    -352.44725108 Ry
     estimated scf accuracy    <       0.00086920 Ry

     iteration # 26     ecut=    50.00 Ry     beta=0.60
     Davidson diagonalization with overlap
     ethr =  2.29E-06,  avg # of iterations =  2.5

     total cpu time spent up to now is      628.5 secs

     total energy              =    -352.44718917 Ry
     Harris-Foulkes estimate   =    -352.44720112 Ry
     estimated scf accuracy    <       0.00018250 Ry

     iteration # 27     ecut=    50.00 Ry     beta=0.60
     Davidson diagonalization with overlap
     ethr =  4.80E-07,  avg # of iterations =  3.8

     total cpu time spent up to now is      651.3 secs

     total energy              =    -352.44714481 Ry
     Harris-Foulkes estimate   =    -352.44720918 Ry
     estimated scf accuracy    <       0.00028690 Ry

     iteration # 28     ecut=    50.00 Ry     beta=0.60
     Davidson diagonalization with overlap
     ethr =  4.80E-07,  avg # of iterations =  3.7

     total cpu time spent up to now is      673.4 secs

     total energy              =    -352.44717957 Ry
     Harris-Foulkes estimate   =    -352.44717808 Ry
     estimated scf accuracy    <       0.00003748 Ry

     iteration # 29     ecut=    50.00 Ry     beta=0.60
     Davidson diagonalization with overlap
     ethr =  9.86E-08,  avg # of iterations =  3.9

     total cpu time spent up to now is      699.3 secs

     total energy              =    -352.44717407 Ry
     Harris-Foulkes estimate   =    -352.44718614 Ry
     estimated scf accuracy    <       0.00013565 Ry

     iteration # 30     ecut=    50.00 Ry     beta=0.60
     Davidson diagonalization with overlap
     ethr =  9.86E-08,  avg # of iterations =  1.3

     total cpu time spent up to now is      717.9 secs

     total energy              =    -352.44717524 Ry
     Harris-Foulkes estimate   =    -352.44717738 Ry
     estimated scf accuracy    <       0.00002391 Ry

     iteration # 31     ecut=    50.00 Ry     beta=0.60
     Davidson diagonalization with overlap
     ethr =  6.29E-08,  avg # of iterations =  3.1

     total cpu time spent up to now is      738.8 secs

     total energy              =    -352.44717690 Ry
     Harris-Foulkes estimate   =    -352.44717694 Ry
     estimated scf accuracy    <       0.00000034 Ry

     iteration # 32     ecut=    50.00 Ry     beta=0.60
     Davidson diagonalization with overlap
     ethr =  8.98E-10,  avg # of iterations =  5.2

     total cpu time spent up to now is      769.3 secs

     total energy              =    -352.44717751 Ry
     Harris-Foulkes estimate   =    -352.44717750 Ry
     estimated scf accuracy    <       0.00000086 Ry

     iteration # 33     ecut=    50.00 Ry     beta=0.60
     Davidson diagonalization with overlap
     ethr =  8.98E-10,  avg # of iterations =  1.0

     total cpu time spent up to now is      787.7 secs

     total energy              =    -352.44717744 Ry
     Harris-Foulkes estimate   =    -352.44717751 Ry
     estimated scf accuracy    <       0.00000095 Ry

     iteration # 34     ecut=    50.00 Ry     beta=0.60
     Davidson diagonalization with overlap
     ethr =  8.98E-10,  avg # of iterations =  1.0

     total cpu time spent up to now is      806.1 secs

     total energy              =    -352.44717742 Ry
     Harris-Foulkes estimate   =    -352.44717745 Ry
     estimated scf accuracy    <       0.00000024 Ry

     iteration # 35     ecut=    50.00 Ry     beta=0.60
     Davidson diagonalization with overlap
     ethr =  6.31E-10,  avg # of iterations =  3.3

     total cpu time spent up to now is      828.1 secs

     total energy              =    -352.44717745 Ry
     Harris-Foulkes estimate   =    -352.44717745 Ry
     estimated scf accuracy    <       0.00000003 Ry

     iteration # 36     ecut=    50.00 Ry     beta=0.60
     Davidson diagonalization with overlap
     ethr =  8.90E-11,  avg # of iterations =  2.3

     total cpu time spent up to now is      848.1 secs

     total energy              =    -352.44717745 Ry
     Harris-Foulkes estimate   =    -352.44717745 Ry
     estimated scf accuracy    <       0.00000003 Ry

     iteration # 37     ecut=    50.00 Ry     beta=0.60
     Davidson diagonalization with overlap
     ethr =  7.52E-11,  avg # of iterations =  1.1

     total cpu time spent up to now is      866.6 secs

     total energy              =    -352.44717745 Ry
     Harris-Foulkes estimate   =    -352.44717745 Ry
     estimated scf accuracy    <          4.2E-09 Ry

     iteration # 38     ecut=    50.00 Ry     beta=0.60
     Davidson diagonalization with overlap
     ethr =  1.10E-11,  avg # of iterations =  3.7

     total cpu time spent up to now is      889.1 secs

     total energy              =    -352.44717745 Ry
     Harris-Foulkes estimate   =    -352.44717745 Ry
     estimated scf accuracy    <          1.3E-10 Ry

     iteration # 39     ecut=    50.00 Ry     beta=0.60
     Davidson diagonalization with overlap
     ethr =  3.34E-13,  avg # of iterations =  4.9

     total cpu time spent up to now is      917.2 secs

     End of self-consistent calculation

     Number of k-points >= 100: set verbosity='high' to print the bands.

     the Fermi energy is    12.9065 ev

!    total energy              =    -352.44717745 Ry
     Harris-Foulkes estimate   =    -352.44717745 Ry
     estimated scf accuracy    <          7.6E-11 Ry

     The total energy is the sum of the following terms:

     one-electron contribution =     -99.79561758 Ry
     hartree contribution      =      62.02318480 Ry
     xc contribution           =     -50.87019086 Ry
     ewald contribution        =    -263.80475566 Ry
     smearing contrib. (-TS)   =       0.00020186 Ry

     convergence has been achieved in  39 iterations

     Forces acting on atoms (Ry/au):

     atom    1 type  2   force =     0.00000000    0.00000000    0.00000000
     atom    2 type  1   force =    -0.00970633   -0.00970633    0.00970633
     atom    3 type  1   force =     0.00970633    0.00970633   -0.00970633

     Total force =     0.023776     Total SCF correction =     0.000002


     entering subroutine stress ...

          total   stress  (Ry/bohr**3)                   (kbar)     P= -207.92
  -0.00141342  -0.00001664   0.00001664       -207.92     -2.45      2.45
  -0.00001664  -0.00141342   0.00001664         -2.45   -207.92      2.45
   0.00001664   0.00001664  -0.00141342          2.45      2.45   -207.92


     BFGS Geometry Optimization

     number of scf cycles    =   1
     number of bfgs steps    =   0

     enthalpy new            =    -352.4471774471 Ry

     new trust radius        =       0.1482625090 bohr
     new conv_thr            =            1.0E-10 Ry

     new unit-cell volume =    394.99013 a.u.^3 (    58.53150 Ang^3 )

CELL_PARAMETERS (alat=  1.88972599)
   0.000000000  -3.393283750  -3.393283750
  -3.393283750   3.393283750   0.000000000
   1.694447531   1.694447531  -1.694447531

ATOMIC_POSITIONS (angstrom)
Ti      -1.698836219   1.694447531  -5.087731281
Nb      -0.006413493  -0.006413493  -3.386870257
Nb      -1.692422726   1.700861024  -1.700861024


     NEW-OLD atomic charge density approx. for the potential
     extrapolated charge   33.78393, renormalised to   38.00000

     total cpu time spent up to now is      930.3 secs

     per-process dynamical memory:   153.1 Mb

     Self-consistent Calculation

     iteration #  1     ecut=    50.00 Ry     beta=0.60
     Davidson diagonalization with overlap
     c_bands:  1 eigenvalues not converged
     c_bands:  1 eigenvalues not converged
     c_bands:  2 eigenvalues not converged
     c_bands:  1 eigenvalues not converged
     c_bands:  1 eigenvalues not converged
     c_bands:  1 eigenvalues not converged
     c_bands:  1 eigenvalues not converged
     c_bands:  1 eigenvalues not converged
     c_bands:  1 eigenvalues not converged
     c_bands:  1 eigenvalues not converged
     c_bands:  1 eigenvalues not converged
     c_bands:  1 eigenvalues not converged
     c_bands:  1 eigenvalues not converged
     c_bands:  1 eigenvalues not converged
     c_bands:  1 eigenvalues not converged
     c_bands:  1 eigenvalues not converged
     c_bands:  1 eigenvalues not converged
     c_bands:  1 eigenvalues not converged
     c_bands:  1 eigenvalues not converged
     c_bands:  1 eigenvalues not converged
     c_bands:  1 eigenvalues not converged
     c_bands:  1 eigenvalues not converged
     c_bands:  1 eigenvalues not converged
     c_bands:  1 eigenvalues not converged
     c_bands:  1 eigenvalues not converged
     c_bands:  1 eigenvalues not converged
     c_bands:  1 eigenvalues not converged
     c_bands:  1 eigenvalues not converged
     c_bands:  2 eigenvalues not converged
     c_bands:  1 eigenvalues not converged
     c_bands:  1 eigenvalues not converged
     c_bands:  1 eigenvalues not converged
     c_bands:  2 eigenvalues not converged
     c_bands:  1 eigenvalues not converged
     c_bands:  1 eigenvalues not converged
     c_bands:  1 eigenvalues not converged
     c_bands:  1 eigenvalues not converged
     c_bands:  1 eigenvalues not converged
     c_bands:  1 eigenvalues not converged
     c_bands:  1 eigenvalues not converged
     c_bands:  1 eigenvalues not converged
     c_bands:  1 eigenvalues not converged
     c_bands:  1 eigenvalues not converged
     c_bands:  1 eigenvalues not converged
     c_bands:  1 eigenvalues not converged
     c_bands:  1 eigenvalues not converged
     c_bands:  1 eigenvalues not converged
     ethr =  1.00E-06,  avg # of iterations = 15.4

     total cpu time spent up to now is     1011.3 secs

     total energy              =    -331.82316026 Ry
     Harris-Foulkes estimate   =    -360.19782429 Ry
     estimated scf accuracy    <      23.45700343 Ry

     iteration #  2     ecut=    50.00 Ry     beta=0.60
     Davidson diagonalization with overlap
     ethr =  1.00E-02,  avg # of iterations =  6.5

     total cpu time spent up to now is     1052.9 secs

     total energy              =    -344.49787987 Ry
     Harris-Foulkes estimate   =    -380.70815342 Ry
     estimated scf accuracy    <     113.23190889 Ry

     iteration #  3     ecut=    50.00 Ry     beta=0.60
     Davidson diagonalization with overlap
     ethr =  1.00E-02,  avg # of iterations =  5.0

     total cpu time spent up to now is     1087.3 secs

     total energy              =    -354.13210052 Ry
     Harris-Foulkes estimate   =    -355.88935659 Ry
     estimated scf accuracy    <       8.42402851 Ry

     iteration #  4     ecut=    50.00 Ry     beta=0.60
     Davidson diagonalization with overlap
     ethr =  1.00E-02,  avg # of iterations =  1.0

     total cpu time spent up to now is     1105.8 secs

     total energy              =    -352.69419382 Ry
     Harris-Foulkes estimate   =    -354.24045124 Ry
     estimated scf accuracy    <       5.56216268 Ry

     iteration #  5     ecut=    50.00 Ry     beta=0.60
     Davidson diagonalization with overlap
     ethr =  1.00E-02,  avg # of iterations =  2.0

     total cpu time spent up to now is     1126.0 secs

     total energy              =    -352.86052641 Ry
     Harris-Foulkes estimate   =    -352.89523171 Ry
     estimated scf accuracy    <       2.33922024 Ry

     iteration #  6     ecut=    50.00 Ry     beta=0.60
     Davidson diagonalization with overlap
     ethr =  6.16E-03,  avg # of iterations =  1.0

     total cpu time spent up to now is     1144.5 secs

     total energy              =    -352.73160089 Ry
     Harris-Foulkes estimate   =    -352.88065086 Ry
     estimated scf accuracy    <       2.16465554 Ry

     iteration #  7     ecut=    50.00 Ry     beta=0.60
     Davidson diagonalization with overlap
     ethr =  5.70E-03,  avg # of iterations =  1.0

     total cpu time spent up to now is     1163.0 secs

     total energy              =    -352.68418578 Ry
     Harris-Foulkes estimate   =    -352.74901856 Ry
     estimated scf accuracy    <       1.64415836 Ry

     iteration #  8     ecut=    50.00 Ry     beta=0.60
     Davidson diagonalization with overlap
     ethr =  4.33E-03,  avg # of iterations =  1.0

     total cpu time spent up to now is     1181.4 secs

     total energy              =    -352.42151335 Ry
     Harris-Foulkes estimate   =    -352.69394107 Ry
     estimated scf accuracy    <       1.43374734 Ry

     iteration #  9     ecut=    50.00 Ry     beta=0.60
     Davidson diagonalization with overlap
     ethr =  3.77E-03,  avg # of iterations =  2.4

     total cpu time spent up to now is     1201.3 secs

     total energy              =    -352.48278175 Ry
     Harris-Foulkes estimate   =    -352.47464719 Ry
     estimated scf accuracy    <       0.44181491 Ry

     iteration # 10     ecut=    50.00 Ry     beta=0.60
     Davidson diagonalization with overlap
     ethr =  1.16E-03,  avg # of iterations =  4.5

     total cpu time spent up to now is     1226.8 secs

     total energy              =    -352.41343545 Ry
     Harris-Foulkes estimate   =    -352.53035344 Ry
     estimated scf accuracy    <       0.13713522 Ry

     iteration # 11     ecut=    50.00 Ry     beta=0.60
     Davidson diagonalization with overlap
     ethr =  3.61E-04,  avg # of iterations =  5.0

     total cpu time spent up to now is     1265.1 secs

     total energy              =    -352.65077944 Ry
     Harris-Foulkes estimate   =    -353.43846775 Ry
     estimated scf accuracy    <      17.94747436 Ry

     iteration # 12     ecut=    50.00 Ry     beta=0.60
     Davidson diagonalization with overlap
     ethr =  3.61E-04,  avg # of iterations =  4.6

     total cpu time spent up to now is     1294.1 secs

     total energy              =    -353.12602406 Ry
     Harris-Foulkes estimate   =    -352.81202078 Ry
     estimated scf accuracy    <       6.07793294 Ry

     iteration # 13     ecut=    50.00 Ry     beta=0.60
     Davidson diagonalization with overlap
     ethr =  3.61E-04,  avg # of iterations =  3.9

     total cpu time spent up to now is     1319.5 secs

     total energy              =    -352.35715509 Ry
     Harris-Foulkes estimate   =    -353.20154338 Ry
     estimated scf accuracy    <      13.71867572 Ry

     iteration # 14     ecut=    50.00 Ry     beta=0.60
     Davidson diagonalization with overlap
     ethr =  3.61E-04,  avg # of iterations =  4.7

     total cpu time spent up to now is     1349.6 secs

     total energy              =    -352.63194133 Ry
     Harris-Foulkes estimate   =    -352.60253988 Ry
     estimated scf accuracy    <       2.05699337 Ry

     iteration # 15     ecut=    50.00 Ry     beta=0.60
     Davidson diagonalization with overlap
     ethr =  3.61E-04,  avg # of iterations =  1.0

     total cpu time spent up to now is     1368.0 secs

     total energy              =    -352.35598235 Ry
     Harris-Foulkes estimate   =    -352.63377546 Ry
     estimated scf accuracy    <       2.54052485 Ry

     iteration # 16     ecut=    50.00 Ry     beta=0.60
     Davidson diagonalization with overlap
     ethr =  3.61E-04,  avg # of iterations =  5.0

     total cpu time spent up to now is     1400.4 secs

     total energy              =    -352.52866541 Ry
     Harris-Foulkes estimate   =    -352.50805953 Ry
     estimated scf accuracy    <       0.02531307 Ry

     iteration # 17     ecut=    50.00 Ry     beta=0.60
     Davidson diagonalization with overlap
     ethr =  6.66E-05,  avg # of iterations =  6.3

     total cpu time spent up to now is     1437.6 secs

     total energy              =    -352.51487983 Ry
     Harris-Foulkes estimate   =    -352.55744688 Ry
     estimated scf accuracy    <       0.35187932 Ry

     iteration # 18     ecut=    50.00 Ry     beta=0.60
     Davidson diagonalization with overlap
     ethr =  6.66E-05,  avg # of iterations =  4.5

     total cpu time spent up to now is     1463.9 secs

     total energy              =    -352.52766591 Ry
     Harris-Foulkes estimate   =    -352.52028652 Ry
     estimated scf accuracy    <       0.13791935 Ry

     iteration # 19     ecut=    50.00 Ry     beta=0.60
     Davidson diagonalization with overlap
     ethr =  6.66E-05,  avg # of iterations =  1.1

     total cpu time spent up to now is     1482.4 secs

     total energy              =    -352.53142619 Ry
     Harris-Foulkes estimate   =    -352.52866432 Ry
     estimated scf accuracy    <       0.20409779 Ry

     iteration # 20     ecut=    50.00 Ry     beta=0.60
     Davidson diagonalization with overlap
     ethr =  6.66E-05,  avg # of iterations =  1.7

     total cpu time spent up to now is     1501.6 secs

     total energy              =    -352.50384887 Ry
     Harris-Foulkes estimate   =    -352.53239932 Ry
     estimated scf accuracy    <       0.25968653 Ry

     iteration # 21     ecut=    50.00 Ry     beta=0.60
     Davidson diagonalization with overlap
     ethr =  6.66E-05,  avg # of iterations =  3.2

     total cpu time spent up to now is     1522.7 secs

     total energy              =    -352.50136462 Ry
     Harris-Foulkes estimate   =    -352.50764291 Ry
     estimated scf accuracy    <       0.10470830 Ry

     iteration # 22     ecut=    50.00 Ry     beta=0.60
     Davidson diagonalization with overlap
     ethr =  6.66E-05,  avg # of iterations =  3.2

     total cpu time spent up to now is     1544.1 secs

     total energy              =    -352.49169400 Ry
     Harris-Foulkes estimate   =    -352.50286783 Ry
     estimated scf accuracy    <       0.04803295 Ry

     iteration # 23     ecut=    50.00 Ry     beta=0.60
     Davidson diagonalization with overlap
     ethr =  6.66E-05,  avg # of iterations =  5.2

     total cpu time spent up to now is     1572.9 secs

     total energy              =    -352.49724221 Ry
     Harris-Foulkes estimate   =    -352.50047588 Ry
     estimated scf accuracy    <       0.02219984 Ry

     iteration # 24     ecut=    50.00 Ry     beta=0.60
     Davidson diagonalization with overlap
     ethr =  5.84E-05,  avg # of iterations =  1.1

     total cpu time spent up to now is     1591.4 secs

     total energy              =    -352.49861160 Ry
     Harris-Foulkes estimate   =    -352.49875228 Ry
     estimated scf accuracy    <       0.00033800 Ry

     iteration # 25     ecut=    50.00 Ry     beta=0.60
     Davidson diagonalization with overlap
     ethr =  8.89E-07,  avg # of iterations =  5.6

     total cpu time spent up to now is     1627.6 secs

     total energy              =    -352.49937502 Ry
     Harris-Foulkes estimate   =    -352.49920136 Ry
     estimated scf accuracy    <       0.00189267 Ry

     iteration # 26     ecut=    50.00 Ry     beta=0.60
     Davidson diagonalization with overlap
     ethr =  8.89E-07,  avg # of iterations =  3.7

     total cpu time spent up to now is     1649.7 secs

     total energy              =    -352.49866452 Ry
     Harris-Foulkes estimate   =    -352.49943273 Ry
     estimated scf accuracy    <       0.00472842 Ry

     iteration # 27     ecut=    50.00 Ry     beta=0.60
     Davidson diagonalization with overlap
     ethr =  8.89E-07,  avg # of iterations =  4.7

     total cpu time spent up to now is     1680.1 secs

     total energy              =    -352.49907054 Ry
     Harris-Foulkes estimate   =    -352.49908803 Ry
     estimated scf accuracy    <       0.00018092 Ry

     iteration # 28     ecut=    50.00 Ry     beta=0.60
     Davidson diagonalization with overlap
     ethr =  4.76E-07,  avg # of iterations =  1.0

     total cpu time spent up to now is     1698.6 secs

     total energy              =    -352.49907211 Ry
     Harris-Foulkes estimate   =    -352.49907544 Ry
     estimated scf accuracy    <       0.00003270 Ry

     iteration # 29     ecut=    50.00 Ry     beta=0.60
     Davidson diagonalization with overlap
     ethr =  8.60E-08,  avg # of iterations =  3.5

     total cpu time spent up to now is     1720.9 secs

     total energy              =    -352.49907587 Ry
     Harris-Foulkes estimate   =    -352.49907588 Ry
     estimated scf accuracy    <       0.00000022 Ry

     iteration # 30     ecut=    50.00 Ry     beta=0.60
     Davidson diagonalization with overlap
     ethr =  5.80E-10,  avg # of iterations =  5.2

     total cpu time spent up to now is     1751.8 secs

     total energy              =    -352.49907626 Ry
     Harris-Foulkes estimate   =    -352.49907638 Ry
     estimated scf accuracy    <       0.00000132 Ry

     iteration # 31     ecut=    50.00 Ry     beta=0.60
     Davidson diagonalization with overlap
     ethr =  5.80E-10,  avg # of iterations =  2.7

     total cpu time spent up to now is     1772.2 secs

     total energy              =    -352.49907627 Ry
     Harris-Foulkes estimate   =    -352.49907629 Ry
     estimated scf accuracy    <       0.00000025 Ry

     iteration # 32     ecut=    50.00 Ry     beta=0.60
     Davidson diagonalization with overlap
     ethr =  5.80E-10,  avg # of iterations =  2.8

     total cpu time spent up to now is     1793.1 secs

     total energy              =    -352.49907628 Ry
     Harris-Foulkes estimate   =    -352.49907629 Ry
     estimated scf accuracy    <          7.7E-09 Ry

     iteration # 33     ecut=    50.00 Ry     beta=0.60
     Davidson diagonalization with overlap
     ethr =  2.03E-11,  avg # of iterations =  4.6

     total cpu time spent up to now is     1820.6 secs

     total energy              =    -352.49907629 Ry
     Harris-Foulkes estimate   =    -352.49907629 Ry
     estimated scf accuracy    <          7.0E-09 Ry

     iteration # 34     ecut=    50.00 Ry     beta=0.60
     Davidson diagonalization with overlap
     ethr =  1.85E-11,  avg # of iterations =  1.0

     total cpu time spent up to now is     1839.0 secs

     total energy              =    -352.49907629 Ry
     Harris-Foulkes estimate   =    -352.49907629 Ry
     estimated scf accuracy    <          1.2E-09 Ry

     iteration # 35     ecut=    50.00 Ry     beta=0.60
     Davidson diagonalization with overlap
     ethr =  3.14E-12,  avg # of iterations =  3.8

     total cpu time spent up to now is     1863.4 secs

     total energy              =    -352.49907629 Ry
     Harris-Foulkes estimate   =    -352.49907629 Ry
     estimated scf accuracy    <          7.8E-10 Ry

     iteration # 36     ecut=    50.00 Ry     beta=0.60
     Davidson diagonalization with overlap
     ethr =  2.05E-12,  avg # of iterations =  1.0

     total cpu time spent up to now is     1881.8 secs

     End of self-consistent calculation

     Number of k-points >= 100: set verbosity='high' to print the bands.

     the Fermi energy is    14.7089 ev

!    total energy              =    -352.49907629 Ry
     Harris-Foulkes estimate   =    -352.49907629 Ry
     estimated scf accuracy    <          2.2E-11 Ry

     The total energy is the sum of the following terms:

     one-electron contribution =     -85.69499383 Ry
     hartree contribution      =      57.80647628 Ry
     xc contribution           =     -51.14537995 Ry
     ewald contribution        =    -273.46487027 Ry
     smearing contrib. (-TS)   =      -0.00030852 Ry

     convergence has been achieved in  36 iterations

     Forces acting on atoms (Ry/au):

     atom    1 type  2   force =     0.00000000    0.00000000   -0.00000000
     atom    2 type  1   force =    -0.00958025   -0.00958025    0.00958025
     atom    3 type  1   force =     0.00958025    0.00958025   -0.00958025

     Total force =     0.023467     Total SCF correction =     0.000001


     entering subroutine stress ...

          total   stress  (Ry/bohr**3)                   (kbar)     P= -118.73
  -0.00080708  -0.00000712   0.00000712       -118.73     -1.05      1.05
  -0.00000712  -0.00080708   0.00000712         -1.05   -118.73      1.05
   0.00000712   0.00000712  -0.00080708          1.05      1.05   -118.73


     number of scf cycles    =   2
     number of bfgs steps    =   1

     enthalpy old            =    -352.4471774471 Ry
     enthalpy new            =    -352.4990762891 Ry

     CASE: enthalpy_new < enthalpy_old

     new trust radius        =       0.1673690435 bohr
     new conv_thr            =            1.0E-10 Ry

     new unit-cell volume =    347.17041 a.u.^3 (    51.44535 Ang^3 )

CELL_PARAMETERS (alat=  1.88972599)
  -0.000000000  -3.251803724  -3.251803724
  -3.251803724   3.251803724   0.000000000
   1.621721554   1.621721554  -1.621721554

ATOMIC_POSITIONS (angstrom)
Ti      -1.630082170   1.621721554  -4.873525279
Nb      -0.017249142  -0.017249142  -3.234554583
Nb      -1.612833028   1.638970696  -1.638970696


     NEW-OLD atomic charge density approx. for the potential
     extrapolated charge   32.90433, renormalised to   38.00000

     total cpu time spent up to now is     1895.1 secs

     per-process dynamical memory:   153.1 Mb

     Self-consistent Calculation

     iteration #  1     ecut=    50.00 Ry     beta=0.60
     Davidson diagonalization with overlap
     c_bands:  1 eigenvalues not converged
     c_bands:  1 eigenvalues not converged
     c_bands:  1 eigenvalues not converged
     c_bands:  1 eigenvalues not converged
     c_bands:  1 eigenvalues not converged
     c_bands:  1 eigenvalues not converged
     c_bands:  1 eigenvalues not converged
     c_bands:  1 eigenvalues not converged
     c_bands:  1 eigenvalues not converged
     c_bands:  1 eigenvalues not converged
     c_bands:  1 eigenvalues not converged
     c_bands:  1 eigenvalues not converged
     c_bands:  1 eigenvalues not converged
     c_bands:  1 eigenvalues not converged
     c_bands:  1 eigenvalues not converged
     c_bands:  1 eigenvalues not converged
     c_bands:  1 eigenvalues not converged
     c_bands:  1 eigenvalues not converged
     c_bands:  1 eigenvalues not converged
     c_bands:  1 eigenvalues not converged
     c_bands:  1 eigenvalues not converged
     c_bands:  1 eigenvalues not converged
     c_bands:  1 eigenvalues not converged
     c_bands:  1 eigenvalues not converged
     c_bands:  1 eigenvalues not converged
     c_bands:  1 eigenvalues not converged
     c_bands:  1 eigenvalues not converged
     c_bands:  1 eigenvalues not converged
     c_bands:  1 eigenvalues not converged
     c_bands:  1 eigenvalues not converged
     c_bands:  1 eigenvalues not converged
     c_bands:  1 eigenvalues not converged
     c_bands:  1 eigenvalues not converged
     c_bands:  1 eigenvalues not converged
     c_bands:  1 eigenvalues not converged
     c_bands:  1 eigenvalues not converged
     c_bands:  1 eigenvalues not converged
     c_bands:  1 eigenvalues not converged
     c_bands:  1 eigenvalues not converged
     c_bands:  1 eigenvalues not converged
     c_bands:  1 eigenvalues not converged
     c_bands:  1 eigenvalues not converged
     c_bands:  1 eigenvalues not converged
     c_bands:  1 eigenvalues not converged
     c_bands:  1 eigenvalues not converged
     c_bands:  1 eigenvalues not converged
     c_bands:  1 eigenvalues not converged
     c_bands:  1 eigenvalues not converged
     c_bands:  1 eigenvalues not converged
     c_bands:  1 eigenvalues not converged
     c_bands:  1 eigenvalues not converged
     c_bands:  1 eigenvalues not converged
     c_bands:  1 eigenvalues not converged
     c_bands:  1 eigenvalues not converged
     c_bands:  1 eigenvalues not converged
     c_bands:  1 eigenvalues not converged
     ethr =  1.00E-06,  avg # of iterations = 15.2

     total cpu time spent up to now is     1973.8 secs

     total energy              =    -330.34962490 Ry
     Harris-Foulkes estimate   =    -360.40053820 Ry
     estimated scf accuracy    <      24.84550602 Ry

     iteration #  2     ecut=    50.00 Ry     beta=0.60
     Davidson diagonalization with overlap
     ethr =  1.00E-02,  avg # of iterations =  6.5

     total cpu time spent up to now is     2015.3 secs

     total energy              =    -344.44649455 Ry
     Harris-Foulkes estimate   =    -381.49962009 Ry
     estimated scf accuracy    <     114.28344195 Ry

     iteration #  3     ecut=    50.00 Ry     beta=0.60
     Davidson diagonalization with overlap
     ethr =  1.00E-02,  avg # of iterations =  4.7

     total cpu time spent up to now is     2048.9 secs

     total energy              =    -354.09587263 Ry
     Harris-Foulkes estimate   =    -355.98992552 Ry
     estimated scf accuracy    <       8.76788354 Ry

     iteration #  4     ecut=    50.00 Ry     beta=0.60
     Davidson diagonalization with overlap
     ethr =  1.00E-02,  avg # of iterations =  1.0

     total cpu time spent up to now is     2067.3 secs

     total energy              =    -352.68315331 Ry
     Harris-Foulkes estimate   =    -354.21514878 Ry
     estimated scf accuracy    <       5.60564522 Ry

     iteration #  5     ecut=    50.00 Ry     beta=0.60
     Davidson diagonalization with overlap
     ethr =  1.00E-02,  avg # of iterations =  2.0

     total cpu time spent up to now is     2087.5 secs

     total energy              =    -352.97117159 Ry
     Harris-Foulkes estimate   =    -352.90654703 Ry
     estimated scf accuracy    <       2.18456173 Ry

     iteration #  6     ecut=    50.00 Ry     beta=0.60
     Davidson diagonalization with overlap
     ethr =  5.75E-03,  avg # of iterations =  1.0

     total cpu time spent up to now is     2105.9 secs

     total energy              =    -352.77554403 Ry
     Harris-Foulkes estimate   =    -352.98817984 Ry
     estimated scf accuracy    <       2.26087858 Ry

     iteration #  7     ecut=    50.00 Ry     beta=0.60
     Davidson diagonalization with overlap
     ethr =  5.75E-03,  avg # of iterations =  1.0

     total cpu time spent up to now is     2124.2 secs

     total energy              =    -352.63623719 Ry
     Harris-Foulkes estimate   =    -352.79148093 Ry
     estimated scf accuracy    <       1.66027996 Ry

     iteration #  8     ecut=    50.00 Ry     beta=0.60
     Davidson diagonalization with overlap
     ethr =  4.37E-03,  avg # of iterations =  1.1

     total cpu time spent up to now is     2142.7 secs

     total energy              =    -352.59711809 Ry
     Harris-Foulkes estimate   =    -352.65718190 Ry
     estimated scf accuracy    <       1.10984230 Ry

     iteration #  9     ecut=    50.00 Ry     beta=0.60
     Davidson diagonalization with overlap
     ethr =  2.92E-03,  avg # of iterations =  1.1

     total cpu time spent up to now is     2161.3 secs

     total energy              =    -352.54792624 Ry
     Harris-Foulkes estimate   =    -352.60858180 Ry
     estimated scf accuracy    <       0.86945238 Ry

     iteration # 10     ecut=    50.00 Ry     beta=0.60
     Davidson diagonalization with overlap
     ethr =  2.29E-03,  avg # of iterations =  1.8

     total cpu time spent up to now is     2180.5 secs

     total energy              =    -352.33069827 Ry
     Harris-Foulkes estimate   =    -352.56285113 Ry
     estimated scf accuracy    <       0.54248502 Ry

     iteration # 11     ecut=    50.00 Ry     beta=0.60
     Davidson diagonalization with overlap
     ethr =  1.43E-03,  avg # of iterations =  4.8

     total cpu time spent up to now is     2213.1 secs

     total energy              =    -352.76865291 Ry
     Harris-Foulkes estimate   =    -352.65158834 Ry
     estimated scf accuracy    <       2.31023840 Ry

     iteration # 12     ecut=    50.00 Ry     beta=0.60
     Davidson diagonalization with overlap
     ethr =  1.43E-03,  avg # of iterations =  1.0

     total cpu time spent up to now is     2231.6 secs

     total energy              =    -353.00753756 Ry
     Harris-Foulkes estimate   =    -352.78702550 Ry
     estimated scf accuracy    <       4.07123796 Ry

     iteration # 13     ecut=    50.00 Ry     beta=0.60
     Davidson diagonalization with overlap
     ethr =  1.43E-03,  avg # of iterations =  2.9

     total cpu time spent up to now is     2253.2 secs

     total energy              =    -353.28586999 Ry
     Harris-Foulkes estimate   =    -353.07911401 Ry
     estimated scf accuracy    <       9.69514527 Ry

     iteration # 14     ecut=    50.00 Ry     beta=0.60
     Davidson diagonalization with overlap
     ethr =  1.43E-03,  avg # of iterations =  1.0

     total cpu time spent up to now is     2271.6 secs

     total energy              =    -353.17389514 Ry
     Harris-Foulkes estimate   =    -353.30474286 Ry
     estimated scf accuracy    <      12.94571710 Ry

     iteration # 15     ecut=    50.00 Ry     beta=0.60
     Davidson diagonalization with overlap
     ethr =  1.43E-03,  avg # of iterations =  1.0

     total cpu time spent up to now is     2290.0 secs

     total energy              =    -353.14339110 Ry
     Harris-Foulkes estimate   =    -353.18000178 Ry
     estimated scf accuracy    <      11.34310944 Ry

     iteration # 16     ecut=    50.00 Ry     beta=0.60
     Davidson diagonalization with overlap
     ethr =  1.43E-03,  avg # of iterations =  1.0

     total cpu time spent up to now is     2308.6 secs

     total energy              =    -353.35309961 Ry
     Harris-Foulkes estimate   =    -353.14481350 Ry
     estimated scf accuracy    <      10.91884837 Ry

     iteration # 17     ecut=    50.00 Ry     beta=0.60
     Davidson diagonalization with overlap
     ethr =  1.43E-03,  avg # of iterations =  1.0

     total cpu time spent up to now is     2327.0 secs

     total energy              =    -351.81027924 Ry
     Harris-Foulkes estimate   =    -353.36833047 Ry
     estimated scf accuracy    <      14.07765043 Ry

     iteration # 18     ecut=    50.00 Ry     beta=0.60
     Davidson diagonalization with overlap
     ethr =  1.43E-03,  avg # of iterations =  4.5

     total cpu time spent up to now is     2355.5 secs

     total energy              =    -352.50670674 Ry
     Harris-Foulkes estimate   =    -352.51635413 Ry
     estimated scf accuracy    <       0.04993844 Ry

     iteration # 19     ecut=    50.00 Ry     beta=0.60
     Davidson diagonalization with overlap
     ethr =  1.31E-04,  avg # of iterations =  4.6

     total cpu time spent up to now is     2379.6 secs

     total energy              =    -352.51289939 Ry
     Harris-Foulkes estimate   =    -352.51302687 Ry
     estimated scf accuracy    <       0.00150736 Ry

     iteration # 20     ecut=    50.00 Ry     beta=0.60
     Davidson diagonalization with overlap
     ethr =  3.97E-06,  avg # of iterations =  6.3

     total cpu time spent up to now is     2413.9 secs

     total energy              =    -352.51371528 Ry
     Harris-Foulkes estimate   =    -352.51371474 Ry
     estimated scf accuracy    <       0.00222605 Ry

     iteration # 21     ecut=    50.00 Ry     beta=0.60
     Davidson diagonalization with overlap
     ethr =  3.97E-06,  avg # of iterations =  1.0

     total cpu time spent up to now is     2432.4 secs

     total energy              =    -352.51372274 Ry
     Harris-Foulkes estimate   =    -352.51373535 Ry
     estimated scf accuracy    <       0.00233731 Ry

     iteration # 22     ecut=    50.00 Ry     beta=0.60
     Davidson diagonalization with overlap
     ethr =  3.97E-06,  avg # of iterations =  1.0

     total cpu time spent up to now is     2450.8 secs

     total energy              =    -352.51354667 Ry
     Harris-Foulkes estimate   =    -352.51372661 Ry
     estimated scf accuracy    <       0.00236492 Ry

     iteration # 23     ecut=    50.00 Ry     beta=0.60
     Davidson diagonalization with overlap
     ethr =  3.97E-06,  avg # of iterations =  1.0

     total cpu time spent up to now is     2469.2 secs

     total energy              =    -352.51331092 Ry
     Harris-Foulkes estimate   =    -352.51356634 Ry
     estimated scf accuracy    <       0.00120413 Ry

     iteration # 24     ecut=    50.00 Ry     beta=0.60
     Davidson diagonalization with overlap
     ethr =  3.17E-06,  avg # of iterations =  1.9

     total cpu time spent up to now is     2489.9 secs

     total energy              =    -352.51337301 Ry
     Harris-Foulkes estimate   =    -352.51339365 Ry
     estimated scf accuracy    <       0.00005961 Ry

     iteration # 25     ecut=    50.00 Ry     beta=0.60
     Davidson diagonalization with overlap
     ethr =  1.57E-07,  avg # of iterations =  4.3

     total cpu time spent up to now is     2519.1 secs

     total energy              =    -352.51339353 Ry
     Harris-Foulkes estimate   =    -352.51340940 Ry
     estimated scf accuracy    <       0.00022783 Ry

     iteration # 26     ecut=    50.00 Ry     beta=0.60
     Davidson diagonalization with overlap
     ethr =  1.57E-07,  avg # of iterations =  1.0

     total cpu time spent up to now is     2537.6 secs

     total energy              =    -352.51337798 Ry
     Harris-Foulkes estimate   =    -352.51339723 Ry
     estimated scf accuracy    <       0.00008360 Ry

     iteration # 27     ecut=    50.00 Ry     beta=0.60
     Davidson diagonalization with overlap
     ethr =  1.57E-07,  avg # of iterations =  3.7

     total cpu time spent up to now is     2561.3 secs

     total energy              =    -352.51338994 Ry
     Harris-Foulkes estimate   =    -352.51339209 Ry
     estimated scf accuracy    <       0.00001652 Ry

     iteration # 28     ecut=    50.00 Ry     beta=0.60
     Davidson diagonalization with overlap
     ethr =  4.35E-08,  avg # of iterations =  1.2

     total cpu time spent up to now is     2579.9 secs

     total energy              =    -352.51339050 Ry
     Harris-Foulkes estimate   =    -352.51339079 Ry
     estimated scf accuracy    <       0.00000202 Ry

     iteration # 29     ecut=    50.00 Ry     beta=0.60
     Davidson diagonalization with overlap
     ethr =  5.33E-09,  avg # of iterations =  3.9

     total cpu time spent up to now is     2604.3 secs

     total energy              =    -352.51339095 Ry
     Harris-Foulkes estimate   =    -352.51339096 Ry
     estimated scf accuracy    <       0.00000020 Ry

     iteration # 30     ecut=    50.00 Ry     beta=0.60
     Davidson diagonalization with overlap
     ethr =  5.19E-10,  avg # of iterations =  2.0

     total cpu time spent up to now is     2624.0 secs

     total energy              =    -352.51339095 Ry
     Harris-Foulkes estimate   =    -352.51339096 Ry
     estimated scf accuracy    <       0.00000007 Ry

     iteration # 31     ecut=    50.00 Ry     beta=0.60
     Davidson diagonalization with overlap
     ethr =  1.73E-10,  avg # of iterations =  2.7

     total cpu time spent up to now is     2644.6 secs

     total energy              =    -352.51339095 Ry
     Harris-Foulkes estimate   =    -352.51339095 Ry
     estimated scf accuracy    <          2.1E-09 Ry

     iteration # 32     ecut=    50.00 Ry     beta=0.60
     Davidson diagonalization with overlap
     ethr =  5.43E-12,  avg # of iterations =  4.2

     total cpu time spent up to now is     2672.4 secs

     total energy              =    -352.51339095 Ry
     Harris-Foulkes estimate   =    -352.51339095 Ry
     estimated scf accuracy    <          1.1E-10 Ry

     iteration # 33     ecut=    50.00 Ry     beta=0.60
     Davidson diagonalization with overlap
     ethr =  2.89E-13,  avg # of iterations =  3.4

     total cpu time spent up to now is     2695.1 secs

     End of self-consistent calculation

     Number of k-points >= 100: set verbosity='high' to print the bands.

     the Fermi energy is    17.1117 ev

!    total energy              =    -352.51339095 Ry
     Harris-Foulkes estimate   =    -352.51339095 Ry
     estimated scf accuracy    <          5.1E-12 Ry

     The total energy is the sum of the following terms:

     one-electron contribution =     -68.42619434 Ry
     hartree contribution      =      52.91501145 Ry
     xc contribution           =     -51.52661658 Ry
     ewald contribution        =    -285.47517074 Ry
     smearing contrib. (-TS)   =      -0.00042075 Ry

     convergence has been achieved in  33 iterations

     Forces acting on atoms (Ry/au):

     atom    1 type  2   force =     0.00000000    0.00000000   -0.00000000
     atom    2 type  1   force =    -0.00859150   -0.00859150    0.00859150
     atom    3 type  1   force =     0.00859150    0.00859150   -0.00859150

     Total force =     0.021045     Total SCF correction =     0.000000


     entering subroutine stress ...

          total   stress  (Ry/bohr**3)                   (kbar)     P=   54.47
   0.00037031   0.00001548  -0.00001548         54.47      2.28     -2.28
   0.00001548   0.00037031  -0.00001548          2.28     54.47     -2.28
  -0.00001548  -0.00001548   0.00037031         -2.28     -2.28     54.47


     number of scf cycles    =   3
     number of bfgs steps    =   2

     enthalpy old            =    -352.4990762891 Ry
     enthalpy new            =    -352.5133909529 Ry

     CASE: enthalpy_new < enthalpy_old

     new trust radius        =       0.0459101153 bohr
     new conv_thr            =            1.0E-10 Ry

     new unit-cell volume =    360.15086 a.u.^3 (    53.36885 Ang^3 )

CELL_PARAMETERS (alat=  1.88972599)
  -0.000000000  -3.290761750  -3.290761750
  -3.290761750   3.290761750   0.000000000
   1.642758842   1.642758842  -1.642758842

ATOMIC_POSITIONS (angstrom)
Ti      -1.648002908   1.642758842  -4.933520592
Nb      -0.017824697  -0.017824697  -3.272937053
Nb      -1.630178211   1.660583539  -1.660583539


     NEW-OLD atomic charge density approx. for the potential
     extrapolated charge   39.33334, renormalised to   38.00000

     total cpu time spent up to now is     2708.5 secs

     per-process dynamical memory:   153.1 Mb

     Self-consistent Calculation

     iteration #  1     ecut=    50.00 Ry     beta=0.60
     Davidson diagonalization with overlap
     ethr =  1.00E-06,  avg # of iterations = 12.1

     total cpu time spent up to now is     2771.6 secs

     total energy              =    -352.30746265 Ry
     Harris-Foulkes estimate   =    -350.71361862 Ry
     estimated scf accuracy    <       0.17167619 Ry

     iteration #  2     ecut=    50.00 Ry     beta=0.60
     Davidson diagonalization with overlap
     ethr =  4.52E-04,  avg # of iterations =  5.8

     total cpu time spent up to now is     2813.4 secs

     total energy              =    -351.99741486 Ry
     Harris-Foulkes estimate   =    -353.08340232 Ry
     estimated scf accuracy    <      10.18238067 Ry

     iteration #  3     ecut=    50.00 Ry     beta=0.60
     Davidson diagonalization with overlap
     ethr =  4.52E-04,  avg # of iterations =  5.3

     total cpu time spent up to now is     2847.7 secs

     total energy              =    -352.51393831 Ry
     Harris-Foulkes estimate   =    -352.55038290 Ry
     estimated scf accuracy    <       0.09738305 Ry

     iteration #  4     ecut=    50.00 Ry     beta=0.60
     Davidson diagonalization with overlap
     ethr =  2.56E-04,  avg # of iterations =  2.0

     total cpu time spent up to now is     2867.8 secs

     total energy              =    -352.51993340 Ry
     Harris-Foulkes estimate   =    -352.52379169 Ry
     estimated scf accuracy    <       0.03900547 Ry

     iteration #  5     ecut=    50.00 Ry     beta=0.60
     Davidson diagonalization with overlap
     ethr =  1.03E-04,  avg # of iterations =  1.7

     total cpu time spent up to now is     2887.1 secs

     total energy              =    -352.51772038 Ry
     Harris-Foulkes estimate   =    -352.52093284 Ry
     estimated scf accuracy    <       0.03049189 Ry

     iteration #  6     ecut=    50.00 Ry     beta=0.60
     Davidson diagonalization with overlap
     ethr =  8.02E-05,  avg # of iterations =  1.0

     total cpu time spent up to now is     2905.6 secs

     total energy              =    -352.51492421 Ry
     Harris-Foulkes estimate   =    -352.51829513 Ry
     estimated scf accuracy    <       0.01831926 Ry

     iteration #  7     ecut=    50.00 Ry     beta=0.60
     Davidson diagonalization with overlap
     ethr =  4.82E-05,  avg # of iterations =  2.1

     total cpu time spent up to now is     2925.6 secs

     total energy              =    -352.51563990 Ry
     Harris-Foulkes estimate   =    -352.51596396 Ry
     estimated scf accuracy    <       0.00384638 Ry

     iteration #  8     ecut=    50.00 Ry     beta=0.60
     Davidson diagonalization with overlap
     ethr =  1.01E-05,  avg # of iterations =  2.6

     total cpu time spent up to now is     2946.0 secs

     total energy              =    -352.51575996 Ry
     Harris-Foulkes estimate   =    -352.51581063 Ry
     estimated scf accuracy    <       0.00167250 Ry

     iteration #  9     ecut=    50.00 Ry     beta=0.60
     Davidson diagonalization with overlap
     ethr =  4.40E-06,  avg # of iterations =  1.6

     total cpu time spent up to now is     2965.1 secs

     total energy              =    -352.51567320 Ry
     Harris-Foulkes estimate   =    -352.51578786 Ry
     estimated scf accuracy    <       0.00120353 Ry

     iteration # 10     ecut=    50.00 Ry     beta=0.60
     Davidson diagonalization with overlap
     ethr =  3.17E-06,  avg # of iterations =  1.9

     total cpu time spent up to now is     2984.6 secs

     total energy              =    -352.51569483 Ry
     Harris-Foulkes estimate   =    -352.51571414 Ry
     estimated scf accuracy    <       0.00026808 Ry

     iteration # 11     ecut=    50.00 Ry     beta=0.60
     Davidson diagonalization with overlap
     ethr =  7.05E-07,  avg # of iterations =  3.9

     total cpu time spent up to now is     3007.9 secs

     total energy              =    -352.51571784 Ry
     Harris-Foulkes estimate   =    -352.51572313 Ry
     estimated scf accuracy    <       0.00002255 Ry

     iteration # 12     ecut=    50.00 Ry     beta=0.60
     Davidson diagonalization with overlap
     ethr =  5.94E-08,  avg # of iterations =  3.6

     total cpu time spent up to now is     3031.4 secs

     total energy              =    -352.51571972 Ry
     Harris-Foulkes estimate   =    -352.51572118 Ry
     estimated scf accuracy    <       0.00000337 Ry

     iteration # 13     ecut=    50.00 Ry     beta=0.60
     Davidson diagonalization with overlap
     ethr =  8.86E-09,  avg # of iterations =  3.3

     total cpu time spent up to now is     3056.1 secs

     total energy              =    -352.51572021 Ry
     Harris-Foulkes estimate   =    -352.51572037 Ry
     estimated scf accuracy    <       0.00000032 Ry

     iteration # 14     ecut=    50.00 Ry     beta=0.60
     Davidson diagonalization with overlap
     ethr =  8.43E-10,  avg # of iterations =  3.4

     total cpu time spent up to now is     3084.0 secs

     total energy              =    -352.51572030 Ry
     Harris-Foulkes estimate   =    -352.51572034 Ry
     estimated scf accuracy    <       0.00000046 Ry

     iteration # 15     ecut=    50.00 Ry     beta=0.60
     Davidson diagonalization with overlap
     ethr =  8.43E-10,  avg # of iterations =  1.0

     total cpu time spent up to now is     3102.6 secs

     total energy              =    -352.51572028 Ry
     Harris-Foulkes estimate   =    -352.51572031 Ry
     estimated scf accuracy    <       0.00000018 Ry

     iteration # 16     ecut=    50.00 Ry     beta=0.60
     Davidson diagonalization with overlap
     ethr =  4.68E-10,  avg # of iterations =  2.0

     total cpu time spent up to now is     3122.3 secs

     total energy              =    -352.51572029 Ry
     Harris-Foulkes estimate   =    -352.51572029 Ry
     estimated scf accuracy    <       0.00000001 Ry

     iteration # 17     ecut=    50.00 Ry     beta=0.60
     Davidson diagonalization with overlap
     ethr =  3.94E-11,  avg # of iterations =  4.1

     total cpu time spent up to now is     3148.6 secs

     total energy              =    -352.51572029 Ry
     Harris-Foulkes estimate   =    -352.51572029 Ry
     estimated scf accuracy    <          2.4E-09 Ry

     iteration # 18     ecut=    50.00 Ry     beta=0.60
     Davidson diagonalization with overlap
     ethr =  6.30E-12,  avg # of iterations =  1.3

     total cpu time spent up to now is     3167.4 secs

     total energy              =    -352.51572029 Ry
     Harris-Foulkes estimate   =    -352.51572029 Ry
     estimated scf accuracy    <          8.3E-10 Ry

     iteration # 19     ecut=    50.00 Ry     beta=0.60
     Davidson diagonalization with overlap
     ethr =  2.19E-12,  avg # of iterations =  2.4

     total cpu time spent up to now is     3187.5 secs

     End of self-consistent calculation

     Number of k-points >= 100: set verbosity='high' to print the bands.

     the Fermi energy is    16.3970 ev

!    total energy              =    -352.51572029 Ry
     Harris-Foulkes estimate   =    -352.51572029 Ry
     estimated scf accuracy    <          4.0E-11 Ry

     The total energy is the sum of the following terms:

     one-electron contribution =     -73.39237046 Ry
     hartree contribution      =      54.29138605 Ry
     xc contribution           =     -51.41237093 Ry
     ewald contribution        =    -282.00202207 Ry
     smearing contrib. (-TS)   =      -0.00034288 Ry

     convergence has been achieved in  19 iterations

     Forces acting on atoms (Ry/au):

     atom    1 type  2   force =     0.00000000   -0.00000000    0.00000000
     atom    2 type  1   force =    -0.00840881   -0.00840881    0.00840881
     atom    3 type  1   force =     0.00840881    0.00840881   -0.00840881

     Total force =     0.020597     Total SCF correction =     0.000002


     entering subroutine stress ...

          total   stress  (Ry/bohr**3)                   (kbar)     P=   -3.40
  -0.00002314   0.00001010  -0.00001010         -3.40      1.49     -1.49
   0.00001010  -0.00002314  -0.00001010          1.49     -3.40     -1.49
  -0.00001010  -0.00001010  -0.00002314         -1.49     -1.49     -3.40


     number of scf cycles    =   4
     number of bfgs steps    =   3

     enthalpy old            =    -352.5133909529 Ry
     enthalpy new            =    -352.5157202917 Ry

     CASE: enthalpy_new < enthalpy_old

     new trust radius        =       0.0139637374 bohr
     new conv_thr            =            1.0E-10 Ry

     new unit-cell volume =    359.71579 a.u.^3 (    53.30438 Ang^3 )

CELL_PARAMETERS (alat=  1.88972599)
  -0.000000000  -3.288594375  -3.288594375
  -3.288594375   3.288594375   0.000000000
   1.642937790   1.642937790  -1.642937790

ATOMIC_POSITIONS (angstrom)
Ti      -1.645656585   1.642937790  -4.931532165
Nb      -0.021251365  -0.021251365  -3.267343010
Nb      -1.624405220   1.664189155  -1.664189155


     NEW-OLD atomic charge density approx. for the potential
     extrapolated charge   37.95526, renormalised to   38.00000

     total cpu time spent up to now is     3200.8 secs

     per-process dynamical memory:   153.1 Mb

     Self-consistent Calculation

     iteration #  1     ecut=    50.00 Ry     beta=0.60
     Davidson diagonalization with overlap
     ethr =  1.00E-06,  avg # of iterations =  4.1

     total cpu time spent up to now is     3241.3 secs

     total energy              =    -352.51587629 Ry
     Harris-Foulkes estimate   =    -352.57746185 Ry
     estimated scf accuracy    <       0.00021655 Ry

     iteration #  2     ecut=    50.00 Ry     beta=0.60
     Davidson diagonalization with overlap
     ethr =  5.70E-07,  avg # of iterations =  5.3

     total cpu time spent up to now is     3281.9 secs

     total energy              =    -352.51581719 Ry
     Harris-Foulkes estimate   =    -352.51658968 Ry
     estimated scf accuracy    <       0.00533493 Ry

     iteration #  3     ecut=    50.00 Ry     beta=0.60
     Davidson diagonalization with overlap
     ethr =  5.70E-07,  avg # of iterations =  4.6

     total cpu time spent up to now is     3312.7 secs

     total energy              =    -352.51612762 Ry
     Harris-Foulkes estimate   =    -352.51617568 Ry
     estimated scf accuracy    <       0.00012708 Ry

     iteration #  4     ecut=    50.00 Ry     beta=0.60
     Davidson diagonalization with overlap
     ethr =  3.34E-07,  avg # of iterations =  2.0

     total cpu time spent up to now is     3333.2 secs

     total energy              =    -352.51611628 Ry
     Harris-Foulkes estimate   =    -352.51614132 Ry
     estimated scf accuracy    <       0.00009297 Ry

     iteration #  5     ecut=    50.00 Ry     beta=0.60
     Davidson diagonalization with overlap
     ethr =  2.45E-07,  avg # of iterations =  2.1

     total cpu time spent up to now is     3353.9 secs

     total energy              =    -352.51612507 Ry
     Harris-Foulkes estimate   =    -352.51612600 Ry
     estimated scf accuracy    <       0.00000576 Ry

     iteration #  6     ecut=    50.00 Ry     beta=0.60
     Davidson diagonalization with overlap
     ethr =  1.52E-08,  avg # of iterations =  3.8

     total cpu time spent up to now is     3379.3 secs

     total energy              =    -352.51612637 Ry
     Harris-Foulkes estimate   =    -352.51612667 Ry
     estimated scf accuracy    <       0.00000119 Ry

     iteration #  7     ecut=    50.00 Ry     beta=0.60
     Davidson diagonalization with overlap
     ethr =  3.12E-09,  avg # of iterations =  2.4

     total cpu time spent up to now is     3399.9 secs

     total energy              =    -352.51612633 Ry
     Harris-Foulkes estimate   =    -352.51612645 Ry
     estimated scf accuracy    <       0.00000039 Ry

     iteration #  8     ecut=    50.00 Ry     beta=0.60
     Davidson diagonalization with overlap
     ethr =  1.03E-09,  avg # of iterations =  3.2

     total cpu time spent up to now is     3422.5 secs

     total energy              =    -352.51612639 Ry
     Harris-Foulkes estimate   =    -352.51612639 Ry
     estimated scf accuracy    <          1.5E-09 Ry

     iteration #  9     ecut=    50.00 Ry     beta=0.60
     Davidson diagonalization with overlap
     ethr =  3.96E-12,  avg # of iterations =  4.9

     total cpu time spent up to now is     3460.0 secs

     total energy              =    -352.51612639 Ry
     Harris-Foulkes estimate   =    -352.51612640 Ry
     estimated scf accuracy    <          1.9E-09 Ry

     iteration # 10     ecut=    50.00 Ry     beta=0.60
     Davidson diagonalization with overlap
     ethr =  3.96E-12,  avg # of iterations =  1.0

     total cpu time spent up to now is     3478.4 secs

     total energy              =    -352.51612639 Ry
     Harris-Foulkes estimate   =    -352.51612640 Ry
     estimated scf accuracy    <          5.0E-10 Ry

     iteration # 11     ecut=    50.00 Ry     beta=0.60
     Davidson diagonalization with overlap
     ethr =  1.32E-12,  avg # of iterations =  3.7

     total cpu time spent up to now is     3502.1 secs

     total energy              =    -352.51612639 Ry
     Harris-Foulkes estimate   =    -352.51612640 Ry
     estimated scf accuracy    <          2.4E-10 Ry

     iteration # 12     ecut=    50.00 Ry     beta=0.60
     Davidson diagonalization with overlap
     ethr =  6.34E-13,  avg # of iterations =  1.0

     total cpu time spent up to now is     3520.5 secs

     End of self-consistent calculation

     Number of k-points >= 100: set verbosity='high' to print the bands.

     the Fermi energy is    16.4189 ev

!    total energy              =    -352.51612639 Ry
     Harris-Foulkes estimate   =    -352.51612640 Ry
     estimated scf accuracy    <          4.6E-11 Ry

     The total energy is the sum of the following terms:

     one-electron contribution =     -73.23730666 Ry
     hartree contribution      =      54.24800409 Ry
     xc contribution           =     -51.41617597 Ry
     ewald contribution        =    -282.11039367 Ry
     smearing contrib. (-TS)   =      -0.00025420 Ry

     convergence has been achieved in  12 iterations

     Forces acting on atoms (Ry/au):

     atom    1 type  2   force =     0.00000000    0.00000000    0.00000000
     atom    2 type  1   force =    -0.00781862   -0.00781862    0.00781862
     atom    3 type  1   force =     0.00781862    0.00781862   -0.00781862

     Total force =     0.019152     Total SCF correction =     0.000001


     entering subroutine stress ...

          total   stress  (Ry/bohr**3)                   (kbar)     P=   -1.55
  -0.00001052   0.00001181  -0.00001181         -1.55      1.74     -1.74
   0.00001181  -0.00001052  -0.00001181          1.74     -1.55     -1.74
  -0.00001181  -0.00001181  -0.00001052         -1.74     -1.74     -1.55


     number of scf cycles    =   5
     number of bfgs steps    =   4

     enthalpy old            =    -352.5157202917 Ry
     enthalpy new            =    -352.5161263950 Ry

     CASE: enthalpy_new < enthalpy_old


     WARNING: bfgs curvature condition failed, Theta= 0.868
     new trust radius        =       0.0153617843 bohr
     new conv_thr            =            1.0E-10 Ry

     new unit-cell volume =    359.54138 a.u.^3 (    53.27854 Ang^3 )

CELL_PARAMETERS (alat=  1.88972599)
  -0.000000000  -3.286980927  -3.286980927
  -3.286980927   3.286980927   0.000000000
   1.643753743   1.643753743  -1.643753743

ATOMIC_POSITIONS (angstrom)
Ti      -1.643227184   1.643753743  -4.930734671
Nb      -0.024875357  -0.024875357  -3.262105570
Nb      -1.618351827   1.668629100  -1.668629100


     NEW-OLD atomic charge density approx. for the potential
     extrapolated charge   37.98205, renormalised to   38.00000

     total cpu time spent up to now is     3533.8 secs

     per-process dynamical memory:   153.7 Mb

     Self-consistent Calculation

     iteration #  1     ecut=    50.00 Ry     beta=0.60
     Davidson diagonalization with overlap
     ethr =  1.00E-06,  avg # of iterations =  4.1

     total cpu time spent up to now is     3575.2 secs

     total energy              =    -352.51650354 Ry
     Harris-Foulkes estimate   =    -352.54111182 Ry
     estimated scf accuracy    <       0.00004410 Ry

     iteration #  2     ecut=    50.00 Ry     beta=0.60
     Davidson diagonalization with overlap
     ethr =  1.16E-07,  avg # of iterations =  3.9

     total cpu time spent up to now is     3606.0 secs

     total energy              =    -352.51652963 Ry
     Harris-Foulkes estimate   =    -352.51654568 Ry
     estimated scf accuracy    <       0.00003749 Ry

     iteration #  3     ecut=    50.00 Ry     beta=0.60
     Davidson diagonalization with overlap
     ethr =  9.87E-08,  avg # of iterations =  3.8

     total cpu time spent up to now is     3630.0 secs

     total energy              =    -352.51652450 Ry
     Harris-Foulkes estimate   =    -352.51653986 Ry
     estimated scf accuracy    <       0.00006336 Ry

     iteration #  4     ecut=    50.00 Ry     beta=0.60
     Davidson diagonalization with overlap
     ethr =  9.87E-08,  avg # of iterations =  3.6

     total cpu time spent up to now is     3653.3 secs

     total energy              =    -352.51653104 Ry
     Harris-Foulkes estimate   =    -352.51653711 Ry
     estimated scf accuracy    <       0.00003355 Ry

     iteration #  5     ecut=    50.00 Ry     beta=0.60
     Davidson diagonalization with overlap
     ethr =  8.83E-08,  avg # of iterations =  2.0

     total cpu time spent up to now is     3672.7 secs

     total energy              =    -352.51653356 Ry
     Harris-Foulkes estimate   =    -352.51653366 Ry
     estimated scf accuracy    <       0.00000047 Ry

     iteration #  6     ecut=    50.00 Ry     beta=0.60
     Davidson diagonalization with overlap
     ethr =  1.25E-09,  avg # of iterations =  4.9

     total cpu time spent up to now is     3704.0 secs

     total energy              =    -352.51653419 Ry
     Harris-Foulkes estimate   =    -352.51653443 Ry
     estimated scf accuracy    <       0.00000211 Ry

     iteration #  7     ecut=    50.00 Ry     beta=0.60
     Davidson diagonalization with overlap
     ethr =  1.25E-09,  avg # of iterations =  3.0

     total cpu time spent up to now is     3724.8 secs

     total energy              =    -352.51653420 Ry
     Harris-Foulkes estimate   =    -352.51653425 Ry
     estimated scf accuracy    <       0.00000042 Ry

     iteration #  8     ecut=    50.00 Ry     beta=0.60
     Davidson diagonalization with overlap
     ethr =  1.11E-09,  avg # of iterations =  2.9

     total cpu time spent up to now is     3746.0 secs

     total energy              =    -352.51653424 Ry
     Harris-Foulkes estimate   =    -352.51653424 Ry
     estimated scf accuracy    <          7.5E-09 Ry

     iteration #  9     ecut=    50.00 Ry     beta=0.60
     Davidson diagonalization with overlap
     ethr =  1.97E-11,  avg # of iterations =  4.9

     total cpu time spent up to now is     3775.3 secs

     total energy              =    -352.51653424 Ry
     Harris-Foulkes estimate   =    -352.51653424 Ry
     estimated scf accuracy    <       0.00000002 Ry

     iteration # 10     ecut=    50.00 Ry     beta=0.60
     Davidson diagonalization with overlap
     ethr =  1.97E-11,  avg # of iterations =  1.2

     total cpu time spent up to now is     3793.9 secs

     total energy              =    -352.51653424 Ry
     Harris-Foulkes estimate   =    -352.51653424 Ry
     estimated scf accuracy    <          3.5E-09 Ry

     iteration # 11     ecut=    50.00 Ry     beta=0.60
     Davidson diagonalization with overlap
     ethr =  9.15E-12,  avg # of iterations =  3.6

     total cpu time spent up to now is     3817.0 secs

     total energy              =    -352.51653424 Ry
     Harris-Foulkes estimate   =    -352.51653424 Ry
     estimated scf accuracy    <          2.1E-10 Ry

     iteration # 12     ecut=    50.00 Ry     beta=0.60
     Davidson diagonalization with overlap
     ethr =  5.53E-13,  avg # of iterations =  3.0

     total cpu time spent up to now is     3838.5 secs

     total energy              =    -352.51653424 Ry
     Harris-Foulkes estimate   =    -352.51653424 Ry
     estimated scf accuracy    <          2.5E-10 Ry

     iteration # 13     ecut=    50.00 Ry     beta=0.60
     Davidson diagonalization with overlap
     ethr =  5.53E-13,  avg # of iterations =  1.0

     total cpu time spent up to now is     3857.0 secs

     End of self-consistent calculation

     Number of k-points >= 100: set verbosity='high' to print the bands.

     the Fermi energy is    16.4271 ev

!    total energy              =    -352.51653424 Ry
     Harris-Foulkes estimate   =    -352.51653424 Ry
     estimated scf accuracy    <          2.2E-11 Ry

     The total energy is the sum of the following terms:

     one-electron contribution =     -73.18213039 Ry
     hartree contribution      =      54.23286003 Ry
     xc contribution           =     -51.41781670 Ry
     ewald contribution        =    -282.14929733 Ry
     smearing contrib. (-TS)   =      -0.00014986 Ry

     convergence has been achieved in  13 iterations

     Forces acting on atoms (Ry/au):

     atom    1 type  2   force =     0.00000000   -0.00000000    0.00000000
     atom    2 type  1   force =    -0.00710903   -0.00710903    0.00710903
     atom    3 type  1   force =     0.00710903    0.00710903   -0.00710903

     Total force =     0.017413     Total SCF correction =     0.000001


     entering subroutine stress ...

          total   stress  (Ry/bohr**3)                   (kbar)     P=   -0.80
  -0.00000541   0.00001298  -0.00001298         -0.80      1.91     -1.91
   0.00001298  -0.00000541  -0.00001298          1.91     -0.80     -1.91
  -0.00001298  -0.00001298  -0.00000541         -1.91     -1.91     -0.80


     number of scf cycles    =   6
     number of bfgs steps    =   5

     enthalpy old            =    -352.5161263950 Ry
     enthalpy new            =    -352.5165342426 Ry

     CASE: enthalpy_new < enthalpy_old

     new trust radius        =       0.0230541204 bohr
     new conv_thr            =            1.0E-10 Ry

     new unit-cell volume =    359.49021 a.u.^3 (    53.27095 Ang^3 )

CELL_PARAMETERS (alat=  1.88972599)
  -0.000000000  -3.284932759  -3.284932759
  -3.284932759   3.284932759   0.000000000
   1.645569893   1.645569893  -1.645569893

ATOMIC_POSITIONS (angstrom)
Ti      -1.639362866   1.645569893  -4.930502652
Nb      -0.030060837  -0.030060837  -3.254871922
Nb      -1.609302029   1.675630730  -1.675630730


     NEW-OLD atomic charge density approx. for the potential
     extrapolated charge   37.99473, renormalised to   38.00000

     total cpu time spent up to now is     3870.3 secs

     per-process dynamical memory:   152.9 Mb

     Self-consistent Calculation

     iteration #  1     ecut=    50.00 Ry     beta=0.60
     Davidson diagonalization with overlap
     ethr =  1.00E-06,  avg # of iterations =  5.0

     total cpu time spent up to now is     3914.0 secs

     total energy              =    -352.51702601 Ry
     Harris-Foulkes estimate   =    -352.52429656 Ry
     estimated scf accuracy    <       0.00011014 Ry

     iteration #  2     ecut=    50.00 Ry     beta=0.60
     Davidson diagonalization with overlap
     ethr =  2.90E-07,  avg # of iterations =  4.6

     total cpu time spent up to now is     3945.2 secs

     total energy              =    -352.51688058 Ry
     Harris-Foulkes estimate   =    -352.51723097 Ry
     estimated scf accuracy    <       0.00218017 Ry

     iteration #  3     ecut=    50.00 Ry     beta=0.60
     Davidson diagonalization with overlap
     ethr =  2.90E-07,  avg # of iterations =  4.6

     total cpu time spent up to now is     3974.2 secs

     total energy              =    -352.51706793 Ry
     Harris-Foulkes estimate   =    -352.51707616 Ry
     estimated scf accuracy    <       0.00005559 Ry

     iteration #  4     ecut=    50.00 Ry     beta=0.60
     Davidson diagonalization with overlap
     ethr =  1.46E-07,  avg # of iterations =  1.0

     total cpu time spent up to now is     3992.8 secs

     total energy              =    -352.51707048 Ry
[...]

     iteration #  5     ecut=    50.00 Ry     beta=0.60
     Davidson diagonalization with overlap
     ethr =  1.00E-13,  avg # of iterations =  1.6

     total cpu time spent up to now is     6447.4 secs

     End of self-consistent calculation

     Number of k-points >= 100: set verbosity='high' to print the bands.

     the Fermi energy is    16.4308 ev

!    total energy              =    -352.51799895 Ry
     Harris-Foulkes estimate   =    -352.51799895 Ry
     estimated scf accuracy    <          4.3E-13 Ry

     The total energy is the sum of the following terms:

     one-electron contribution =     -73.32506179 Ry
     hartree contribution      =      54.28681903 Ry
     xc contribution           =     -51.41977172 Ry
     ewald contribution        =    -282.06031620 Ry
     smearing contrib. (-TS)   =       0.00033173 Ry

     convergence has been achieved in   5 iterations

     Forces acting on atoms (Ry/au):

     atom    1 type  2   force =    -0.00000000   -0.00000000   -0.00000000
     atom    2 type  1   force =     0.00000535    0.00000535   -0.00000535
     atom    3 type  1   force =    -0.00000535   -0.00000535    0.00000535

     Total force =     0.000013     Total SCF correction =     0.000000


     entering subroutine stress ...

          total   stress  (Ry/bohr**3)                   (kbar)     P=   -0.01
  -0.00000004   0.00000006  -0.00000006         -0.01      0.01     -0.01
   0.00000006  -0.00000004  -0.00000006          0.01     -0.01     -0.01
  -0.00000006  -0.00000006  -0.00000004         -0.01     -0.01     -0.01


     bfgs converged in  16 scf cycles and  15 bfgs steps
     (criteria: energy <  1.0E-10, force <  1.0E-05, cell <  1.0E-03)

     End of BFGS Geometry Optimization

     Final enthalpy =    -352.5179989503 Ry
Begin final coordinates
     new unit-cell volume =    359.61271 a.u.^3 (    53.28910 Ang^3 )

CELL_PARAMETERS (alat=  1.88972599)
   0.000000000  -3.277252701  -3.277252701
  -3.277252701   3.277252701   0.000000000
   1.653854910   1.653854910  -1.653854910

ATOMIC_POSITIONS (angstrom)
Ti      -1.623397790   1.653854910  -4.931107611
Nb      -0.046543826  -0.046543826  -3.230708875
Nb      -1.576853964   1.700398736  -1.700398736
End final coordinates



     A final scf calculation at the relaxed structure.
     The G-vectors are recalculated for the final unit cell
     Results may differ from those at the preceding step.

   Info: using nr1, nr2, nr3 values from input

   Info: using nr1, nr2, nr3 values from input

     Parallelization info
     --------------------
     sticks:   dense  smooth     PW     G-vecs:    dense   smooth      PW
     Min         661     263     78                16976     4299     720
     Max         662     265     79                16977     4300     721
     Sum        2647    1057    313                67905    17197    2881



     bravais-lattice index     =            0
     lattice parameter (alat)  =       1.8897  a.u.
     unit-cell volume          =     359.6127 (a.u.)^3
     number of atoms/cell      =            3
     number of atomic types    =            2
     number of electrons       =        38.00
     number of Kohn-Sham states=           23
     kinetic-energy cutoff     =      50.0000  Ry
     charge density cutoff     =     500.0000  Ry
     convergence threshold     =      1.0E-12
     mixing beta               =       0.6000
     number of iterations used =            8  plain     mixing
     Exchange-correlation      = SLA  PW   PBE  PBE ( 1  4  3  4 0 0)

     celldm(1)=   1.889726  celldm(2)=   0.000000  celldm(3)=   0.000000
     celldm(4)=   0.000000  celldm(5)=   0.000000  celldm(6)=   0.000000

     crystal axes: (cart. coord. in units of alat)
               a(1) = (   0.000000  -3.277253  -3.277253 )  
               a(2) = (  -3.277253   3.277253   0.000000 )  
               a(3) = (   1.653855   1.653855  -1.653855 )  

     reciprocal axes: (cart. coord. in units 2 pi/alat)
               b(1) = ( -0.101711 -0.101711 -0.203422 )  
               b(2) = ( -0.203422  0.101711 -0.101711 )  
               b(3) = (  0.201549  0.201549 -0.201549 )  


     PseudoPot. # 1 for Nb read from file:
     ./Nb.pbe-nsp-van.UPF
     MD5 check sum: 0a22fc7fb0ba19a08ca5db297a5d2854
     Pseudo is Ultrasoft + core correction, Zval = 13.0
     Generated by new atomic code, or converted to UPF format
     Using radial grid of  887 points,  6 beta functions with: 
                l(1) =   0
                l(2) =   0
                l(3) =   1
                l(4) =   1
                l(5) =   2
                l(6) =   2
     Q(r) pseudized with  6 coefficients,  rinner =    1.000   1.000   1.000
                                                       1.000   1.000

     PseudoPot. # 2 for Ti read from file:
     ./Ti.pbe-sp-van_ak.UPF
     MD5 check sum: f98fea3e8887528921fefa5636a534ca
     Pseudo is Ultrasoft, Zval = 12.0
     Generated by new atomic code, or converted to UPF format
     Using radial grid of  851 points,  6 beta functions with: 
                l(1) =   0
                l(2) =   0
                l(3) =   1
                l(4) =   1
                l(5) =   2
                l(6) =   2
     Q(r) pseudized with  8 coefficients,  rinner =    1.000   1.000   1.000
                                                       1.000   1.000

     atomic species   valence    mass     pseudopotential
        Nb            13.00    92.90638     Nb( 1.00)
        Ti            12.00    47.86700     Ti( 1.00)

     12 Sym. Ops., with inversion, found



   Cartesian axes

     site n.     atom                  positions (alat units)
         1           Ti  tau(   1) = (  -1.6233979   1.6538550  -4.9311080  )
         2           Nb  tau(   2) = (  -0.0465438  -0.0465438  -3.2307091  )
         3           Nb  tau(   3) = (  -1.5768541   1.7003989  -1.7003989  )

     number of k points=   298  Marzari-Vanderbilt smearing, width (Ry)=  0.0200

     Number of k-points >= 100: set verbosity='high' to print them.

     Dense  grid:    67905 G-vectors     FFT dimensions: (  72,  72,  45)

     Smooth grid:    17197 G-vectors     FFT dimensions: (  45,  45,  25)

     Estimated max dynamical RAM per process >      69.70Mb

     Estimated total allocated dynamical RAM >     278.81Mb

     Initial potential from superposition of free atoms

     starting charge   36.99449, renormalised to   38.00000
     Starting wfc are   36 randomized atomic wfcs

     total cpu time spent up to now is     6468.9 secs

     per-process dynamical memory:   152.5 Mb

     Self-consistent Calculation

     iteration #  1     ecut=    50.00 Ry     beta=0.60
     Davidson diagonalization with overlap
     ethr =  1.00E-06,  avg # of iterations = 11.1

     total cpu time spent up to now is     6530.9 secs

     total energy              =    -343.28217041 Ry
     Harris-Foulkes estimate   =    -353.65527365 Ry
     estimated scf accuracy    <      13.10444939 Ry

     iteration #  2     ecut=    50.00 Ry     beta=0.60
     Davidson diagonalization with overlap
     ethr =  1.00E-02,  avg # of iterations =  5.9

     total cpu time spent up to now is     6568.5 secs

     total energy              =    -342.86758824 Ry
     Harris-Foulkes estimate   =    -364.33758630 Ry
     estimated scf accuracy    <      68.09728343 Ry

     iteration #  3     ecut=    50.00 Ry     beta=0.60
     Davidson diagonalization with overlap
     ethr =  1.00E-02,  avg # of iterations =  3.1

     total cpu time spent up to now is     6593.0 secs

     total energy              =    -353.03039385 Ry
     Harris-Foulkes estimate   =    -353.39783529 Ry
     estimated scf accuracy    <       3.87187237 Ry

     iteration #  4     ecut=    50.00 Ry     beta=0.60
     Davidson diagonalization with overlap
     ethr =  1.00E-02,  avg # of iterations =  1.0

     total cpu time spent up to now is     6609.7 secs

     total energy              =    -351.99197583 Ry
     Harris-Foulkes estimate   =    -353.05422866 Ry
     estimated scf accuracy    <       3.05317252 Ry

     iteration #  5     ecut=    50.00 Ry     beta=0.60
     Davidson diagonalization with overlap
     ethr =  8.03E-03,  avg # of iterations =  4.2

     total cpu time spent up to now is     6634.7 secs

     total energy              =    -352.49107488 Ry
     Harris-Foulkes estimate   =    -352.60101389 Ry
     estimated scf accuracy    <       1.24508613 Ry

     iteration #  6     ecut=    50.00 Ry     beta=0.60
     Davidson diagonalization with overlap
     ethr =  3.28E-03,  avg # of iterations =  1.1

     total cpu time spent up to now is     6651.3 secs

     total energy              =    -352.45180768 Ry
     Harris-Foulkes estimate   =    -352.52472664 Ry
     estimated scf accuracy    <       0.25303613 Ry

     iteration #  7     ecut=    50.00 Ry     beta=0.60
     Davidson diagonalization with overlap
     ethr =  6.66E-04,  avg # of iterations =  4.6

     total cpu time spent up to now is     6675.3 secs

     total energy              =    -352.52748419 Ry
     Harris-Foulkes estimate   =    -352.54738130 Ry
     estimated scf accuracy    <       0.29523762 Ry

     iteration #  8     ecut=    50.00 Ry     beta=0.60
     Davidson diagonalization with overlap
     ethr =  6.66E-04,  avg # of iterations =  1.0

     total cpu time spent up to now is     6692.0 secs

     total energy              =    -352.51355129 Ry
     Harris-Foulkes estimate   =    -352.52985701 Ry
     estimated scf accuracy    <       0.18583477 Ry

     iteration #  9     ecut=    50.00 Ry     beta=0.60
     Davidson diagonalization with overlap
     ethr =  4.89E-04,  avg # of iterations =  1.7

     total cpu time spent up to now is     6709.3 secs

     total energy              =    -352.51072410 Ry
     Harris-Foulkes estimate   =    -352.51874431 Ry
     estimated scf accuracy    <       0.04661965 Ry

     iteration # 10     ecut=    50.00 Ry     beta=0.60
     Davidson diagonalization with overlap
     ethr =  1.23E-04,  avg # of iterations =  4.2

     total cpu time spent up to now is     6731.6 secs

     total energy              =    -352.51728281 Ry
     Harris-Foulkes estimate   =    -352.51788575 Ry
     estimated scf accuracy    <       0.00536953 Ry

     iteration # 11     ecut=    50.00 Ry     beta=0.60
     Davidson diagonalization with overlap
     ethr =  1.41E-05,  avg # of iterations =  3.6

     total cpu time spent up to now is     6752.0 secs

     total energy              =    -352.51782902 Ry
     Harris-Foulkes estimate   =    -352.51769132 Ry
     estimated scf accuracy    <       0.00140059 Ry

     iteration # 12     ecut=    50.00 Ry     beta=0.60
     Davidson diagonalization with overlap
     ethr =  3.69E-06,  avg # of iterations =  2.2

     total cpu time spent up to now is     6769.8 secs

     total energy              =    -352.51744991 Ry
     Harris-Foulkes estimate   =    -352.51787970 Ry
     estimated scf accuracy    <       0.00326913 Ry

     iteration # 13     ecut=    50.00 Ry     beta=0.60
     Davidson diagonalization with overlap
     ethr =  3.69E-06,  avg # of iterations =  2.1

     total cpu time spent up to now is     6787.5 secs

     total energy              =    -352.51758472 Ry
     Harris-Foulkes estimate   =    -352.51760736 Ry
     estimated scf accuracy    <       0.00018950 Ry

     iteration # 14     ecut=    50.00 Ry     beta=0.60
     Davidson diagonalization with overlap
     ethr =  4.99E-07,  avg # of iterations =  4.4

     total cpu time spent up to now is     6811.5 secs

     total energy              =    -352.51763965 Ry
     Harris-Foulkes estimate   =    -352.51764261 Ry
     estimated scf accuracy    <       0.00003198 Ry

     iteration # 15     ecut=    50.00 Ry     beta=0.60
     Davidson diagonalization with overlap
     ethr =  8.42E-08,  avg # of iterations =  1.9

     total cpu time spent up to now is     6828.9 secs

     total energy              =    -352.51763884 Ry
     Harris-Foulkes estimate   =    -352.51764068 Ry
     estimated scf accuracy    <       0.00001088 Ry

     iteration # 16     ecut=    50.00 Ry     beta=0.60
     Davidson diagonalization with overlap
     ethr =  2.86E-08,  avg # of iterations =  2.8

     total cpu time spent up to now is     6848.3 secs

     total energy              =    -352.51764031 Ry
     Harris-Foulkes estimate   =    -352.51764034 Ry
     estimated scf accuracy    <       0.00000069 Ry

     iteration # 17     ecut=    50.00 Ry     beta=0.60
     Davidson diagonalization with overlap
     ethr =  1.80E-09,  avg # of iterations =  3.4

     total cpu time spent up to now is     6868.9 secs

     total energy              =    -352.51764030 Ry
     Harris-Foulkes estimate   =    -352.51764039 Ry
     estimated scf accuracy    <       0.00000070 Ry

     iteration # 18     ecut=    50.00 Ry     beta=0.60
     Davidson diagonalization with overlap
     ethr =  1.80E-09,  avg # of iterations =  1.1

     total cpu time spent up to now is     6885.6 secs

     total energy              =    -352.51764032 Ry
     Harris-Foulkes estimate   =    -352.51764033 Ry
     estimated scf accuracy    <       0.00000010 Ry

     iteration # 19     ecut=    50.00 Ry     beta=0.60
     Davidson diagonalization with overlap
     ethr =  2.67E-10,  avg # of iterations =  3.0

     total cpu time spent up to now is     6904.6 secs

     total energy              =    -352.51764033 Ry
     Harris-Foulkes estimate   =    -352.51764033 Ry
     estimated scf accuracy    <       0.00000005 Ry

     iteration # 20     ecut=    50.00 Ry     beta=0.60
     Davidson diagonalization with overlap
     ethr =  1.25E-10,  avg # of iterations =  1.4

     total cpu time spent up to now is     6921.6 secs

     total energy              =    -352.51764033 Ry
     Harris-Foulkes estimate   =    -352.51764033 Ry
     estimated scf accuracy    <       0.00000004 Ry

     iteration # 21     ecut=    50.00 Ry     beta=0.60
     Davidson diagonalization with overlap
     ethr =  1.15E-10,  avg # of iterations =  1.3

     total cpu time spent up to now is     6938.5 secs

     total energy              =    -352.51764033 Ry
     Harris-Foulkes estimate   =    -352.51764033 Ry
     estimated scf accuracy    <       0.00000002 Ry

     iteration # 22     ecut=    50.00 Ry     beta=0.60
     Davidson diagonalization with overlap
     ethr =  5.09E-11,  avg # of iterations =  3.1

     total cpu time spent up to now is     6958.1 secs

     total energy              =    -352.51764033 Ry
     Harris-Foulkes estimate   =    -352.51764033 Ry
     estimated scf accuracy    <          8.6E-11 Ry

     iteration # 23     ecut=    50.00 Ry     beta=0.60
     Davidson diagonalization with overlap
     ethr =  2.27E-13,  avg # of iterations =  5.0

     total cpu time spent up to now is     6986.8 secs

     total energy              =    -352.51764033 Ry
     Harris-Foulkes estimate   =    -352.51764033 Ry
     estimated scf accuracy    <          2.0E-10 Ry

     iteration # 24     ecut=    50.00 Ry     beta=0.60
     Davidson diagonalization with overlap
     ethr =  2.27E-13,  avg # of iterations =  2.0

     total cpu time spent up to now is     7004.4 secs

     total energy              =    -352.51764033 Ry
     Harris-Foulkes estimate   =    -352.51764033 Ry
     estimated scf accuracy    <          9.6E-12 Ry

     iteration # 25     ecut=    50.00 Ry     beta=0.60
     Davidson diagonalization with overlap
     ethr =  1.00E-13,  avg # of iterations =  3.4

     total cpu time spent up to now is     7024.5 secs

     total energy              =    -352.51764033 Ry
     Harris-Foulkes estimate   =    -352.51764033 Ry
     estimated scf accuracy    <          5.3E-12 Ry

     iteration # 26     ecut=    50.00 Ry     beta=0.60
     Davidson diagonalization with overlap
     ethr =  1.00E-13,  avg # of iterations =  1.0

     total cpu time spent up to now is     7041.2 secs

     End of self-consistent calculation

     Number of k-points >= 100: set verbosity='high' to print the bands.

     the Fermi energy is    16.4309 ev

!    total energy              =    -352.51764033 Ry
     Harris-Foulkes estimate   =    -352.51764033 Ry
     estimated scf accuracy    <          9.0E-13 Ry

     The total energy is the sum of the following terms:

     one-electron contribution =     -73.32488283 Ry
     hartree contribution      =      54.28695918 Ry
     xc contribution           =     -51.41973217 Ry
     ewald contribution        =    -282.06031620 Ry
     smearing contrib. (-TS)   =       0.00033170 Ry

     convergence has been achieved in  26 iterations

     Forces acting on atoms (Ry/au):

     atom    1 type  2   force =    -0.00000000    0.00000000   -0.00000000
     atom    2 type  1   force =     0.00000037    0.00000037   -0.00000037
     atom    3 type  1   force =    -0.00000037   -0.00000037    0.00000037

     Total force =     0.000001     Total SCF correction =     0.000000
     SCF correction compared to forces is large: reduce conv_thr to get better values


     entering subroutine stress ...

          total   stress  (Ry/bohr**3)                   (kbar)     P=   -1.19
  -0.00000811  -0.00000003   0.00000003         -1.19     -0.00      0.00
  -0.00000003  -0.00000811   0.00000003         -0.00     -1.19      0.00
   0.00000003   0.00000003  -0.00000811          0.00      0.00     -1.19


     init_run     :     22.60s CPU     23.54s WALL (       2 calls)
     electrons    :   6607.86s CPU   6806.25s WALL (      17 calls)
     update_pot   :     31.84s CPU     32.00s WALL (      15 calls)
     forces       :     58.56s CPU     59.75s WALL (      17 calls)
     stress       :    118.94s CPU    122.31s WALL (      17 calls)

     Called by init_run:
     wfcinit      :     19.83s CPU     20.68s WALL (       2 calls)
     potinit      :      0.77s CPU      0.78s WALL (       2 calls)

     Called by electrons:
     c_bands      :   5603.70s CPU   5751.51s WALL (     274 calls)
     sum_band     :    938.87s CPU    978.07s WALL (     274 calls)
     v_of_rho     :     17.56s CPU     18.25s WALL (     284 calls)
     newd         :     47.49s CPU     58.57s WALL (     284 calls)
     mix_rho      :      2.38s CPU      2.45s WALL (     274 calls)

     Called by c_bands:
     init_us_2    :     98.70s CPU    100.65s WALL (  174032 calls)
     cegterg      :   5414.51s CPU   5559.67s WALL (   81652 calls)

     Called by sum_band:
     sum_band:bec :      4.37s CPU      4.51s WALL (   81652 calls)
     addusdens    :     50.23s CPU     63.55s WALL (     274 calls)

     Called by *egterg:
     h_psi        :   3592.55s CPU   3714.87s WALL (  339852 calls)
     s_psi        :    283.49s CPU    287.44s WALL (  339852 calls)
     g_psi        :     15.02s CPU     15.19s WALL (  257604 calls)
     cdiaghg      :    433.27s CPU    438.60s WALL (  332700 calls)

     Called by h_psi:
     h_psi:pot    :   3559.04s CPU   3680.61s WALL (  339852 calls)
     h_psi:calbec :    393.17s CPU    407.57s WALL (  339852 calls)
     vloc_psi     :   2879.79s CPU   2979.82s WALL (  339852 calls)
     add_vuspsi   :    284.26s CPU    291.68s WALL (  339852 calls)

     General routines
     calbec       :    557.37s CPU    576.39s WALL (  446834 calls)
     fft          :      9.74s CPU     10.17s WALL (    4944 calls)
     ffts         :      0.21s CPU      0.22s WALL (     558 calls)
     fftw         :   2601.07s CPU   2686.56s WALL (11739104 calls)
     interpolate  :      1.85s CPU      1.92s WALL (     558 calls)

     Parallel routines
     fft_scatter  :    447.57s CPU    465.13s WALL (11744606 calls)

     PWSCF        :     1h54m CPU        1h57m WALL


   This run was terminated on:  20:18:10  26Apr2018            

=------------------------------------------------------------------------------=
   JOB DONE.
=------------------------------------------------------------------------------=
