
     Program PWSCF v.5.4.0 starts on 25Sep2019 at 20:14:34 

     This program is part of the open-source Quantum ESPRESSO suite
     for quantum simulation of materials; please cite
         "P. Giannozzi et al., J. Phys.:Condens. Matter 21 395502 (2009);
          URL http://www.quantum-espresso.org", 
     in publications or presentations arising from this work. More details at
     http://www.quantum-espresso.org/quote

     Serial version
     Reading input from ecut.in

     Current dimensions of program PWSCF are:
     Max number of different atomic species (ntypx) = 10
     Max number of k-points (npk) =  40000
     Max angular momentum in pseudopotentials (lmaxx) =  3
     Message from routine setup:
     no reason to have ecutrho>4*ecutwfc

     G-vector sticks info
     --------------------
     sticks:   dense  smooth     PW     G-vecs:    dense   smooth      PW
     Sum        3049    1027    301               110947    21331    3479



     bravais-lattice index     =            2
     lattice parameter (alat)  =      10.2600  a.u.
     unit-cell volume          =     270.0114 (a.u.)^3
     number of atoms/cell      =            2
     number of atomic types    =            1
     number of electrons       =         8.00
     number of Kohn-Sham states=            8
     kinetic-energy cutoff     =      70.0000  Ry
     charge density cutoff     =     840.0000  Ry
     convergence threshold     =      1.0E-08
     mixing beta               =       0.7000
     number of iterations used =            8  plain     mixing
     Exchange-correlation      =  SLA  PZ   NOGX NOGC ( 1  1  0  0 0 0)

     celldm(1)=  10.260000  celldm(2)=   0.000000  celldm(3)=   0.000000
     celldm(4)=   0.000000  celldm(5)=   0.000000  celldm(6)=   0.000000

     crystal axes: (cart. coord. in units of alat)
               a(1) = (  -0.500000   0.000000   0.500000 )  
               a(2) = (   0.000000   0.500000   0.500000 )  
               a(3) = (  -0.500000   0.500000   0.000000 )  

     reciprocal axes: (cart. coord. in units 2 pi/alat)
               b(1) = ( -1.000000 -1.000000  1.000000 )  
               b(2) = (  1.000000  1.000000  1.000000 )  
               b(3) = ( -1.000000  1.000000 -1.000000 )  


     PseudoPot. # 1 for Si read from file:
     ./handson_pwscf/pseudo/Si.pz-vbc.UPF
     MD5 check sum: 6dfa03ddd5817404712e03e4d12deb78
     Pseudo is Norm-conserving, Zval =  4.0
     Generated by new atomic code, or converted to UPF format
     Using radial grid of  431 points,  2 beta functions with: 
                l(1) =   0
                l(2) =   1

     atomic species   valence    mass     pseudopotential
        Si             4.00    28.08600     Si( 1.00)

     48 Sym. Ops., with inversion, found (24 have fractional translation)



   Cartesian axes

     site n.     atom                  positions (alat units)
         1           Si  tau(   1) = (   0.0000000   0.0000000   0.0000000  )
         2           Si  tau(   2) = (   0.2500000   0.2500000   0.2500000  )

     number of k points=    10
                       cart. coord. in units 2pi/alat
        k(    1) = (  -0.1250000   0.1250000   0.1250000), wk =   0.0625000
        k(    2) = (  -0.3750000   0.3750000  -0.1250000), wk =   0.1875000
        k(    3) = (   0.3750000  -0.3750000   0.6250000), wk =   0.1875000
        k(    4) = (   0.1250000  -0.1250000   0.3750000), wk =   0.1875000
        k(    5) = (  -0.1250000   0.6250000   0.1250000), wk =   0.1875000
        k(    6) = (   0.6250000  -0.1250000   0.8750000), wk =   0.3750000
        k(    7) = (   0.3750000   0.1250000   0.6250000), wk =   0.3750000
        k(    8) = (  -0.1250000  -0.8750000   0.1250000), wk =   0.1875000
        k(    9) = (  -0.3750000   0.3750000   0.3750000), wk =   0.0625000
        k(   10) = (   0.3750000  -0.3750000   1.1250000), wk =   0.1875000

     Dense  grid:   110947 G-vectors     FFT dimensions: (  72,  72,  72)

     Smooth grid:    21331 G-vectors     FFT dimensions: (  40,  40,  40)

     Largest allocated arrays     est. size (Mb)     dimensions
        Kohn-Sham Wavefunctions         0.33 Mb     (    2698,    8)
        NL pseudopotentials             0.33 Mb     (    2698,    8)
        Each V/rho on FFT grid          5.70 Mb     (  373248)
        Each G-vector array             0.85 Mb     (  110947)
        G-vector shells                 0.01 Mb     (     748)
     Largest temporary arrays     est. size (Mb)     dimensions
        Auxiliary wavefunctions         1.32 Mb     (    2698,   32)
        Each subspace H/S matrix        0.02 Mb     (      32,   32)
        Each <psi_i|beta_j> matrix      0.00 Mb     (       8,    8)
        Arrays for rho mixing          45.56 Mb     (  373248,    8)

     Initial potential from superposition of free atoms

     starting charge    7.99901, renormalised to    8.00000
     Starting wfc are    8 randomized atomic wfcs

     total cpu time spent up to now is        0.4 secs

     per-process dynamical memory:    56.2 Mb

     Self-consistent Calculation

     iteration #  1     ecut=    70.00 Ry     beta=0.70
     Davidson diagonalization with overlap
     ethr =  1.00E-02,  avg # of iterations =  4.0

     Threshold (ethr) on eigenvalues was too large:
     Diagonalizing with lowered threshold

     Davidson diagonalization with overlap
     ethr =  7.83E-04,  avg # of iterations =  1.0

     total cpu time spent up to now is        1.7 secs

     total energy              =     -15.84951013 Ry
     Harris-Foulkes estimate   =     -15.86987731 Ry
     estimated scf accuracy    <       0.06103710 Ry

     iteration #  2     ecut=    70.00 Ry     beta=0.70
     Davidson diagonalization with overlap
     ethr =  7.63E-04,  avg # of iterations =  1.0

     total cpu time spent up to now is        2.2 secs

     total energy              =     -15.85313261 Ry
     Harris-Foulkes estimate   =     -15.85332340 Ry
     estimated scf accuracy    <       0.00182512 Ry

     iteration #  3     ecut=    70.00 Ry     beta=0.70
     Davidson diagonalization with overlap
     ethr =  2.28E-05,  avg # of iterations =  2.9

     total cpu time spent up to now is        2.9 secs

     total energy              =     -15.85323646 Ry
     Harris-Foulkes estimate   =     -15.85323788 Ry
     estimated scf accuracy    <       0.00005228 Ry

     iteration #  4     ecut=    70.00 Ry     beta=0.70
     Davidson diagonalization with overlap
     ethr =  6.54E-07,  avg # of iterations =  2.4

     total cpu time spent up to now is        3.5 secs

     total energy              =     -15.85324732 Ry
     Harris-Foulkes estimate   =     -15.85324695 Ry
     estimated scf accuracy    <       0.00000020 Ry

     iteration #  5     ecut=    70.00 Ry     beta=0.70
     Davidson diagonalization with overlap
     ethr =  2.46E-09,  avg # of iterations =  2.4

     total cpu time spent up to now is        4.1 secs

     End of self-consistent calculation

          k =-0.1250 0.1250 0.1250 (  2698 PWs)   bands (ev):

    -5.6808   4.4500   5.7574   5.7574   8.5145   9.0293   9.0293  10.6539

          k =-0.3750 0.3750-0.1250 (  2668 PWs)   bands (ev):

    -4.6325   1.4305   3.7287   5.2731   8.7275   9.7176   9.8659  12.2533

          k = 0.3750-0.3750 0.6250 (  2669 PWs)   bands (ev):

    -3.4551  -0.7026   3.7625   4.4835   8.2006   9.5254  10.1396  13.3394

          k = 0.1250-0.1250 0.3750 (  2671 PWs)   bands (ev):

    -5.1427   2.8323   4.7270   4.8021   8.1631   9.7188  10.4996  10.7552

          k =-0.1250 0.6250 0.1250 (  2669 PWs)   bands (ev):

    -4.0909   1.1311   3.3663   3.8353   7.3552   8.8942  11.9882  12.2866

          k = 0.6250-0.1250 0.8750 (  2666 PWs)   bands (ev):

    -2.4072  -0.8544   1.9620   3.0732   8.3913  10.2749  11.2797  13.4202

          k = 0.3750 0.1250 0.6250 (  2670 PWs)   bands (ev):

    -3.6617   0.2223   2.7130   4.1123   8.8856   9.5635  11.0161  11.9438

          k =-0.1250-0.8750 0.1250 (  2672 PWs)   bands (ev):

    -2.5890  -0.7501   2.5942   3.3591   6.8918   7.9677  14.2643  14.3079

          k =-0.3750 0.3750 0.3750 (  2674 PWs)   bands (ev):

    -4.1859   0.1004   4.9598   4.9598   7.6650   9.4926   9.4926  13.7712

          k = 0.3750-0.3750 1.1250 (  2673 PWs)   bands (ev):

    -2.9514  -0.5778   2.0345   4.1583   7.8490  11.4347  11.5116  12.9398

     highest occupied, lowest unoccupied level (ev):     5.7574    6.8918

!    total energy              =     -15.85324748 Ry
     Harris-Foulkes estimate   =     -15.85324744 Ry
     estimated scf accuracy    <          7.1E-09 Ry

     The total energy is the sum of the following terms:

     one-electron contribution =       4.65186995 Ry
     hartree contribution      =       1.09383080 Ry
     xc contribution           =      -4.79801866 Ry
     ewald contribution        =     -16.80092957 Ry

     convergence has been achieved in   5 iterations

     Writing output data file silicon.save

     init_run     :      0.33s CPU      0.34s WALL (       1 calls)
     electrons    :      3.77s CPU      3.78s WALL (       1 calls)

     Called by init_run:
     wfcinit      :      0.17s CPU      0.17s WALL (       1 calls)
     potinit      :      0.05s CPU      0.05s WALL (       1 calls)

     Called by electrons:
     c_bands      :      2.50s CPU      2.51s WALL (       6 calls)
     sum_band     :      1.02s CPU      1.02s WALL (       6 calls)
     v_of_rho     :      0.16s CPU      0.16s WALL (       6 calls)
     mix_rho      :      0.06s CPU      0.06s WALL (       6 calls)

     Called by c_bands:
     init_us_2    :      0.04s CPU      0.04s WALL (     130 calls)
     cegterg      :      2.47s CPU      2.48s WALL (      60 calls)

     Called by sum_band:

     Called by *egterg:
     h_psi        :      2.48s CPU      2.49s WALL (     207 calls)
     g_psi        :      0.02s CPU      0.02s WALL (     137 calls)
     cdiaghg      :      0.02s CPU      0.02s WALL (     187 calls)

     Called by h_psi:
     add_vuspsi   :      0.01s CPU      0.01s WALL (     207 calls)

     General routines
     calbec       :      0.02s CPU      0.02s WALL (     207 calls)
     fft          :      0.16s CPU      0.16s WALL (      41 calls)
     ffts         :      0.01s CPU      0.01s WALL (      12 calls)
     fftw         :      2.22s CPU      2.23s WALL (    3068 calls)
     interpolate  :      0.07s CPU      0.07s WALL (      12 calls)
     davcio       :      0.00s CPU      0.00s WALL (      10 calls)


     PWSCF        :     4.13s CPU         4.16s WALL


   This run was terminated on:  20:14:38  25Sep2019            

=------------------------------------------------------------------------------=
   JOB DONE.
=------------------------------------------------------------------------------=
