
     Program PWSCF v.6.3MaX starts on 12Feb2020 at 11:30:57 

     This program is part of the open-source Quantum ESPRESSO suite
     for quantum simulation of materials; please cite
         "P. Giannozzi et al., J. Phys.:Condens. Matter 21 395502 (2009);
         "P. Giannozzi et al., J. Phys.:Condens. Matter 29 465901 (2017);
          URL http://www.quantum-espresso.org", 
     in publications or presentations arising from this work. More details at
     http://www.quantum-espresso.org/quote

     Parallel version (MPI), running on     4 processors

     MPI processes distributed on     1 nodes
     R & G space division:  proc/nbgrp/npool/nimage =       4
     Waiting for input...
     Reading input from standard input

     Current dimensions of program PWSCF are:
     Max number of different atomic species (ntypx) = 10
     Max number of k-points (npk) =  40000
     Max angular momentum in pseudopotentials (lmaxx) =  3
     Message from routine iosys:
     minimal I/O required, wf_collect reset to FALSE

     Subspace diagonalization in iterative solution of the eigenvalue problem:
     a serial algorithm will be used

 
     Parallelization info
     --------------------
     sticks:   dense  smooth     PW     G-vecs:    dense   smooth      PW
     Min         681     274     78                27327     6928    1090
     Max         682     275     79                27332     6929    1095
     Sum        2725    1099    313               109319    27715    4365
 


     bravais-lattice index     =            0
     lattice parameter (alat)  =       1.8897  a.u.
     unit-cell volume          =     808.3427 (a.u.)^3
     number of atoms/cell      =            6
     number of atomic types    =            2
     number of electrons       =        75.00
     number of Kohn-Sham states=           46
     kinetic-energy cutoff     =      40.0000  Ry
     charge density cutoff     =     400.0000  Ry
     convergence threshold     =      1.0E-10
     mixing beta               =       0.6000
     number of iterations used =            8  plain     mixing
     Exchange-correlation      = SLA PW PBE PBE ( 1  4  3  4 0 0)
     nstep                     =           50


     celldm(1)=   1.889726  celldm(2)=   0.000000  celldm(3)=   0.000000
     celldm(4)=   0.000000  celldm(5)=   0.000000  celldm(6)=   0.000000

     crystal axes: (cart. coord. in units of alat)
               a(1) = (   4.567506  -2.637051   0.000000 )  
               a(2) = (  -4.567506  -2.637051   0.000000 )  
               a(3) = (   0.000000   0.000000  -4.972461 )  

     reciprocal axes: (cart. coord. in units 2 pi/alat)
               b(1) = (  0.109469 -0.189606  0.000000 )  
               b(2) = ( -0.109469 -0.189606  0.000000 )  
               b(3) = (  0.000000  0.000000 -0.201108 )  


     PseudoPot. # 1 for Nb read from file:
     ./Nb.pbe-nsp-van.UPF
     MD5 check sum: 0a22fc7fb0ba19a08ca5db297a5d2854
     Pseudo is Ultrasoft + core correction, Zval = 13.0
     Generated by new atomic code, or converted to UPF format
     Using radial grid of  887 points,  6 beta functions with: 
                l(1) =   0
                l(2) =   0
                l(3) =   1
                l(4) =   1
                l(5) =   2
                l(6) =   2
     Q(r) pseudized with  6 coefficients,  rinner =    1.000   1.000   1.000
                                                       1.000   1.000

     PseudoPot. # 2 for Ti read from file:
     ./Ti.pbe-sp-van_ak.UPF
     MD5 check sum: f98fea3e8887528921fefa5636a534ca
     Pseudo is Ultrasoft, Zval = 12.0
     Generated by new atomic code, or converted to UPF format
     Using radial grid of  851 points,  6 beta functions with: 
                l(1) =   0
                l(2) =   0
                l(3) =   1
                l(4) =   1
                l(5) =   2
                l(6) =   2
     Q(r) pseudized with  8 coefficients,  rinner =    1.000   1.000   1.000
                                                       1.000   1.000

     atomic species   valence    mass     pseudopotential
        Nb            13.00    92.90638     Nb( 1.00)
        Ti            12.00    47.86700     Ti( 1.00)

      2 Sym. Ops. (no inversion) found
          (note:  2 additional sym.ops. were found but ignored
           their fractional translations are incommensurate with FFT grid)


   Cartesian axes

     site n.     atom                  positions (alat units)
         1           Ti  tau(   1) = (   0.0000000  -5.2741024  -4.9724614  )
         2           Ti  tau(   2) = (   0.0000015  -1.7580350  -2.4862307  )
         3           Ti  tau(   3) = (  -1.5225021  -2.6370512  -4.9724614  )
         4           Nb  tau(   4) = (  -1.5225006  -4.3950862  -2.4862307  )
         5           Nb  tau(   5) = (   1.5225021  -2.6370512  -4.9724614  )
         6           Nb  tau(   6) = (   1.5225036  -4.3950862  -2.4862307  )

     number of k points=   427  Marzari-Vanderbilt smearing, width (Ry)=  0.0200

     Number of k-points >= 100: set verbosity='high' to print them.

     Dense  grid:   109319 G-vectors     FFT dimensions: (  64,  64,  60)

     Smooth grid:    27715 G-vectors     FFT dimensions: (  45,  45,  40)

     Estimated max dynamical RAM per process >     363.35 MB

     Estimated total dynamical RAM >       1.42 GB

     Initial potential from superposition of free atoms

     starting charge   71.99167, renormalised to   75.00000
     Starting wfcs are   69 randomized atomic wfcs

     total cpu time spent up to now is       23.2 secs

     Self-consistent Calculation

     iteration #  1     ecut=    40.00 Ry     beta= 0.60
     Davidson diagonalization with overlap
     ethr =  1.00E-02,  avg # of iterations =  3.0

     total cpu time spent up to now is       73.3 secs

     total energy              =    -691.74812836 Ry
     Harris-Foulkes estimate   =    -706.08388840 Ry
     estimated scf accuracy    <      18.18663367 Ry

     iteration #  2     ecut=    40.00 Ry     beta= 0.60
     Davidson diagonalization with overlap
     ethr =  1.00E-02,  avg # of iterations =  5.1

     total cpu time spent up to now is      153.0 secs

     total energy              =    -700.19877603 Ry
     Harris-Foulkes estimate   =    -723.60202946 Ry
     estimated scf accuracy    <      68.11366927 Ry

     iteration #  3     ecut=    40.00 Ry     beta= 0.60
     Davidson diagonalization with overlap
     ethr =  1.00E-02,  avg # of iterations =  4.2

     total cpu time spent up to now is      210.8 secs

     total energy              =    -704.08268776 Ry
     Harris-Foulkes estimate   =    -706.66651766 Ry
     estimated scf accuracy    <      18.98975332 Ry

     iteration #  4     ecut=    40.00 Ry     beta= 0.60
     Davidson diagonalization with overlap
     ethr =  1.00E-02,  avg # of iterations =  2.0

     total cpu time spent up to now is      250.0 secs

     total energy              =    -704.59817021 Ry
     Harris-Foulkes estimate   =    -704.72719537 Ry
     estimated scf accuracy    <       7.81050391 Ry

     iteration #  5     ecut=    40.00 Ry     beta= 0.60
     Davidson diagonalization with overlap
     ethr =  1.00E-02,  avg # of iterations =  1.0

     total cpu time spent up to now is      286.0 secs

     total energy              =    -704.07123646 Ry
     Harris-Foulkes estimate   =    -704.64321601 Ry
     estimated scf accuracy    <       7.29536123 Ry

     iteration #  6     ecut=    40.00 Ry     beta= 0.60
     Davidson diagonalization with overlap
     ethr =  9.73E-03,  avg # of iterations =  1.0

     total cpu time spent up to now is      322.1 secs

     total energy              =    -703.04217441 Ry
     Harris-Foulkes estimate   =    -704.13988720 Ry
     estimated scf accuracy    <       5.31598982 Ry

     iteration #  7     ecut=    40.00 Ry     beta= 0.60
     Davidson diagonalization with overlap
     ethr =  7.09E-03,  avg # of iterations =  4.3

     total cpu time spent up to now is      374.0 secs

     total energy              =    -703.63637757 Ry
     Harris-Foulkes estimate   =    -703.76714097 Ry
     estimated scf accuracy    <       1.72955526 Ry

     iteration #  8     ecut=    40.00 Ry     beta= 0.60
     Davidson diagonalization with overlap
     ethr =  2.31E-03,  avg # of iterations =  1.9

     total cpu time spent up to now is      412.4 secs

     total energy              =    -703.64716416 Ry
     Harris-Foulkes estimate   =    -703.68173385 Ry
     estimated scf accuracy    <       0.56845998 Ry

     iteration #  9     ecut=    40.00 Ry     beta= 0.60
     Davidson diagonalization with overlap
     ethr =  7.58E-04,  avg # of iterations =  4.9

     total cpu time spent up to now is      461.6 secs

     total energy              =    -703.50882924 Ry
     Harris-Foulkes estimate   =    -703.69727174 Ry
     estimated scf accuracy    <       0.86558259 Ry

     iteration # 10     ecut=    40.00 Ry     beta= 0.60
     Davidson diagonalization with overlap
     ethr =  7.58E-04,  avg # of iterations =  4.6

     total cpu time spent up to now is      512.6 secs

     total energy              =    -703.64053896 Ry
     Harris-Foulkes estimate   =    -703.69310835 Ry
     estimated scf accuracy    <       0.51760085 Ry

     iteration # 11     ecut=    40.00 Ry     beta= 0.60
     Davidson diagonalization with overlap
     ethr =  6.90E-04,  avg # of iterations =  1.1

     total cpu time spent up to now is      548.8 secs

     total energy              =    -703.60839122 Ry
     Harris-Foulkes estimate   =    -703.65259675 Ry
     estimated scf accuracy    <       0.21592334 Ry

     iteration # 12     ecut=    40.00 Ry     beta= 0.60
     Davidson diagonalization with overlap
     ethr =  2.88E-04,  avg # of iterations =  4.3

     total cpu time spent up to now is      600.1 secs

     total energy              =    -703.61918721 Ry
     Harris-Foulkes estimate   =    -703.65972591 Ry
     estimated scf accuracy    <       0.25976167 Ry

     iteration # 13     ecut=    40.00 Ry     beta= 0.60
     Davidson diagonalization with overlap
     ethr =  2.88E-04,  avg # of iterations =  1.5

     total cpu time spent up to now is      637.3 secs

     total energy              =    -703.63876277 Ry
     Harris-Foulkes estimate   =    -703.63992110 Ry
     estimated scf accuracy    <       0.01138625 Ry

     iteration # 14     ecut=    40.00 Ry     beta= 0.60
     Davidson diagonalization with overlap
     ethr =  1.52E-05,  avg # of iterations =  6.0

     total cpu time spent up to now is      711.6 secs

     total energy              =    -703.64157195 Ry
     Harris-Foulkes estimate   =    -703.64966902 Ry
     estimated scf accuracy    <       0.08097345 Ry

     iteration # 15     ecut=    40.00 Ry     beta= 0.60
     Davidson diagonalization with overlap
     ethr =  1.52E-05,  avg # of iterations =  4.1

     total cpu time spent up to now is      758.3 secs

     total energy              =    -703.64337499 Ry
     Harris-Foulkes estimate   =    -703.64407371 Ry
     estimated scf accuracy    <       0.01438128 Ry

     iteration # 16     ecut=    40.00 Ry     beta= 0.60
     Davidson diagonalization with overlap
     ethr =  1.52E-05,  avg # of iterations =  3.1

     total cpu time spent up to now is      800.5 secs

     total energy              =    -703.64302401 Ry
     Harris-Foulkes estimate   =    -703.64457218 Ry
     estimated scf accuracy    <       0.01871296 Ry

     iteration # 17     ecut=    40.00 Ry     beta= 0.60
     Davidson diagonalization with overlap
     ethr =  1.52E-05,  avg # of iterations =  1.0

     total cpu time spent up to now is      836.9 secs

     total energy              =    -703.64308856 Ry
     Harris-Foulkes estimate   =    -703.64347702 Ry
     estimated scf accuracy    <       0.00560639 Ry

     iteration # 18     ecut=    40.00 Ry     beta= 0.60
     Davidson diagonalization with overlap
     ethr =  7.48E-06,  avg # of iterations =  4.5

     total cpu time spent up to now is      883.9 secs

     total energy              =    -703.64336450 Ry
     Harris-Foulkes estimate   =    -703.64341710 Ry
     estimated scf accuracy    <       0.00085287 Ry

     iteration # 19     ecut=    40.00 Ry     beta= 0.60
     Davidson diagonalization with overlap
     ethr =  1.14E-06,  avg # of iterations =  5.8

     total cpu time spent up to now is      947.1 secs

     total energy              =    -703.64351392 Ry
     Harris-Foulkes estimate   =    -703.64351865 Ry
     estimated scf accuracy    <       0.00002539 Ry

     iteration # 20     ecut=    40.00 Ry     beta= 0.60
     Davidson diagonalization with overlap
     ethr =  3.39E-08,  avg # of iterations =  4.4

     total cpu time spent up to now is      998.7 secs

     total energy              =    -703.64351906 Ry
     Harris-Foulkes estimate   =    -703.64351941 Ry
     estimated scf accuracy    <       0.00000696 Ry

     iteration # 21     ecut=    40.00 Ry     beta= 0.60
     Davidson diagonalization with overlap
     ethr =  9.28E-09,  avg # of iterations =  3.4

     total cpu time spent up to now is     1049.1 secs

     total energy              =    -703.64351891 Ry
     Harris-Foulkes estimate   =    -703.64351994 Ry
     estimated scf accuracy    <       0.00001478 Ry

     iteration # 22     ecut=    40.00 Ry     beta= 0.60
     Davidson diagonalization with overlap
     ethr =  9.28E-09,  avg # of iterations =  1.0

     total cpu time spent up to now is     1085.4 secs

     total energy              =    -703.64351878 Ry
     Harris-Foulkes estimate   =    -703.64351925 Ry
     estimated scf accuracy    <       0.00000543 Ry

     iteration # 23     ecut=    40.00 Ry     beta= 0.60
     Davidson diagonalization with overlap
     ethr =  7.24E-09,  avg # of iterations =  2.5

     total cpu time spent up to now is     1132.0 secs

     total energy              =    -703.64351881 Ry
     Harris-Foulkes estimate   =    -703.64351896 Ry
     estimated scf accuracy    <       0.00000110 Ry

     iteration # 24     ecut=    40.00 Ry     beta= 0.60
     Davidson diagonalization with overlap
     ethr =  1.46E-09,  avg # of iterations =  4.2

     total cpu time spent up to now is     1184.5 secs

     total energy              =    -703.64351896 Ry
     Harris-Foulkes estimate   =    -703.64351900 Ry
     estimated scf accuracy    <       0.00000020 Ry

     iteration # 25     ecut=    40.00 Ry     beta= 0.60
     Davidson diagonalization with overlap
     ethr =  2.68E-10,  avg # of iterations =  3.4

     total cpu time spent up to now is     1228.5 secs

     total energy              =    -703.64351899 Ry
     Harris-Foulkes estimate   =    -703.64351899 Ry
     estimated scf accuracy    <       0.00000004 Ry

     iteration # 26     ecut=    40.00 Ry     beta= 0.60
     Davidson diagonalization with overlap
     ethr =  5.06E-11,  avg # of iterations =  3.8

     total cpu time spent up to now is     1277.6 secs

     total energy              =    -703.64351899 Ry
     Harris-Foulkes estimate   =    -703.64351899 Ry
     estimated scf accuracy    <       0.00000001 Ry

     iteration # 27     ecut=    40.00 Ry     beta= 0.60
     Davidson diagonalization with overlap
     ethr =  1.78E-11,  avg # of iterations =  1.9

     total cpu time spent up to now is     1316.7 secs

     total energy              =    -703.64351899 Ry
     Harris-Foulkes estimate   =    -703.64351899 Ry
     estimated scf accuracy    <          1.3E-09 Ry

     iteration # 28     ecut=    40.00 Ry     beta= 0.60
     Davidson diagonalization with overlap
     ethr =  1.72E-12,  avg # of iterations =  4.9

     total cpu time spent up to now is     1376.5 secs

     total energy              =    -703.64351899 Ry
     Harris-Foulkes estimate   =    -703.64351899 Ry
     estimated scf accuracy    <          1.5E-09 Ry

     iteration # 29     ecut=    40.00 Ry     beta= 0.60
     Davidson diagonalization with overlap
     ethr =  1.72E-12,  avg # of iterations =  1.0

     total cpu time spent up to now is     1412.8 secs

     total energy              =    -703.64351899 Ry
     Harris-Foulkes estimate   =    -703.64351899 Ry
     estimated scf accuracy    <          7.2E-10 Ry

     iteration # 30     ecut=    40.00 Ry     beta= 0.60
     Davidson diagonalization with overlap
     ethr =  9.63E-13,  avg # of iterations =  1.3

     total cpu time spent up to now is     1449.8 secs

     total energy              =    -703.64351899 Ry
     Harris-Foulkes estimate   =    -703.64351899 Ry
     estimated scf accuracy    <          2.9E-10 Ry

     iteration # 31     ecut=    40.00 Ry     beta= 0.60
     Davidson diagonalization with overlap
     ethr =  3.85E-13,  avg # of iterations =  4.4

     total cpu time spent up to now is     1498.8 secs

     End of self-consistent calculation

     Number of k-points >= 100: set verbosity='high' to print the bands.

     the Fermi energy is    13.8366 ev

!    total energy              =    -703.64351899 Ry
     Harris-Foulkes estimate   =    -703.64351899 Ry
     estimated scf accuracy    <          2.8E-11 Ry

     The total energy is the sum of the following terms:

     one-electron contribution =    -204.41052397 Ry
     hartree contribution      =     127.58581675 Ry
     xc contribution           =     -98.24463889 Ry
     ewald contribution        =    -528.56686845 Ry
     smearing contrib. (-TS)   =      -0.00730443 Ry

     convergence has been achieved in  31 iterations

     Forces acting on atoms (cartesian axes, Ry/au):

     atom    1 type  2   force =    -0.00023590    0.00153914    0.00000000
     atom    2 type  2   force =    -0.00009511    0.00002923    0.00000000
     atom    3 type  2   force =    -0.00144675   -0.00055598    0.00000000
     atom    4 type  1   force =    -0.00138744   -0.00064443    0.00000000
     atom    5 type  1   force =     0.00329760   -0.00189850    0.00000000
     atom    6 type  1   force =    -0.00013240    0.00153054    0.00000000

     Total force =     0.004901     Total SCF correction =     0.000006


     Computing stress (Cartesian axis) and pressure

          total   stress  (Ry/bohr**3)                   (kbar)     P= -125.49
  -0.00089610   0.00000300   0.00000000       -131.82      0.44      0.00
   0.00000300  -0.00089263   0.00000000          0.44   -131.31      0.00
   0.00000000   0.00000000  -0.00077047          0.00      0.00   -113.34


     BFGS Geometry Optimization

     number of scf cycles    =   1
     number of bfgs steps    =   0

     enthalpy new            =    -703.6435189909 Ry

     new trust radius        =       0.1273876493 bohr
     new conv_thr            =            1.0E-10 Ry

     new unit-cell volume =    757.71752 a.u.^3 (   112.28215 Ang^3 )
     density =      6.24569 g/cm^3

CELL_PARAMETERS (alat=  1.88972599)
   4.464984795  -2.577861304   0.000000000
  -4.465379793  -2.578545460   0.000000000
   0.000000000   0.000000000  -4.876682291

ATOMIC_POSITIONS (angstrom)
Ti      -0.000516972  -5.155610468  -4.876682291
Ti      -0.000179379  -1.718787996  -2.438341145
Ti      -1.489340057  -2.578605110  -4.876682291
Nb      -1.489439555  -4.297453986  -2.438341145
Nb       1.489902448  -2.579071449  -4.876682291
Nb       1.487997991  -4.296100623  -2.438341145


     NEW-OLD atomic charge density approx. for the potential

     Check: negative/imaginary core charge=   -0.000001    0.000000
     extrapolated charge   70.19004, renormalised to   75.00000

     total cpu time spent up to now is     1517.1 secs

     Self-consistent Calculation

     iteration #  1     ecut=    40.00 Ry     beta= 0.60
     Davidson diagonalization with overlap
     c_bands:  1 eigenvalues not converged
     c_bands:  1 eigenvalues not converged
     c_bands:  1 eigenvalues not converged
     c_bands:  1 eigenvalues not converged
     c_bands:  1 eigenvalues not converged
     c_bands:  2 eigenvalues not converged
     c_bands:  1 eigenvalues not converged
     c_bands:  2 eigenvalues not converged
     c_bands:  2 eigenvalues not converged
     c_bands:  2 eigenvalues not converged
     c_bands:  2 eigenvalues not converged
     c_bands:  1 eigenvalues not converged
     c_bands:  1 eigenvalues not converged
     c_bands:  1 eigenvalues not converged
     c_bands:  1 eigenvalues not converged
     c_bands:  1 eigenvalues not converged
     c_bands:  1 eigenvalues not converged
     c_bands:  2 eigenvalues not converged
     c_bands:  2 eigenvalues not converged
     c_bands:  2 eigenvalues not converged
     c_bands:  1 eigenvalues not converged
     c_bands:  1 eigenvalues not converged
     c_bands:  1 eigenvalues not converged
     c_bands:  2 eigenvalues not converged
     c_bands:  1 eigenvalues not converged
     c_bands:  1 eigenvalues not converged
     c_bands:  1 eigenvalues not converged
     c_bands:  1 eigenvalues not converged
     c_bands:  1 eigenvalues not converged
     c_bands:  1 eigenvalues not converged
     c_bands:  1 eigenvalues not converged
     c_bands:  1 eigenvalues not converged
     c_bands:  1 eigenvalues not converged
     c_bands:  1 eigenvalues not converged
     c_bands:  2 eigenvalues not converged
     c_bands:  2 eigenvalues not converged
     c_bands:  1 eigenvalues not converged
     c_bands:  1 eigenvalues not converged
     c_bands:  1 eigenvalues not converged
     c_bands:  1 eigenvalues not converged
     c_bands:  1 eigenvalues not converged
     c_bands:  1 eigenvalues not converged
     c_bands:  1 eigenvalues not converged
     c_bands:  1 eigenvalues not converged
     c_bands:  1 eigenvalues not converged
     c_bands:  1 eigenvalues not converged
     c_bands:  1 eigenvalues not converged
     c_bands:  2 eigenvalues not converged
     c_bands:  2 eigenvalues not converged
     c_bands:  1 eigenvalues not converged
     c_bands:  1 eigenvalues not converged
     c_bands:  1 eigenvalues not converged
     c_bands:  1 eigenvalues not converged
     c_bands:  2 eigenvalues not converged
     c_bands:  2 eigenvalues not converged
     c_bands:  1 eigenvalues not converged
     c_bands:  1 eigenvalues not converged
     c_bands:  1 eigenvalues not converged
     c_bands:  1 eigenvalues not converged
     c_bands:  2 eigenvalues not converged
     c_bands:  2 eigenvalues not converged
     c_bands:  2 eigenvalues not converged
     c_bands:  2 eigenvalues not converged
     c_bands:  1 eigenvalues not converged
     c_bands:  1 eigenvalues not converged
     c_bands:  1 eigenvalues not converged
     c_bands:  1 eigenvalues not converged
     c_bands:  1 eigenvalues not converged
     c_bands:  1 eigenvalues not converged
     c_bands:  1 eigenvalues not converged
     c_bands:  1 eigenvalues not converged
     c_bands:  1 eigenvalues not converged
     c_bands:  1 eigenvalues not converged
     c_bands:  2 eigenvalues not converged
     c_bands:  2 eigenvalues not converged
     c_bands:  1 eigenvalues not converged
     c_bands:  1 eigenvalues not converged
     c_bands:  1 eigenvalues not converged
     c_bands:  1 eigenvalues not converged
     c_bands:  1 eigenvalues not converged
     c_bands:  2 eigenvalues not converged
     c_bands:  1 eigenvalues not converged
     c_bands:  2 eigenvalues not converged
     c_bands:  1 eigenvalues not converged
     c_bands:  1 eigenvalues not converged
     c_bands:  1 eigenvalues not converged
     c_bands:  1 eigenvalues not converged
     c_bands:  1 eigenvalues not converged
     c_bands:  1 eigenvalues not converged
     c_bands:  1 eigenvalues not converged
     c_bands:  1 eigenvalues not converged
     c_bands:  1 eigenvalues not converged
     c_bands:  1 eigenvalues not converged
     c_bands:  1 eigenvalues not converged
     c_bands:  1 eigenvalues not converged
     c_bands:  1 eigenvalues not converged
     c_bands:  1 eigenvalues not converged
     c_bands:  1 eigenvalues not converged
     c_bands:  2 eigenvalues not converged
     c_bands:  2 eigenvalues not converged
     c_bands:  2 eigenvalues not converged
     c_bands:  2 eigenvalues not converged
     c_bands:  1 eigenvalues not converged
     c_bands:  1 eigenvalues not converged
     c_bands:  1 eigenvalues not converged
     c_bands:  2 eigenvalues not converged
     c_bands:  1 eigenvalues not converged
     c_bands:  2 eigenvalues not converged
     c_bands:  1 eigenvalues not converged
     c_bands:  1 eigenvalues not converged
     c_bands:  2 eigenvalues not converged
     c_bands:  2 eigenvalues not converged
     c_bands:  2 eigenvalues not converged
     c_bands:  2 eigenvalues not converged
     c_bands:  2 eigenvalues not converged
     c_bands:  2 eigenvalues not converged
     c_bands:  2 eigenvalues not converged
     c_bands:  1 eigenvalues not converged
     c_bands:  1 eigenvalues not converged
     c_bands:  2 eigenvalues not converged
     c_bands:  2 eigenvalues not converged
     c_bands:  1 eigenvalues not converged
     c_bands:  2 eigenvalues not converged
     c_bands:  1 eigenvalues not converged
     c_bands:  2 eigenvalues not converged
     c_bands:  1 eigenvalues not converged
     c_bands:  1 eigenvalues not converged
     c_bands:  1 eigenvalues not converged
     c_bands:  1 eigenvalues not converged
     c_bands:  1 eigenvalues not converged
     c_bands:  1 eigenvalues not converged
     c_bands:  1 eigenvalues not converged
     c_bands:  1 eigenvalues not converged
     c_bands:  1 eigenvalues not converged
     c_bands:  1 eigenvalues not converged
     c_bands:  2 eigenvalues not converged
     c_bands:  2 eigenvalues not converged
     c_bands:  1 eigenvalues not converged
     c_bands:  1 eigenvalues not converged
     c_bands:  2 eigenvalues not converged
     c_bands:  2 eigenvalues not converged
     c_bands:  1 eigenvalues not converged
     c_bands:  1 eigenvalues not converged
     c_bands:  1 eigenvalues not converged
     c_bands:  1 eigenvalues not converged
     c_bands:  1 eigenvalues not converged
     c_bands:  1 eigenvalues not converged
     c_bands:  1 eigenvalues not converged
     c_bands:  1 eigenvalues not converged
     c_bands:  1 eigenvalues not converged
     c_bands:  1 eigenvalues not converged
     c_bands:  1 eigenvalues not converged
     c_bands:  1 eigenvalues not converged
     c_bands:  1 eigenvalues not converged
     c_bands:  1 eigenvalues not converged
     c_bands:  1 eigenvalues not converged
     c_bands:  1 eigenvalues not converged
     c_bands:  1 eigenvalues not converged
     c_bands:  3 eigenvalues not converged
     c_bands:  1 eigenvalues not converged
     c_bands:  1 eigenvalues not converged
     c_bands:  1 eigenvalues not converged
     c_bands:  1 eigenvalues not converged
     c_bands:  3 eigenvalues not converged
     c_bands:  1 eigenvalues not converged
     c_bands:  3 eigenvalues not converged
     c_bands:  1 eigenvalues not converged
     c_bands:  1 eigenvalues not converged
     c_bands:  2 eigenvalues not converged
     c_bands:  1 eigenvalues not converged
     c_bands:  2 eigenvalues not converged
     c_bands:  1 eigenvalues not converged
     c_bands:  1 eigenvalues not converged
     c_bands:  2 eigenvalues not converged
     c_bands:  1 eigenvalues not converged
     c_bands:  2 eigenvalues not converged
     c_bands:  1 eigenvalues not converged
     c_bands:  2 eigenvalues not converged
     c_bands:  2 eigenvalues not converged
     c_bands:  2 eigenvalues not converged
     c_bands:  1 eigenvalues not converged
     c_bands:  2 eigenvalues not converged
     c_bands:  1 eigenvalues not converged
     c_bands:  1 eigenvalues not converged
     c_bands:  1 eigenvalues not converged
     c_bands:  1 eigenvalues not converged
     c_bands:  1 eigenvalues not converged
     c_bands:  1 eigenvalues not converged
     c_bands:  1 eigenvalues not converged
     c_bands:  1 eigenvalues not converged
     c_bands:  2 eigenvalues not converged
     c_bands:  2 eigenvalues not converged
     c_bands:  1 eigenvalues not converged
     c_bands:  2 eigenvalues not converged
     c_bands:  1 eigenvalues not converged
     c_bands:  2 eigenvalues not converged
     c_bands:  2 eigenvalues not converged
     c_bands:  2 eigenvalues not converged
     c_bands:  1 eigenvalues not converged
     c_bands:  1 eigenvalues not converged
     c_bands:  1 eigenvalues not converged
     c_bands:  1 eigenvalues not converged
     c_bands:  1 eigenvalues not converged
     c_bands:  1 eigenvalues not converged
     c_bands:  1 eigenvalues not converged
     c_bands:  1 eigenvalues not converged
     c_bands:  1 eigenvalues not converged
     c_bands:  1 eigenvalues not converged
     c_bands:  2 eigenvalues not converged
     c_bands:  2 eigenvalues not converged
     c_bands:  1 eigenvalues not converged
     c_bands:  1 eigenvalues not converged
     c_bands:  1 eigenvalues not converged
     c_bands:  1 eigenvalues not converged
     c_bands:  1 eigenvalues not converged
     c_bands:  2 eigenvalues not converged
     c_bands:  1 eigenvalues not converged
     c_bands:  2 eigenvalues not converged
     c_bands:  1 eigenvalues not converged
     c_bands:  1 eigenvalues not converged
     c_bands:  1 eigenvalues not converged
     c_bands:  1 eigenvalues not converged
     c_bands:  1 eigenvalues not converged
     c_bands:  1 eigenvalues not converged
     c_bands:  1 eigenvalues not converged
     c_bands:  1 eigenvalues not converged
     c_bands:  1 eigenvalues not converged
     ethr =  1.00E-06,  avg # of iterations = 18.9

     total cpu time spent up to now is     1694.3 secs

     total energy              =    -695.80106778 Ry
     Harris-Foulkes estimate   =    -712.76182363 Ry
     estimated scf accuracy    <       8.42819172 Ry

     iteration #  2     ecut=    40.00 Ry     beta= 0.60
     Davidson diagonalization with overlap
     ethr =  1.00E-02,  avg # of iterations =  5.1

     total cpu time spent up to now is     1774.5 secs

     total energy              =    -703.16927936 Ry
     Harris-Foulkes estimate   =    -715.59124910 Ry
     estimated scf accuracy    <      39.54327734 Ry

     iteration #  3     ecut=    40.00 Ry     beta= 0.60
     Davidson diagonalization with overlap
     ethr =  1.00E-02,  avg # of iterations =  3.4

     total cpu time spent up to now is     1827.0 secs

     total energy              =    -703.86159091 Ry
     Harris-Foulkes estimate   =    -705.60320067 Ry
     estimated scf accuracy    <       8.99005005 Ry

     iteration #  4     ecut=    40.00 Ry     beta= 0.60
     Davidson diagonalization with overlap
     ethr =  1.00E-02,  avg # of iterations =  1.9

     total cpu time spent up to now is     1865.5 secs

     total energy              =    -703.69553212 Ry
     Harris-Foulkes estimate   =    -704.30017570 Ry
     estimated scf accuracy    <       6.52312202 Ry

     iteration #  5     ecut=    40.00 Ry     beta= 0.60
     Davidson diagonalization with overlap
     ethr =  8.70E-03,  avg # of iterations =  1.1

     total cpu time spent up to now is     1902.0 secs

     total energy              =    -703.34955588 Ry
     Harris-Foulkes estimate   =    -703.91053966 Ry
     estimated scf accuracy    <       3.62617838 Ry

     iteration #  6     ecut=    40.00 Ry     beta= 0.60
     Davidson diagonalization with overlap
     ethr =  4.83E-03,  avg # of iterations =  3.9

     total cpu time spent up to now is     1965.3 secs

     total energy              =    -703.67658538 Ry
     Harris-Foulkes estimate   =    -703.61876917 Ry
     estimated scf accuracy    <       0.53123888 Ry

     iteration #  7     ecut=    40.00 Ry     beta= 0.60
     Davidson diagonalization with overlap
     ethr =  7.08E-04,  avg # of iterations =  5.6

     total cpu time spent up to now is     2031.0 secs

     total energy              =    -703.76918733 Ry
     Harris-Foulkes estimate   =    -703.77433803 Ry
     estimated scf accuracy    <       0.56901518 Ry

     iteration #  8     ecut=    40.00 Ry     beta= 0.60
     Davidson diagonalization with overlap
     ethr =  7.08E-04,  avg # of iterations =  1.0

     total cpu time spent up to now is     2083.1 secs

     total energy              =    -703.76905008 Ry
     Harris-Foulkes estimate   =    -703.77122176 Ry
     estimated scf accuracy    <       0.56261014 Ry

     iteration #  9     ecut=    40.00 Ry     beta= 0.60
     Davidson diagonalization with overlap
     ethr =  7.08E-04,  avg # of iterations =  1.0

     total cpu time spent up to now is     2119.3 secs

     total energy              =    -703.72468575 Ry
     Harris-Foulkes estimate   =    -703.77016003 Ry
     estimated scf accuracy    <       0.61903486 Ry

     iteration # 10     ecut=    40.00 Ry     beta= 0.60
     Davidson diagonalization with overlap
     ethr =  7.08E-04,  avg # of iterations =  1.0

     total cpu time spent up to now is     2155.4 secs

     total energy              =    -703.61263492 Ry
     Harris-Foulkes estimate   =    -703.72748688 Ry
     estimated scf accuracy    <       0.42926042 Ry

     iteration # 11     ecut=    40.00 Ry     beta= 0.60
     Davidson diagonalization with overlap
     ethr =  5.72E-04,  avg # of iterations =  3.9

     total cpu time spent up to now is     2203.6 secs

     total energy              =    -703.66750386 Ry
     Harris-Foulkes estimate   =    -703.67127015 Ry
     estimated scf accuracy    <       0.00869186 Ry

     iteration # 12     ecut=    40.00 Ry     beta= 0.60
     Davidson diagonalization with overlap
     ethr =  1.16E-05,  avg # of iterations =  6.2

     total cpu time spent up to now is     2285.7 secs

     total energy              =    -703.67541348 Ry
     Harris-Foulkes estimate   =    -703.67613133 Ry
     estimated scf accuracy    <       0.00237728 Ry

     iteration # 13     ecut=    40.00 Ry     beta= 0.60
     Davidson diagonalization with overlap
     ethr =  3.17E-06,  avg # of iterations =  4.7

     total cpu time spent up to now is     2342.7 secs

     total energy              =    -703.67612425 Ry
     Harris-Foulkes estimate   =    -703.67637919 Ry
     estimated scf accuracy    <       0.00634712 Ry

     iteration # 14     ecut=    40.00 Ry     beta= 0.60
     Davidson diagonalization with overlap
     ethr =  3.17E-06,  avg # of iterations =  1.1

     total cpu time spent up to now is     2379.1 secs

     total energy              =    -703.67585199 Ry
     Harris-Foulkes estimate   =    -703.67620604 Ry
     estimated scf accuracy    <       0.00490848 Ry

     iteration # 15     ecut=    40.00 Ry     beta= 0.60
     Davidson diagonalization with overlap
     ethr =  3.17E-06,  avg # of iterations =  1.0

     total cpu time spent up to now is     2415.2 secs

     total energy              =    -703.67581163 Ry
     Harris-Foulkes estimate   =    -703.67593172 Ry
     estimated scf accuracy    <       0.00213041 Ry

     iteration # 16     ecut=    40.00 Ry     beta= 0.60
     Davidson diagonalization with overlap
     ethr =  2.84E-06,  avg # of iterations =  1.2

     total cpu time spent up to now is     2451.8 secs

     total energy              =    -703.67585095 Ry
     Harris-Foulkes estimate   =    -703.67584898 Ry
     estimated scf accuracy    <       0.00111138 Ry

     iteration # 17     ecut=    40.00 Ry     beta= 0.60
     Davidson diagonalization with overlap
     ethr =  1.48E-06,  avg # of iterations =  1.2

     total cpu time spent up to now is     2488.4 secs

     total energy              =    -703.67580177 Ry
     Harris-Foulkes estimate   =    -703.67586618 Ry
     estimated scf accuracy    <       0.00106591 Ry

     iteration # 18     ecut=    40.00 Ry     beta= 0.60
     Davidson diagonalization with overlap
     ethr =  1.42E-06,  avg # of iterations =  1.2

     total cpu time spent up to now is     2525.5 secs

     total energy              =    -703.67572933 Ry
     Harris-Foulkes estimate   =    -703.67581997 Ry
     estimated scf accuracy    <       0.00051651 Ry

     iteration # 19     ecut=    40.00 Ry     beta= 0.60
     Davidson diagonalization with overlap
     ethr =  6.89E-07,  avg # of iterations =  4.1

     total cpu time spent up to now is     2578.2 secs

     total energy              =    -703.67582390 Ry
     Harris-Foulkes estimate   =    -703.67583196 Ry
     estimated scf accuracy    <       0.00008453 Ry

     iteration # 20     ecut=    40.00 Ry     beta= 0.60
     Davidson diagonalization with overlap
     ethr =  1.13E-07,  avg # of iterations =  1.4

     total cpu time spent up to now is     2628.5 secs

     total energy              =    -703.67582337 Ry
     Harris-Foulkes estimate   =    -703.67582669 Ry
     estimated scf accuracy    <       0.00003299 Ry

     iteration # 21     ecut=    40.00 Ry     beta= 0.60
     Davidson diagonalization with overlap
     ethr =  4.40E-08,  avg # of iterations =  3.1

     total cpu time spent up to now is     2697.9 secs

     total energy              =    -703.67582422 Ry
     Harris-Foulkes estimate   =    -703.67582560 Ry
     estimated scf accuracy    <       0.00000458 Ry

     iteration # 22     ecut=    40.00 Ry     beta= 0.60
     Davidson diagonalization with overlap
     ethr =  6.11E-09,  avg # of iterations =  4.6

     total cpu time spent up to now is     2758.1 secs

     total energy              =    -703.67582529 Ry
     Harris-Foulkes estimate   =    -703.67582677 Ry
     estimated scf accuracy    <       0.00001143 Ry

     iteration # 23     ecut=    40.00 Ry     beta= 0.60
     Davidson diagonalization with overlap
     ethr =  6.11E-09,  avg # of iterations =  1.9

     total cpu time spent up to now is     2796.7 secs

     total energy              =    -703.67582554 Ry
     Harris-Foulkes estimate   =    -703.67582572 Ry
     estimated scf accuracy    <       0.00000155 Ry

     iteration # 24     ecut=    40.00 Ry     beta= 0.60
     Davidson diagonalization with overlap
     ethr =  2.07E-09,  avg # of iterations =  4.0

     total cpu time spent up to now is     2864.1 secs

     total energy              =    -703.67582587 Ry
     Harris-Foulkes estimate   =    -703.67582589 Ry
     estimated scf accuracy    <       0.00000021 Ry

     iteration # 25     ecut=    40.00 Ry     beta= 0.60
     Davidson diagonalization with overlap
     ethr =  2.81E-10,  avg # of iterations =  2.4

     total cpu time spent up to now is     2904.1 secs

     total energy              =    -703.67582587 Ry
     Harris-Foulkes estimate   =    -703.67582588 Ry
     estimated scf accuracy    <       0.00000014 Ry

     iteration # 26     ecut=    40.00 Ry     beta= 0.60
     Davidson diagonalization with overlap
     ethr =  1.80E-10,  avg # of iterations =  1.0

     total cpu time spent up to now is     2941.0 secs

     total energy              =    -703.67582587 Ry
     Harris-Foulkes estimate   =    -703.67582587 Ry
     estimated scf accuracy    <       0.00000003 Ry

     iteration # 27     ecut=    40.00 Ry     beta= 0.60
     Davidson diagonalization with overlap
     ethr =  4.65E-11,  avg # of iterations =  4.0

     total cpu time spent up to now is     2991.4 secs

     total energy              =    -703.67582587 Ry
     Harris-Foulkes estimate   =    -703.67582587 Ry
     estimated scf accuracy    <          2.7E-09 Ry

     iteration # 28     ecut=    40.00 Ry     beta= 0.60
     Davidson diagonalization with overlap
     ethr =  3.60E-12,  avg # of iterations =  3.8

     total cpu time spent up to now is     3042.3 secs

     total energy              =    -703.67582587 Ry
     Harris-Foulkes estimate   =    -703.67582587 Ry
     estimated scf accuracy    <          1.0E-09 Ry

     iteration # 29     ecut=    40.00 Ry     beta= 0.60
     Davidson diagonalization with overlap
     ethr =  1.38E-12,  avg # of iterations =  3.4

     total cpu time spent up to now is     3088.2 secs

     total energy              =    -703.67582587 Ry
     Harris-Foulkes estimate   =    -703.67582587 Ry
     estimated scf accuracy    <          5.2E-10 Ry

     iteration # 30     ecut=    40.00 Ry     beta= 0.60
     Davidson diagonalization with overlap
     ethr =  6.89E-13,  avg # of iterations =  3.9

     total cpu time spent up to now is     3137.6 secs

     total energy              =    -703.67582587 Ry
     Harris-Foulkes estimate   =    -703.67582587 Ry
     estimated scf accuracy    <          4.3E-10 Ry

     iteration # 31     ecut=    40.00 Ry     beta= 0.60
     Davidson diagonalization with overlap
     ethr =  5.75E-13,  avg # of iterations =  1.0

     total cpu time spent up to now is     3174.1 secs

     End of self-consistent calculation

     Number of k-points >= 100: set verbosity='high' to print the bands.

     the Fermi energy is    14.9345 ev

!    total energy              =    -703.67582587 Ry
     Harris-Foulkes estimate   =    -703.67582587 Ry
     estimated scf accuracy    <          4.6E-11 Ry

     The total energy is the sum of the following terms:

     one-electron contribution =    -187.56292892 Ry
     hartree contribution      =     122.55552425 Ry
     xc contribution           =     -98.57980909 Ry
     ewald contribution        =    -540.08229831 Ry
     smearing contrib. (-TS)   =      -0.00631380 Ry

     convergence has been achieved in  31 iterations

     Forces acting on atoms (cartesian axes, Ry/au):

     atom    1 type  2   force =    -0.00012341   -0.00063024    0.00000000
     atom    2 type  2   force =    -0.00178279    0.00102605    0.00000000
     atom    3 type  2   force =     0.00048505    0.00042452    0.00000000
     atom    4 type  1   force =     0.00118297    0.00099438    0.00000000
     atom    5 type  1   force =     0.00050866   -0.00029188    0.00000000
     atom    6 type  1   force =    -0.00027048   -0.00152282    0.00000000

     Total force =     0.003191     Total SCF correction =     0.000007


     Computing stress (Cartesian axis) and pressure

          total   stress  (Ry/bohr**3)                   (kbar)     P=  -57.27
  -0.00044181   0.00000461   0.00000000        -64.99      0.68      0.00
   0.00000461  -0.00043649   0.00000000          0.68    -64.21      0.00
   0.00000000   0.00000000  -0.00028973          0.00      0.00    -42.62


     number of scf cycles    =   2
     number of bfgs steps    =   1

     enthalpy old            =    -703.6435189909 Ry
     enthalpy new            =    -703.6758258712 Ry

     CASE: enthalpy_new < enthalpy_old

     new trust radius        =       0.1077246856 bohr
     new conv_thr            =            1.0E-10 Ry

     new unit-cell volume =    719.21258 a.u.^3 (   106.57631 Ang^3 )
     density =      6.58007 g/cm^3

CELL_PARAMETERS (alat=  1.88972599)
   4.377091606  -2.527114738   0.000000000
  -4.378539381  -2.529622359   0.000000000
   0.000000000   0.000000000  -4.814298053

ATOMIC_POSITIONS (angstrom)
Ti      -0.001677829  -5.056507724  -4.814298053
Ti      -0.002108950  -1.684656084  -2.407149026
Ti      -1.460306429  -2.528694943  -4.814298053
Nb      -1.460138713  -4.213814790  -2.407149026
Nb       1.460686050  -2.529180702  -4.814298053
Nb       1.457759149  -4.214096669  -2.407149026


     NEW-OLD atomic charge density approx. for the potential

     Check: negative/imaginary core charge=   -0.000001    0.000000
     extrapolated charge   71.14574, renormalised to   75.00000

     total cpu time spent up to now is     3192.9 secs

     Self-consistent Calculation

     iteration #  1     ecut=    40.00 Ry     beta= 0.60
     Davidson diagonalization with overlap
     c_bands:  1 eigenvalues not converged
     c_bands:  1 eigenvalues not converged
     c_bands:  1 eigenvalues not converged
     c_bands:  2 eigenvalues not converged
     c_bands:  1 eigenvalues not converged
     c_bands:  1 eigenvalues not converged
     c_bands:  1 eigenvalues not converged
     c_bands:  2 eigenvalues not converged
     c_bands:  2 eigenvalues not converged
     c_bands:  1 eigenvalues not converged
     c_bands:  1 eigenvalues not converged
     c_bands:  1 eigenvalues not converged
     c_bands:  1 eigenvalues not converged
     c_bands:  2 eigenvalues not converged
     c_bands:  1 eigenvalues not converged
     c_bands:  2 eigenvalues not converged
     c_bands:  2 eigenvalues not converged
     c_bands:  1 eigenvalues not converged
     c_bands:  1 eigenvalues not converged
     c_bands:  1 eigenvalues not converged
     c_bands:  1 eigenvalues not converged
     c_bands:  2 eigenvalues not converged
     c_bands:  1 eigenvalues not converged
     c_bands:  1 eigenvalues not converged
     c_bands:  1 eigenvalues not converged
     c_bands:  1 eigenvalues not converged
     c_bands:  1 eigenvalues not converged
     c_bands:  1 eigenvalues not converged
     c_bands:  2 eigenvalues not converged
     c_bands:  2 eigenvalues not converged
     c_bands:  1 eigenvalues not converged
     c_bands:  1 eigenvalues not converged
     c_bands:  1 eigenvalues not converged
     c_bands:  1 eigenvalues not converged
     c_bands:  1 eigenvalues not converged
     c_bands:  1 eigenvalues not converged
     c_bands:  2 eigenvalues not converged
     c_bands:  2 eigenvalues not converged
     c_bands:  1 eigenvalues not converged
     c_bands:  1 eigenvalues not converged
     c_bands:  1 eigenvalues not converged
     c_bands:  1 eigenvalues not converged
     c_bands:  1 eigenvalues not converged
     c_bands:  1 eigenvalues not converged
     c_bands:  1 eigenvalues not converged
     c_bands:  1 eigenvalues not converged
     c_bands:  1 eigenvalues not converged
     c_bands:  1 eigenvalues not converged
     c_bands:  1 eigenvalues not converged
     c_bands:  1 eigenvalues not converged
     c_bands:  1 eigenvalues not converged
     c_bands:  1 eigenvalues not converged
     c_bands:  1 eigenvalues not converged
     c_bands:  1 eigenvalues not converged
     c_bands:  1 eigenvalues not converged
     c_bands:  1 eigenvalues not converged
     c_bands:  1 eigenvalues not converged
     c_bands:  1 eigenvalues not converged
     c_bands:  1 eigenvalues not converged
     c_bands:  1 eigenvalues not converged
     c_bands:  2 eigenvalues not converged
     c_bands:  2 eigenvalues not converged
     c_bands:  1 eigenvalues not converged
     c_bands:  1 eigenvalues not converged
     c_bands:  1 eigenvalues not converged
     c_bands:  1 eigenvalues not converged
     c_bands:  2 eigenvalues not converged
     c_bands:  1 eigenvalues not converged
     c_bands:  1 eigenvalues not converged
     c_bands:  1 eigenvalues not converged
     c_bands:  1 eigenvalues not converged
     c_bands:  1 eigenvalues not converged
     c_bands:  1 eigenvalues not converged
     c_bands:  1 eigenvalues not converged
     c_bands:  1 eigenvalues not converged
     c_bands:  1 eigenvalues not converged
     c_bands:  1 eigenvalues not converged
     c_bands:  1 eigenvalues not converged
     c_bands:  1 eigenvalues not converged
     c_bands:  1 eigenvalues not converged
     c_bands:  1 eigenvalues not converged
     c_bands:  1 eigenvalues not converged
     c_bands:  1 eigenvalues not converged
     c_bands:  1 eigenvalues not converged
     c_bands:  1 eigenvalues not converged
     c_bands:  2 eigenvalues not converged
     c_bands:  1 eigenvalues not converged
     c_bands:  2 eigenvalues not converged
     c_bands:  1 eigenvalues not converged
     c_bands:  2 eigenvalues not converged
     c_bands:  2 eigenvalues not converged
     c_bands:  1 eigenvalues not converged
     c_bands:  1 eigenvalues not converged
     c_bands:  1 eigenvalues not converged
     c_bands:  1 eigenvalues not converged
     c_bands:  1 eigenvalues not converged
     c_bands:  1 eigenvalues not converged
     c_bands:  1 eigenvalues not converged
     c_bands:  1 eigenvalues not converged
     c_bands:  1 eigenvalues not converged
     c_bands:  1 eigenvalues not converged
     c_bands:  1 eigenvalues not converged
     c_bands:  1 eigenvalues not converged
     c_bands:  1 eigenvalues not converged
     c_bands:  1 eigenvalues not converged
     c_bands:  1 eigenvalues not converged
     c_bands:  1 eigenvalues not converged
     c_bands:  1 eigenvalues not converged
     c_bands:  1 eigenvalues not converged
     c_bands:  1 eigenvalues not converged
     c_bands:  1 eigenvalues not converged
     c_bands:  1 eigenvalues not converged
     c_bands:  1 eigenvalues not converged
     c_bands:  1 eigenvalues not converged
     c_bands:  1 eigenvalues not converged
     c_bands:  1 eigenvalues not converged
     c_bands:  1 eigenvalues not converged
     c_bands:  2 eigenvalues not converged
     c_bands:  2 eigenvalues not converged
     c_bands:  2 eigenvalues not converged
     c_bands:  1 eigenvalues not converged
     c_bands:  1 eigenvalues not converged
     c_bands:  1 eigenvalues not converged
     c_bands:  1 eigenvalues not converged
     c_bands:  1 eigenvalues not converged
     c_bands:  1 eigenvalues not converged
     c_bands:  1 eigenvalues not converged
     c_bands:  1 eigenvalues not converged
     c_bands:  1 eigenvalues not converged
     c_bands:  1 eigenvalues not converged
     c_bands:  1 eigenvalues not converged
     c_bands:  1 eigenvalues not converged
     c_bands:  1 eigenvalues not converged
     c_bands:  1 eigenvalues not converged
     c_bands:  1 eigenvalues not converged
     c_bands:  1 eigenvalues not converged
     c_bands:  1 eigenvalues not converged
     c_bands:  1 eigenvalues not converged
     c_bands:  2 eigenvalues not converged
     c_bands:  2 eigenvalues not converged
     c_bands:  1 eigenvalues not converged
     c_bands:  1 eigenvalues not converged
     c_bands:  1 eigenvalues not converged
     c_bands:  1 eigenvalues not converged
     c_bands:  1 eigenvalues not converged
     c_bands:  1 eigenvalues not converged
     c_bands:  1 eigenvalues not converged
     c_bands:  1 eigenvalues not converged
     c_bands:  1 eigenvalues not converged
     c_bands:  1 eigenvalues not converged
     c_bands:  1 eigenvalues not converged
     c_bands:  1 eigenvalues not converged
     c_bands:  2 eigenvalues not converged
     c_bands:  1 eigenvalues not converged
     c_bands:  1 eigenvalues not converged
     c_bands:  1 eigenvalues not converged
     c_bands:  1 eigenvalues not converged
     c_bands:  2 eigenvalues not converged
     c_bands:  1 eigenvalues not converged
     c_bands:  1 eigenvalues not converged
     c_bands:  1 eigenvalues not converged
     c_bands:  1 eigenvalues not converged
     c_bands:  1 eigenvalues not converged
     c_bands:  1 eigenvalues not converged
     c_bands:  1 eigenvalues not converged
     c_bands:  1 eigenvalues not converged
     c_bands:  1 eigenvalues not converged
     c_bands:  1 eigenvalues not converged
     c_bands:  1 eigenvalues not converged
     c_bands:  1 eigenvalues not converged
     c_bands:  1 eigenvalues not converged
     c_bands:  1 eigenvalues not converged
     c_bands:  1 eigenvalues not converged
     c_bands:  2 eigenvalues not converged
     c_bands:  1 eigenvalues not converged
     c_bands:  1 eigenvalues not converged
     c_bands:  1 eigenvalues not converged
     c_bands:  1 eigenvalues not converged
     c_bands:  1 eigenvalues not converged
     c_bands:  1 eigenvalues not converged
     c_bands:  1 eigenvalues not converged
     c_bands:  1 eigenvalues not converged
     c_bands:  1 eigenvalues not converged
     c_bands:  1 eigenvalues not converged
     c_bands:  1 eigenvalues not converged
     ethr =  1.00E-06,  avg # of iterations = 17.8

     total cpu time spent up to now is     3360.9 secs

     total energy              =    -700.31178851 Ry
     Harris-Foulkes estimate   =    -710.36010637 Ry
     estimated scf accuracy    <       3.46877431 Ry

     iteration #  2     ecut=    40.00 Ry     beta= 0.60
     Davidson diagonalization with overlap
     ethr =  4.63E-03,  avg # of iterations =  5.2

     total cpu time spent up to now is     3444.3 secs

     total energy              =    -703.02059417 Ry
     Harris-Foulkes estimate   =    -709.32801237 Ry
     estimated scf accuracy    <      22.64753203 Ry

     iteration #  3     ecut=    40.00 Ry     beta= 0.60
     Davidson diagonalization with overlap
     ethr =  4.63E-03,  avg # of iterations =  4.4

     total cpu time spent up to now is     3502.9 secs

     total energy              =    -703.76623505 Ry
     Harris-Foulkes estimate   =    -704.43517955 Ry
     estimated scf accuracy    <       3.54925690 Ry

     iteration #  4     ecut=    40.00 Ry     beta= 0.60
     Davidson diagonalization with overlap
     ethr =  4.63E-03,  avg # of iterations =  1.3

     total cpu time spent up to now is     3543.4 secs

     total energy              =    -703.74454516 Ry
     Harris-Foulkes estimate   =    -703.86379219 Ry
     estimated scf accuracy    <       2.01389036 Ry

     iteration #  5     ecut=    40.00 Ry     beta= 0.60
     Davidson diagonalization with overlap
     ethr =  2.69E-03,  avg # of iterations =  1.3

     total cpu time spent up to now is     3583.3 secs

     total energy              =    -703.58430413 Ry
     Harris-Foulkes estimate   =    -703.78347357 Ry
     estimated scf accuracy    <       1.40939075 Ry

     iteration #  6     ecut=    40.00 Ry     beta= 0.60
     Davidson diagonalization with overlap
     ethr =  1.88E-03,  avg # of iterations =  3.2

     total cpu time spent up to now is     3625.5 secs

     total energy              =    -703.63561476 Ry
     Harris-Foulkes estimate   =    -703.64817369 Ry
     estimated scf accuracy    <       0.37657413 Ry

     iteration #  7     ecut=    40.00 Ry     beta= 0.60
     Davidson diagonalization with overlap
     ethr =  5.02E-04,  avg # of iterations =  5.0

     total cpu time spent up to now is     3692.5 secs

     total energy              =    -703.71746678 Ry
     Harris-Foulkes estimate   =    -703.69996433 Ry
     estimated scf accuracy    <       0.05886270 Ry

     iteration #  8     ecut=    40.00 Ry     beta= 0.60
     Davidson diagonalization with overlap
     ethr =  7.85E-05,  avg # of iterations =  4.1

     total cpu time spent up to now is     3743.8 secs

     total energy              =    -703.72093407 Ry
     Harris-Foulkes estimate   =    -703.73101052 Ry
     estimated scf accuracy    <       0.30711945 Ry

     iteration #  9     ecut=    40.00 Ry     beta= 0.60
     Davidson diagonalization with overlap
     ethr =  7.85E-05,  avg # of iterations =  1.0

     total cpu time spent up to now is     3779.8 secs

     total energy              =    -703.70208605 Ry
     Harris-Foulkes estimate   =    -703.72163631 Ry
     estimated scf accuracy    <       0.25657872 Ry

     iteration # 10     ecut=    40.00 Ry     beta= 0.60
     Davidson diagonalization with overlap
     ethr =  7.85E-05,  avg # of iterations =  1.0

     total cpu time spent up to now is     3815.7 secs

     total energy              =    -703.66296306 Ry
     Harris-Foulkes estimate   =    -703.70351298 Ry
     estimated scf accuracy    <       0.17887264 Ry

     iteration # 11     ecut=    40.00 Ry     beta= 0.60
     Davidson diagonalization with overlap
     ethr =  7.85E-05,  avg # of iterations =  4.5

     total cpu time spent up to now is     3874.1 secs

     total energy              =    -703.68242422 Ry
     Harris-Foulkes estimate   =    -703.68278878 Ry
     estimated scf accuracy    <       0.00232312 Ry

     iteration # 12     ecut=    40.00 Ry     beta= 0.60
     Davidson diagonalization with overlap
     c_bands:  1 eigenvalues not converged
     c_bands:  1 eigenvalues not converged
     c_bands:  1 eigenvalues not converged
     ethr =  3.10E-06,  avg # of iterations =  5.6

     total cpu time spent up to now is     3933.7 secs

     total energy              =    -703.68300357 Ry
     Harris-Foulkes estimate   =    -703.68291211 Ry
     estimated scf accuracy    <       0.00109626 Ry

     iteration # 13     ecut=    40.00 Ry     beta= 0.60
     Davidson diagonalization with overlap
     ethr =  1.46E-06,  avg # of iterations =  3.5

     total cpu time spent up to now is     3978.2 secs

     total energy              =    -703.68290331 Ry
     Harris-Foulkes estimate   =    -703.68314220 Ry
     estimated scf accuracy    <       0.00349701 Ry

     iteration # 14     ecut=    40.00 Ry     beta= 0.60
     Davidson diagonalization with overlap
     ethr =  1.46E-06,  avg # of iterations =  1.0

     total cpu time spent up to now is     4020.4 secs

     total energy              =    -703.68269828 Ry
     Harris-Foulkes estimate   =    -703.68295046 Ry
     estimated scf accuracy    <       0.00189179 Ry

     iteration # 15     ecut=    40.00 Ry     beta= 0.60
     Davidson diagonalization with overlap
     ethr =  1.46E-06,  avg # of iterations =  2.9

     total cpu time spent up to now is     4063.1 secs

     total energy              =    -703.68278544 Ry
     Harris-Foulkes estimate   =    -703.68279619 Ry
     estimated scf accuracy    <       0.00018748 Ry

     iteration # 16     ecut=    40.00 Ry     beta= 0.60
     Davidson diagonalization with overlap
     ethr =  2.50E-07,  avg # of iterations =  3.5

     total cpu time spent up to now is     4112.4 secs

     total energy              =    -703.68280135 Ry
     Harris-Foulkes estimate   =    -703.68280549 Ry
     estimated scf accuracy    <       0.00005253 Ry

     iteration # 17     ecut=    40.00 Ry     beta= 0.60
     Davidson diagonalization with overlap
     ethr =  7.00E-08,  avg # of iterations =  2.7

     total cpu time spent up to now is     4154.0 secs

     total energy              =    -703.68280287 Ry
     Harris-Foulkes estimate   =    -703.68280400 Ry
     estimated scf accuracy    <       0.00001933 Ry

     iteration # 18     ecut=    40.00 Ry     beta= 0.60
     Davidson diagonalization with overlap
     ethr =  2.58E-08,  avg # of iterations =  2.7

     total cpu time spent up to now is     4194.8 secs

     total energy              =    -703.68280263 Ry
     Harris-Foulkes estimate   =    -703.68280373 Ry
     estimated scf accuracy    <       0.00000906 Ry

     iteration # 19     ecut=    40.00 Ry     beta= 0.60
     Davidson diagonalization with overlap
     ethr =  1.21E-08,  avg # of iterations =  3.6

     total cpu time spent up to now is     4241.2 secs

     total energy              =    -703.68280324 Ry
     Harris-Foulkes estimate   =    -703.68280356 Ry
     estimated scf accuracy    <       0.00000202 Ry

     iteration # 20     ecut=    40.00 Ry     beta= 0.60
     Davidson diagonalization with overlap
     ethr =  2.69E-09,  avg # of iterations =  3.5

     total cpu time spent up to now is     4292.1 secs

     total energy              =    -703.68280349 Ry
     Harris-Foulkes estimate   =    -703.68280352 Ry
     estimated scf accuracy    <       0.00000016 Ry

     iteration # 21     ecut=    40.00 Ry     beta= 0.60
     Davidson diagonalization with overlap
     ethr =  2.12E-10,  avg # of iterations =  4.2

     total cpu time spent up to now is     4344.4 secs

     total energy              =    -703.68280352 Ry
     Harris-Foulkes estimate   =    -703.68280352 Ry
     estimated scf accuracy    <          2.8E-09 Ry

     iteration # 22     ecut=    40.00 Ry     beta= 0.60
     Davidson diagonalization with overlap
     ethr =  3.79E-12,  avg # of iterations =  4.8

     total cpu time spent up to now is     4409.9 secs

     total energy              =    -703.68280352 Ry
     Harris-Foulkes estimate   =    -703.68280352 Ry
     estimated scf accuracy    <          2.6E-09 Ry

     iteration # 23     ecut=    40.00 Ry     beta= 0.60
     Davidson diagonalization with overlap
     ethr =  3.50E-12,  avg # of iterations =  2.9

     total cpu time spent up to now is     4452.3 secs

     total energy              =    -703.68280352 Ry
     Harris-Foulkes estimate   =    -703.68280352 Ry
     estimated scf accuracy    <          8.3E-10 Ry

     iteration # 24     ecut=    40.00 Ry     beta= 0.60
     Davidson diagonalization with overlap
     ethr =  1.11E-12,  avg # of iterations =  2.8

     total cpu time spent up to now is     4494.5 secs

     total energy              =    -703.68280352 Ry
     Harris-Foulkes estimate   =    -703.68280352 Ry
     estimated scf accuracy    <          2.5E-10 Ry

     iteration # 25     ecut=    40.00 Ry     beta= 0.60
     Davidson diagonalization with overlap
     ethr =  3.36E-13,  avg # of iterations =  2.6

     total cpu time spent up to now is     4535.4 secs

     End of self-consistent calculation

     Number of k-points >= 100: set verbosity='high' to print the bands.

     the Fermi energy is    15.8630 ev

!    total energy              =    -703.68280352 Ry
     Harris-Foulkes estimate   =    -703.68280352 Ry
     estimated scf accuracy    <          8.0E-11 Ry

     The total energy is the sum of the following terms:

     one-electron contribution =    -173.80812233 Ry
     hartree contribution      =     118.55297876 Ry
     xc contribution           =     -98.86992675 Ry
     ewald contribution        =    -549.55222214 Ry
     smearing contrib. (-TS)   =      -0.00551106 Ry

     convergence has been achieved in  25 iterations

     Forces acting on atoms (cartesian axes, Ry/au):

     atom    1 type  2   force =    -0.00005287   -0.00250389    0.00000000
     atom    2 type  2   force =    -0.00287113    0.00166906    0.00000000
     atom    3 type  2   force =     0.00213972    0.00129569    0.00000000
     atom    4 type  1   force =     0.00319939    0.00220555    0.00000000
     atom    5 type  1   force =    -0.00210180    0.00121326    0.00000000
     atom    6 type  1   force =    -0.00031330   -0.00387967    0.00000000

     Total force =     0.007726     Total SCF correction =     0.000013


     Computing stress (Cartesian axis) and pressure

          total   stress  (Ry/bohr**3)                   (kbar)     P=   10.72
   0.00001711   0.00000514   0.00000000          2.52      0.76      0.00
   0.00000514   0.00002304   0.00000000          0.76      3.39      0.00
   0.00000000   0.00000000   0.00017854          0.00      0.00     26.26


     number of scf cycles    =   3
     number of bfgs steps    =   2

     enthalpy old            =    -703.6758258712 Ry
     enthalpy new            =    -703.6828035247 Ry

     CASE: enthalpy_new < enthalpy_old

     new trust radius        =       0.0221001111 bohr
     new conv_thr            =            1.0E-10 Ry

     new unit-cell volume =    723.76187 a.u.^3 (   107.25044 Ang^3 )
     density =      6.53871 g/cm^3

CELL_PARAMETERS (alat=  1.88972599)
   4.381387887  -2.529594966   0.000000000
  -4.383344703  -2.532984272   0.000000000
   0.000000000   0.000000000  -4.834134724

ATOMIC_POSITIONS (angstrom)
Ti      -0.002206553  -5.063390049  -4.834134724
Ti      -0.003438412  -1.685928976  -2.417067362
Ti      -1.461187890  -2.531226751  -4.834134724
Nb      -1.460762681  -4.217926255  -2.417067362
Nb       1.461046229  -2.531434054  -4.834134724
Nb       1.458726424  -4.220413395  -2.417067362


     NEW-OLD atomic charge density approx. for the potential

     Check: negative/imaginary core charge=   -0.000001    0.000000
     extrapolated charge   75.45251, renormalised to   75.00000

     total cpu time spent up to now is     4553.9 secs

     Self-consistent Calculation

     iteration #  1     ecut=    40.00 Ry     beta= 0.60
     Davidson diagonalization with overlap
     c_bands:  1 eigenvalues not converged
     c_bands:  1 eigenvalues not converged
     c_bands:  1 eigenvalues not converged
     c_bands:  2 eigenvalues not converged
     c_bands:  2 eigenvalues not converged
     c_bands:  2 eigenvalues not converged
     c_bands:  2 eigenvalues not converged
     ethr =  1.00E-06,  avg # of iterations =  6.4

     total cpu time spent up to now is     4640.2 secs

     total energy              =    -703.66510849 Ry
     Harris-Foulkes estimate   =    -702.93058359 Ry
     estimated scf accuracy    <       0.01573751 Ry

     iteration #  2     ecut=    40.00 Ry     beta= 0.60
     Davidson diagonalization with overlap
     c_bands:  1 eigenvalues not converged
     ethr =  2.10E-05,  avg # of iterations =  5.6

     total cpu time spent up to now is     4720.5 secs

     total energy              =    -703.65484993 Ry
     Harris-Foulkes estimate   =    -703.72207679 Ry
     estimated scf accuracy    <       0.46057505 Ry

     iteration #  3     ecut=    40.00 Ry     beta= 0.60
     Davidson diagonalization with overlap
     ethr =  2.10E-05,  avg # of iterations =  5.1

     total cpu time spent up to now is     4790.1 secs

     total energy              =    -703.68121363 Ry
     Harris-Foulkes estimate   =    -703.68719041 Ry
     estimated scf accuracy    <       0.01998307 Ry

     iteration #  4     ecut=    40.00 Ry     beta= 0.60
     Davidson diagonalization with overlap
     ethr =  2.10E-05,  avg # of iterations =  5.1

     total cpu time spent up to now is     4849.8 secs

     total energy              =    -703.68171534 Ry
     Harris-Foulkes estimate   =    -703.68702149 Ry
     estimated scf accuracy    <       0.04877865 Ry

     iteration #  5     ecut=    40.00 Ry     beta= 0.60
     Davidson diagonalization with overlap
     ethr =  2.10E-05,  avg # of iterations =  2.3

     total cpu time spent up to now is     4888.8 secs

     total energy              =    -703.68341932 Ry
     Harris-Foulkes estimate   =    -703.68372716 Ry
     estimated scf accuracy    <       0.00620318 Ry

     iteration #  6     ecut=    40.00 Ry     beta= 0.60
     Davidson diagonalization with overlap
     ethr =  8.27E-06,  avg # of iterations =  4.5

     total cpu time spent up to now is     4937.3 secs

     total energy              =    -703.68345843 Ry
     Harris-Foulkes estimate   =    -703.68385832 Ry
     estimated scf accuracy    <       0.00405175 Ry

     iteration #  7     ecut=    40.00 Ry     beta= 0.60
     Davidson diagonalization with overlap
     ethr =  5.40E-06,  avg # of iterations =  1.8

     total cpu time spent up to now is     4981.5 secs

     total energy              =    -703.68321698 Ry
     Harris-Foulkes estimate   =    -703.68352574 Ry
     estimated scf accuracy    <       0.00241768 Ry

     iteration #  8     ecut=    40.00 Ry     beta= 0.60
     Davidson diagonalization with overlap
     ethr =  3.22E-06,  avg # of iterations =  2.4

     total cpu time spent up to now is     5021.8 secs

     total energy              =    -703.68324441 Ry
     Harris-Foulkes estimate   =    -703.68330796 Ry
     estimated scf accuracy    <       0.00081399 Ry

     iteration #  9     ecut=    40.00 Ry     beta= 0.60
     Davidson diagonalization with overlap
     ethr =  1.09E-06,  avg # of iterations =  2.8

     total cpu time spent up to now is     5063.6 secs

     total energy              =    -703.68321219 Ry
     Harris-Foulkes estimate   =    -703.68327174 Ry
     estimated scf accuracy    <       0.00043491 Ry

     iteration # 10     ecut=    40.00 Ry     beta= 0.60
     Davidson diagonalization with overlap
     ethr =  5.80E-07,  avg # of iterations =  3.7

     total cpu time spent up to now is     5110.5 secs

     total energy              =    -703.68322985 Ry
     Harris-Foulkes estimate   =    -703.68325195 Ry
     estimated scf accuracy    <       0.00005202 Ry

     iteration # 11     ecut=    40.00 Ry     beta= 0.60
     Davidson diagonalization with overlap
     ethr =  6.94E-08,  avg # of iterations =  4.8

     total cpu time spent up to now is     5174.3 secs

     total energy              =    -703.68324757 Ry
     Harris-Foulkes estimate   =    -703.68325184 Ry
     estimated scf accuracy    <       0.00003822 Ry

     iteration # 12     ecut=    40.00 Ry     beta= 0.60
     Davidson diagonalization with overlap
     ethr =  5.10E-08,  avg # of iterations =  1.0

     total cpu time spent up to now is     5211.8 secs

     total energy              =    -703.68324614 Ry
     Harris-Foulkes estimate   =    -703.68324859 Ry
     estimated scf accuracy    <       0.00001013 Ry

     iteration # 13     ecut=    40.00 Ry     beta= 0.60
     Davidson diagonalization with overlap
     ethr =  1.35E-08,  avg # of iterations =  3.9

     total cpu time spent up to now is     5262.9 secs

     total energy              =    -703.68324860 Ry
     Harris-Foulkes estimate   =    -703.68324916 Ry
     estimated scf accuracy    <       0.00000770 Ry

     iteration # 14     ecut=    40.00 Ry     beta= 0.60
     Davidson diagonalization with overlap
     ethr =  1.03E-08,  avg # of iterations =  1.0

     total cpu time spent up to now is     5299.0 secs

     total energy              =    -703.68324825 Ry
     Harris-Foulkes estimate   =    -703.68324873 Ry
     estimated scf accuracy    <       0.00000357 Ry

     iteration # 15     ecut=    40.00 Ry     beta= 0.60
     Davidson diagonalization with overlap
     ethr =  4.76E-09,  avg # of iterations =  2.9

     total cpu time spent up to now is     5341.0 secs

     total energy              =    -703.68324849 Ry
     Harris-Foulkes estimate   =    -703.68324849 Ry
     estimated scf accuracy    <       0.00000012 Ry

     iteration # 16     ecut=    40.00 Ry     beta= 0.60
     Davidson diagonalization with overlap
     ethr =  1.64E-10,  avg # of iterations =  4.7

     total cpu time spent up to now is     5398.6 secs

     total energy              =    -703.68324853 Ry
     Harris-Foulkes estimate   =    -703.68324854 Ry
     estimated scf accuracy    <       0.00000003 Ry

     iteration # 17     ecut=    40.00 Ry     beta= 0.60
     Davidson diagonalization with overlap
     ethr =  3.34E-11,  avg # of iterations =  2.5

     total cpu time spent up to now is     5440.3 secs

     total energy              =    -703.68324853 Ry
     Harris-Foulkes estimate   =    -703.68324854 Ry
     estimated scf accuracy    <       0.00000002 Ry

     iteration # 18     ecut=    40.00 Ry     beta= 0.60
     Davidson diagonalization with overlap
     ethr =  2.61E-11,  avg # of iterations =  3.9

     total cpu time spent up to now is     5490.4 secs

     total energy              =    -703.68324854 Ry
     Harris-Foulkes estimate   =    -703.68324854 Ry
     estimated scf accuracy    <          8.6E-09 Ry

     iteration # 19     ecut=    40.00 Ry     beta= 0.60
     Davidson diagonalization with overlap
     ethr =  1.15E-11,  avg # of iterations =  1.0

     total cpu time spent up to now is     5526.5 secs

     total energy              =    -703.68324853 Ry
     Harris-Foulkes estimate   =    -703.68324854 Ry
     estimated scf accuracy    <          6.7E-09 Ry

     iteration # 20     ecut=    40.00 Ry     beta= 0.60
     Davidson diagonalization with overlap
     ethr =  8.91E-12,  avg # of iterations =  1.6

     total cpu time spent up to now is     5564.1 secs

     total energy              =    -703.68324853 Ry
     Harris-Foulkes estimate   =    -703.68324854 Ry
     estimated scf accuracy    <          1.2E-09 Ry

     iteration # 21     ecut=    40.00 Ry     beta= 0.60
     Davidson diagonalization with overlap
     ethr =  1.66E-12,  avg # of iterations =  4.0

     total cpu time spent up to now is     5614.4 secs

     total energy              =    -703.68324854 Ry
     Harris-Foulkes estimate   =    -703.68324854 Ry
     estimated scf accuracy    <          1.8E-10 Ry

     iteration # 22     ecut=    40.00 Ry     beta= 0.60
     Davidson diagonalization with overlap
     ethr =  2.34E-13,  avg # of iterations =  3.5

     total cpu time spent up to now is     5664.8 secs

     End of self-consistent calculation

     Number of k-points >= 100: set verbosity='high' to print the bands.

     the Fermi energy is    15.7458 ev

!    total energy              =    -703.68324854 Ry
     Harris-Foulkes estimate   =    -703.68324854 Ry
     estimated scf accuracy    <          7.1E-11 Ry

     The total energy is the sum of the following terms:

     one-electron contribution =    -175.48143049 Ry
     hartree contribution      =     119.03680921 Ry
     xc contribution           =     -98.83417359 Ry
     ewald contribution        =    -548.39883726 Ry
     smearing contrib. (-TS)   =      -0.00561639 Ry

     convergence has been achieved in  22 iterations

     Forces acting on atoms (cartesian axes, Ry/au):

     atom    1 type  2   force =    -0.00012532   -0.00206558    0.00000000
     atom    2 type  2   force =    -0.00232694    0.00135330    0.00000000
     atom    3 type  2   force =     0.00172625    0.00114007    0.00000000
     atom    4 type  1   force =     0.00258736    0.00173097    0.00000000
     atom    5 type  1   force =    -0.00165204    0.00095271    0.00000000
     atom    6 type  1   force =    -0.00020932   -0.00311147    0.00000000

     Total force =     0.006234     Total SCF correction =     0.000013


     Computing stress (Cartesian axis) and pressure

          total   stress  (Ry/bohr**3)                   (kbar)     P=    1.45
  -0.00003869   0.00000397   0.00000000         -5.69      0.58      0.00
   0.00000397  -0.00003410   0.00000000          0.58     -5.02      0.00
   0.00000000   0.00000000   0.00010231          0.00      0.00     15.05


     number of scf cycles    =   4
     number of bfgs steps    =   3

     enthalpy old            =    -703.6828035247 Ry
     enthalpy new            =    -703.6832485351 Ry

     CASE: enthalpy_new < enthalpy_old

     new trust radius        =       0.0384616124 bohr
     new conv_thr            =            1.0E-10 Ry

     new unit-cell volume =    726.58672 a.u.^3 (   107.66904 Ang^3 )
     density =      6.51328 g/cm^3

CELL_PARAMETERS (alat=  1.88972599)
   4.372973949  -2.524737210   0.000000000
  -4.376277761  -2.530459581   0.000000000
   0.000000000   0.000000000  -4.868690321

ATOMIC_POSITIONS (angstrom)
Ti      -0.003689356  -5.058703892  -4.868690321
Ti      -0.006941594  -1.681692261  -2.434345160
Ti      -1.457014755  -2.526460368  -4.868690321
Nb      -1.455907499  -4.209862759  -2.434345160
Nb       1.455616435  -2.526098623  -4.868690321
Nb       1.454725893  -4.217971785  -2.434345160


     NEW-OLD atomic charge density approx. for the potential

     Check: negative/imaginary core charge=   -0.000001    0.000000
     extrapolated charge   75.27989, renormalised to   75.00000

     total cpu time spent up to now is     5683.5 secs

     Self-consistent Calculation

     iteration #  1     ecut=    40.00 Ry     beta= 0.60
     Davidson diagonalization with overlap
     c_bands:  1 eigenvalues not converged
     c_bands:  1 eigenvalues not converged
     c_bands:  1 eigenvalues not converged
     c_bands:  1 eigenvalues not converged
     c_bands:  1 eigenvalues not converged
     c_bands:  1 eigenvalues not converged
     c_bands:  1 eigenvalues not converged
     c_bands:  1 eigenvalues not converged
     ethr =  1.00E-06,  avg # of iterations =  5.9

     total cpu time spent up to now is     5778.4 secs

     total energy              =    -703.67754852 Ry
     Harris-Foulkes estimate   =    -703.21515454 Ry
     estimated scf accuracy    <       0.00524501 Ry

     iteration #  2     ecut=    40.00 Ry     beta= 0.60
     Davidson diagonalization with overlap
     c_bands:  1 eigenvalues not converged
     c_bands:  1 eigenvalues not converged
     c_bands:  1 eigenvalues not converged
     c_bands:  1 eigenvalues not converged
     ethr =  6.99E-06,  avg # of iterations =  5.6

     total cpu time spent up to now is     5861.4 secs

     total energy              =    -703.67620158 Ry
     Harris-Foulkes estimate   =    -703.69476134 Ry
     estimated scf accuracy    <       0.11806206 Ry

     iteration #  3     ecut=    40.00 Ry     beta= 0.60
     Davidson diagonalization with overlap
     ethr =  6.99E-06,  avg # of iterations =  5.0

     total cpu time spent up to now is     5929.8 secs

     total energy              =    -703.68314930 Ry
     Harris-Foulkes estimate   =    -703.68525883 Ry
     estimated scf accuracy    <       0.00667243 Ry

     iteration #  4     ecut=    40.00 Ry     beta= 0.60
     Davidson diagonalization with overlap
     ethr =  6.99E-06,  avg # of iterations =  4.4

     total cpu time spent up to now is     5981.4 secs

     total energy              =    -703.68339663 Ry
     Harris-Foulkes estimate   =    -703.68502524 Ry
     estimated scf accuracy    <       0.01593680 Ry

     iteration #  5     ecut=    40.00 Ry     beta= 0.60
     Davidson diagonalization with overlap
     ethr =  6.99E-06,  avg # of iterations =  1.8

     total cpu time spent up to now is     6020.3 secs

     total energy              =    -703.68389076 Ry
     Harris-Foulkes estimate   =    -703.68402007 Ry
     estimated scf accuracy    <       0.00245356 Ry

     iteration #  6     ecut=    40.00 Ry     beta= 0.60
     Davidson diagonalization with overlap
     ethr =  3.27E-06,  avg # of iterations =  3.7

     total cpu time spent up to now is     6064.0 secs

     total energy              =    -703.68376410 Ry
     Harris-Foulkes estimate   =    -703.68400764 Ry
     estimated scf accuracy    <       0.00155187 Ry

     iteration #  7     ecut=    40.00 Ry     beta= 0.60
     Davidson diagonalization with overlap
     ethr =  2.07E-06,  avg # of iterations =  2.7

     total cpu time spent up to now is     6104.5 secs

     total energy              =    -703.68374022 Ry
     Harris-Foulkes estimate   =    -703.68382623 Ry
     estimated scf accuracy    <       0.00058046 Ry

     iteration #  8     ecut=    40.00 Ry     beta= 0.60
     Davidson diagonalization with overlap
     ethr =  7.74E-07,  avg # of iterations =  3.2

     total cpu time spent up to now is     6149.2 secs

     total energy              =    -703.68376766 Ry
     Harris-Foulkes estimate   =    -703.68379115 Ry
     estimated scf accuracy    <       0.00010365 Ry

     iteration #  9     ecut=    40.00 Ry     beta= 0.60
     Davidson diagonalization with overlap
     ethr =  1.38E-07,  avg # of iterations =  4.2

     total cpu time spent up to now is     6202.4 secs

     total energy              =    -703.68378700 Ry
     Harris-Foulkes estimate   =    -703.68378796 Ry
     estimated scf accuracy    <       0.00002284 Ry

     iteration # 10     ecut=    40.00 Ry     beta= 0.60
     Davidson diagonalization with overlap
     ethr =  3.05E-08,  avg # of iterations =  1.6

     total cpu time spent up to now is     6240.1 secs

     total energy              =    -703.68378618 Ry
     Harris-Foulkes estimate   =    -703.68378782 Ry
     estimated scf accuracy    <       0.00001682 Ry

     iteration # 11     ecut=    40.00 Ry     beta= 0.60
     Davidson diagonalization with overlap
     ethr =  2.24E-08,  avg # of iterations =  1.5

     total cpu time spent up to now is     6277.4 secs

     total energy              =    -703.68378652 Ry
     Harris-Foulkes estimate   =    -703.68378680 Ry
     estimated scf accuracy    <       0.00000307 Ry

     iteration # 12     ecut=    40.00 Ry     beta= 0.60
     Davidson diagonalization with overlap
     ethr =  4.09E-09,  avg # of iterations =  3.8

     total cpu time spent up to now is     6325.2 secs

     total energy              =    -703.68378684 Ry
     Harris-Foulkes estimate   =    -703.68378685 Ry
     estimated scf accuracy    <       0.00000008 Ry

     iteration # 13     ecut=    40.00 Ry     beta= 0.60
     Davidson diagonalization with overlap
     ethr =  1.02E-10,  avg # of iterations =  4.8

     total cpu time spent up to now is     6386.4 secs

     total energy              =    -703.68378687 Ry
     Harris-Foulkes estimate   =    -703.68378688 Ry
     estimated scf accuracy    <       0.00000002 Ry

     iteration # 14     ecut=    40.00 Ry     beta= 0.60
     Davidson diagonalization with overlap
[...]
     ethr =  4.74E-09,  avg # of iterations =  1.0

     total cpu time spent up to now is    47582.8 secs

     total energy              =    -703.71155593 Ry
     Harris-Foulkes estimate   =    -703.71155598 Ry
     estimated scf accuracy    <       0.00000029 Ry

     iteration # 13     ecut=    40.00 Ry     beta= 0.60
     Davidson diagonalization with overlap
     ethr =  3.82E-10,  avg # of iterations =  4.3

     total cpu time spent up to now is    47638.8 secs

     total energy              =    -703.71155604 Ry
     Harris-Foulkes estimate   =    -703.71155607 Ry
     estimated scf accuracy    <       0.00000025 Ry

     iteration # 14     ecut=    40.00 Ry     beta= 0.60
     Davidson diagonalization with overlap
     ethr =  3.27E-10,  avg # of iterations =  1.0

     total cpu time spent up to now is    47674.8 secs

     total energy              =    -703.71155604 Ry
     Harris-Foulkes estimate   =    -703.71155605 Ry
     estimated scf accuracy    <       0.00000008 Ry

     iteration # 15     ecut=    40.00 Ry     beta= 0.60
     Davidson diagonalization with overlap
     ethr =  1.03E-10,  avg # of iterations =  3.1

     total cpu time spent up to now is    47718.6 secs

     total energy              =    -703.71155604 Ry
     Harris-Foulkes estimate   =    -703.71155604 Ry
     estimated scf accuracy    <          2.4E-09 Ry

     iteration # 16     ecut=    40.00 Ry     beta= 0.60
     Davidson diagonalization with overlap
     ethr =  3.25E-12,  avg # of iterations =  4.4

     total cpu time spent up to now is    47775.1 secs

     total energy              =    -703.71155605 Ry
     Harris-Foulkes estimate   =    -703.71155605 Ry
     estimated scf accuracy    <          5.1E-09 Ry

     iteration # 17     ecut=    40.00 Ry     beta= 0.60
     Davidson diagonalization with overlap
     ethr =  3.25E-12,  avg # of iterations =  3.1

     total cpu time spent up to now is    47816.8 secs

     total energy              =    -703.71155605 Ry
     Harris-Foulkes estimate   =    -703.71155605 Ry
     estimated scf accuracy    <          4.5E-10 Ry

     iteration # 18     ecut=    40.00 Ry     beta= 0.60
     Davidson diagonalization with overlap
     ethr =  5.98E-13,  avg # of iterations =  4.0

     total cpu time spent up to now is    47869.9 secs

     total energy              =    -703.71155605 Ry
     Harris-Foulkes estimate   =    -703.71155605 Ry
     estimated scf accuracy    <          3.1E-10 Ry

     iteration # 19     ecut=    40.00 Ry     beta= 0.60
     Davidson diagonalization with overlap
     ethr =  4.10E-13,  avg # of iterations =  1.1

     total cpu time spent up to now is    47906.1 secs

     End of self-consistent calculation

     Number of k-points >= 100: set verbosity='high' to print the bands.

     the Fermi energy is    15.8079 ev

!    total energy              =    -703.71155605 Ry
     Harris-Foulkes estimate   =    -703.71155605 Ry
     estimated scf accuracy    <          2.0E-11 Ry

     The total energy is the sum of the following terms:

     one-electron contribution =    -173.25411031 Ry
     hartree contribution      =     118.64475839 Ry
     xc contribution           =     -98.92644848 Ry
     ewald contribution        =    -550.17631689 Ry
     smearing contrib. (-TS)   =       0.00056124 Ry

     convergence has been achieved in  19 iterations

     Forces acting on atoms (cartesian axes, Ry/au):

     atom    1 type  2   force =    -0.00863483    0.01074163    0.00000000
     atom    2 type  2   force =     0.00701606    0.00222869    0.00000000
     atom    3 type  2   force =    -0.01277226   -0.00934811    0.00000000
     atom    4 type  1   force =     0.00067940   -0.00106910    0.00000000
     atom    5 type  1   force =     0.00928700   -0.01476165    0.00000000
     atom    6 type  1   force =     0.00442462    0.01220855    0.00000000

     Total force =     0.031129     Total SCF correction =     0.000007


     Computing stress (Cartesian axis) and pressure

          total   stress  (Ry/bohr**3)                   (kbar)     P=    6.90
  -0.00001392  -0.00002029   0.00000000         -2.05     -2.99      0.00
  -0.00002029   0.00004737   0.00000000         -2.99      6.97      0.00
   0.00000000   0.00000000   0.00010724          0.00      0.00     15.78


     number of scf cycles    =  49
     number of bfgs steps    =  48

     enthalpy old            =    -703.7112844166 Ry
     enthalpy new            =    -703.7115560457 Ry

     CASE: enthalpy_new < enthalpy_old


     WARNING: info=  2 for Hessian

     WARNING: bfgs curvature condition failed, Theta= 0.791
     new trust radius        =       0.1161528169 bohr
     new conv_thr            =            1.0E-10 Ry

     new unit-cell volume =    711.21601 a.u.^3 (   105.39134 Ang^3 )
     density =      6.65405 g/cm^3

CELL_PARAMETERS (alat=  1.88972599)
   4.646941361  -2.857830259   0.000000000
  -4.284279963  -2.268374083   0.000000000
   0.000000000   0.000000000  -4.625522721

ATOMIC_POSITIONS (angstrom)
Ti       0.231137810  -5.214230928  -4.625522721
Ti       0.221865355  -1.639067725  -2.312761360
Ti      -1.420353907  -2.532658934  -4.625522721
Nb      -0.912992813  -4.180705401  -2.312761360
Nb       1.348684411  -2.615935366  -4.625522721
Nb       1.982309385  -4.322221870  -2.312761360


     NEW-OLD atomic charge density approx. for the potential
     extrapolated charge   74.78374, renormalised to   75.00000

     total cpu time spent up to now is    47925.2 secs

     Self-consistent Calculation

     iteration #  1     ecut=    40.00 Ry     beta= 0.60
     Davidson diagonalization with overlap
     c_bands:  1 eigenvalues not converged
     c_bands:  2 eigenvalues not converged
     c_bands:  2 eigenvalues not converged
     c_bands:  2 eigenvalues not converged
     c_bands:  1 eigenvalues not converged
     c_bands:  1 eigenvalues not converged
     c_bands:  2 eigenvalues not converged
     c_bands:  1 eigenvalues not converged
     c_bands:  1 eigenvalues not converged
     c_bands:  2 eigenvalues not converged
     c_bands:  1 eigenvalues not converged
     c_bands:  2 eigenvalues not converged
     c_bands:  1 eigenvalues not converged
     c_bands:  1 eigenvalues not converged
     c_bands:  1 eigenvalues not converged
     c_bands:  1 eigenvalues not converged
     c_bands:  1 eigenvalues not converged
     c_bands:  2 eigenvalues not converged
     c_bands:  1 eigenvalues not converged
     c_bands:  1 eigenvalues not converged
     c_bands:  2 eigenvalues not converged
     c_bands:  1 eigenvalues not converged
     c_bands:  1 eigenvalues not converged
     c_bands:  1 eigenvalues not converged
     c_bands:  1 eigenvalues not converged
     c_bands:  1 eigenvalues not converged
     c_bands:  1 eigenvalues not converged
     c_bands:  1 eigenvalues not converged
     c_bands:  1 eigenvalues not converged
     c_bands:  1 eigenvalues not converged
     c_bands:  1 eigenvalues not converged
     c_bands:  1 eigenvalues not converged
     c_bands:  1 eigenvalues not converged
     c_bands:  1 eigenvalues not converged
     c_bands:  1 eigenvalues not converged
     c_bands:  1 eigenvalues not converged
     c_bands:  1 eigenvalues not converged
     c_bands:  1 eigenvalues not converged
     c_bands:  1 eigenvalues not converged
     ethr =  1.00E-06,  avg # of iterations = 11.9

     total cpu time spent up to now is    48067.4 secs

     total energy              =    -703.68519098 Ry
     Harris-Foulkes estimate   =    -704.07445206 Ry
     estimated scf accuracy    <       0.03632320 Ry

     iteration #  2     ecut=    40.00 Ry     beta= 0.60
     Davidson diagonalization with overlap
     ethr =  4.84E-05,  avg # of iterations =  5.2

     total cpu time spent up to now is    48144.0 secs

     total energy              =    -703.64986237 Ry
     Harris-Foulkes estimate   =    -703.79623881 Ry
     estimated scf accuracy    <       0.83105601 Ry

     iteration #  3     ecut=    40.00 Ry     beta= 0.60
     Davidson diagonalization with overlap
     ethr =  4.84E-05,  avg # of iterations =  5.2

     total cpu time spent up to now is    48216.0 secs

     total energy              =    -703.71025062 Ry
     Harris-Foulkes estimate   =    -703.71349449 Ry
     estimated scf accuracy    <       0.01030359 Ry

     iteration #  4     ecut=    40.00 Ry     beta= 0.60
     Davidson diagonalization with overlap
     ethr =  1.37E-05,  avg # of iterations =  5.5

     total cpu time spent up to now is    48274.6 secs

     total energy              =    -703.71034975 Ry
     Harris-Foulkes estimate   =    -703.71397082 Ry
     estimated scf accuracy    <       0.02489343 Ry

     iteration #  5     ecut=    40.00 Ry     beta= 0.60
     Davidson diagonalization with overlap
     ethr =  1.37E-05,  avg # of iterations =  2.5

     total cpu time spent up to now is    48314.4 secs

     total energy              =    -703.71137311 Ry
     Harris-Foulkes estimate   =    -703.71173623 Ry
     estimated scf accuracy    <       0.00222904 Ry

     iteration #  6     ecut=    40.00 Ry     beta= 0.60
     Davidson diagonalization with overlap
     ethr =  2.97E-06,  avg # of iterations =  5.2

     total cpu time spent up to now is    48378.7 secs

     total energy              =    -703.71173235 Ry
     Harris-Foulkes estimate   =    -703.71219927 Ry
     estimated scf accuracy    <       0.00288594 Ry

     iteration #  7     ecut=    40.00 Ry     beta= 0.60
     Davidson diagonalization with overlap
     ethr =  2.97E-06,  avg # of iterations =  3.2

     total cpu time spent up to now is    48420.9 secs

     total energy              =    -703.71186190 Ry
     Harris-Foulkes estimate   =    -703.71209409 Ry
     estimated scf accuracy    <       0.00185633 Ry

     iteration #  8     ecut=    40.00 Ry     beta= 0.60
     Davidson diagonalization with overlap
     ethr =  2.48E-06,  avg # of iterations =  1.7

     total cpu time spent up to now is    48458.8 secs

     total energy              =    -703.71194181 Ry
     Harris-Foulkes estimate   =    -703.71200597 Ry
     estimated scf accuracy    <       0.00083858 Ry

     iteration #  9     ecut=    40.00 Ry     beta= 0.60
     Davidson diagonalization with overlap
     ethr =  1.12E-06,  avg # of iterations =  1.5

     total cpu time spent up to now is    48496.5 secs

     total energy              =    -703.71191793 Ry
     Harris-Foulkes estimate   =    -703.71196768 Ry
     estimated scf accuracy    <       0.00034976 Ry

     iteration # 10     ecut=    40.00 Ry     beta= 0.60
     Davidson diagonalization with overlap
     ethr =  4.66E-07,  avg # of iterations =  3.6

     total cpu time spent up to now is    48544.8 secs

     total energy              =    -703.71195620 Ry
     Harris-Foulkes estimate   =    -703.71195801 Ry
     estimated scf accuracy    <       0.00000691 Ry

     iteration # 11     ecut=    40.00 Ry     beta= 0.60
     Davidson diagonalization with overlap
     ethr =  9.21E-09,  avg # of iterations =  5.0

     total cpu time spent up to now is    48608.3 secs

     total energy              =    -703.71195743 Ry
     Harris-Foulkes estimate   =    -703.71196258 Ry
     estimated scf accuracy    <       0.00002900 Ry

     iteration # 12     ecut=    40.00 Ry     beta= 0.60
     Davidson diagonalization with overlap
     ethr =  9.21E-09,  avg # of iterations =  3.9

     total cpu time spent up to now is    48662.1 secs

     total energy              =    -703.71195977 Ry
     Harris-Foulkes estimate   =    -703.71196001 Ry
     estimated scf accuracy    <       0.00000135 Ry

     iteration # 13     ecut=    40.00 Ry     beta= 0.60
     Davidson diagonalization with overlap
     ethr =  1.80E-09,  avg # of iterations =  2.4

     total cpu time spent up to now is    48706.3 secs

     total energy              =    -703.71195993 Ry
     Harris-Foulkes estimate   =    -703.71195997 Ry
     estimated scf accuracy    <       0.00000022 Ry

     iteration # 14     ecut=    40.00 Ry     beta= 0.60
     Davidson diagonalization with overlap
     ethr =  2.94E-10,  avg # of iterations =  3.6

     total cpu time spent up to now is    48754.9 secs

     total energy              =    -703.71195996 Ry
     Harris-Foulkes estimate   =    -703.71195996 Ry
     estimated scf accuracy    <       0.00000004 Ry

     iteration # 15     ecut=    40.00 Ry     beta= 0.60
     Davidson diagonalization with overlap
     ethr =  5.11E-11,  avg # of iterations =  2.6

     total cpu time spent up to now is    48798.2 secs

     total energy              =    -703.71195996 Ry
     Harris-Foulkes estimate   =    -703.71195996 Ry
     estimated scf accuracy    <          9.0E-09 Ry

     iteration # 16     ecut=    40.00 Ry     beta= 0.60
     Davidson diagonalization with overlap
     ethr =  1.20E-11,  avg # of iterations =  4.0

     total cpu time spent up to now is    48852.1 secs

     total energy              =    -703.71195996 Ry
     Harris-Foulkes estimate   =    -703.71195996 Ry
     estimated scf accuracy    <          1.0E-08 Ry

     iteration # 17     ecut=    40.00 Ry     beta= 0.60
     Davidson diagonalization with overlap
     ethr =  1.20E-11,  avg # of iterations =  1.0

     total cpu time spent up to now is    48888.6 secs

     total energy              =    -703.71195996 Ry
     Harris-Foulkes estimate   =    -703.71195996 Ry
     estimated scf accuracy    <          6.1E-10 Ry

     iteration # 18     ecut=    40.00 Ry     beta= 0.60
     Davidson diagonalization with overlap
     ethr =  8.10E-13,  avg # of iterations =  4.1

     total cpu time spent up to now is    48944.5 secs

     total energy              =    -703.71195996 Ry
     Harris-Foulkes estimate   =    -703.71195996 Ry
     estimated scf accuracy    <          3.6E-10 Ry

     iteration # 19     ecut=    40.00 Ry     beta= 0.60
     Davidson diagonalization with overlap
     ethr =  4.85E-13,  avg # of iterations =  1.0

     total cpu time spent up to now is    48981.0 secs

     total energy              =    -703.71195996 Ry
     Harris-Foulkes estimate   =    -703.71195996 Ry
     estimated scf accuracy    <          2.1E-10 Ry

     iteration # 20     ecut=    40.00 Ry     beta= 0.60
     Davidson diagonalization with overlap
     ethr =  2.75E-13,  avg # of iterations =  2.4

     total cpu time spent up to now is    49021.8 secs

     End of self-consistent calculation

     Number of k-points >= 100: set verbosity='high' to print the bands.

     the Fermi energy is    15.8445 ev

!    total energy              =    -703.71195996 Ry
     Harris-Foulkes estimate   =    -703.71195996 Ry
     estimated scf accuracy    <          8.5E-12 Ry

     The total energy is the sum of the following terms:

     one-electron contribution =    -173.01550175 Ry
     hartree contribution      =     118.71693533 Ry
     xc contribution           =     -98.95029812 Ry
     ewald contribution        =    -550.46318267 Ry
     smearing contrib. (-TS)   =       0.00008725 Ry

     convergence has been achieved in  20 iterations

     Forces acting on atoms (cartesian axes, Ry/au):

     atom    1 type  2   force =    -0.01217620    0.01842810    0.00000000
     atom    2 type  2   force =     0.01133283   -0.00085506    0.00000000
     atom    3 type  2   force =    -0.02085815   -0.01194622    0.00000000
     atom    4 type  1   force =     0.00030611   -0.00123229    0.00000000
     atom    5 type  1   force =     0.01622144   -0.02239857    0.00000000
     atom    6 type  1   force =     0.00517397    0.01800405    0.00000000

     Total force =     0.048085     Total SCF correction =     0.000004


     Computing stress (Cartesian axis) and pressure

          total   stress  (Ry/bohr**3)                   (kbar)     P=   10.74
  -0.00002655  -0.00002505   0.00000000         -3.91     -3.68      0.00
  -0.00002505   0.00009594   0.00000000         -3.68     14.11      0.00
   0.00000000   0.00000000   0.00014963          0.00      0.00     22.01


     number of scf cycles    =  50
     number of bfgs steps    =  49

     enthalpy old            =    -703.7115560457 Ry
     enthalpy new            =    -703.7119599612 Ry

     CASE: enthalpy_new < enthalpy_old


     WARNING: info=  2 for Hessian

     WARNING: bfgs curvature condition failed, Theta= 0.812
     new trust radius        =       0.3531842978 bohr
     new conv_thr            =            1.0E-10 Ry

     new unit-cell volume =    703.26422 a.u.^3 (   104.21300 Ang^3 )
     density =      6.72929 g/cm^3

CELL_PARAMETERS (alat=  1.88972599)
   4.600074793  -3.005476351   0.000000000
  -4.171245179  -2.339076576   0.000000000
   0.000000000   0.000000000  -4.473332969

ATOMIC_POSITIONS (angstrom)
Ti       0.289094607  -5.629601712  -4.473332969
Ti       0.247228385  -1.578309046  -2.236666485
Ti      -1.331348402  -2.761217476  -4.473332969
Nb      -0.740330280  -4.212877542  -2.236666485
Nb       1.255736944  -2.821969392  -4.473332969
Nb       1.994941803  -4.374239545  -2.236666485


     NEW-OLD atomic charge density approx. for the potential
     extrapolated charge   74.18599, renormalised to   75.00000
 
     init_run     :     21.29s CPU     21.91s WALL (       1 calls)
     electrons    :  45969.84s CPU  48012.83s WALL (      50 calls)
     update_pot   :     68.76s CPU     76.59s WALL (      50 calls)
     forces       :    229.46s CPU    234.28s WALL (      50 calls)
     stress       :    602.10s CPU    615.78s WALL (      50 calls)

     Called by init_run:
     wfcinit      :     19.95s CPU     20.47s WALL (       1 calls)
     potinit      :      0.41s CPU      0.41s WALL (       1 calls)
     hinit0       :      0.77s CPU      0.77s WALL (       1 calls)

     Called by electrons:
     c_bands      :  39951.73s CPU  41639.20s WALL (     930 calls)
     sum_band     :   5846.15s CPU   6014.39s WALL (     930 calls)
     v_of_rho     :     31.34s CPU     31.52s WALL (     969 calls)
     newd         :    142.68s CPU    222.61s WALL (     969 calls)
     mix_rho      :      4.33s CPU      4.36s WALL (     930 calls)

     Called by c_bands:
     init_us_2    :    497.69s CPU    497.64s WALL (  837347 calls)
     cegterg      :  36717.96s CPU  37236.88s WALL (  397110 calls)

     Called by sum_band:
     sum_band:bec :     16.32s CPU     16.93s WALL (  397110 calls)
     addusdens    :    169.59s CPU    239.40s WALL (     930 calls)

     Called by *egterg:
     h_psi        :  24068.37s CPU  24544.12s WALL ( 1715188 calls)
     s_psi        :   1155.43s CPU   1158.01s WALL ( 1715188 calls)
     g_psi        :    199.00s CPU    203.74s WALL ( 1317651 calls)
     cdiaghg      :   6825.20s CPU   6834.74s WALL ( 1688714 calls)

     Called by h_psi:
     h_psi:pot    :  23978.23s CPU  24453.22s WALL ( 1715188 calls)
     h_psi:calbec :   1298.93s CPU   1305.98s WALL ( 1715188 calls)
     vloc_psi     :  21501.45s CPU  21962.53s WALL ( 1715188 calls)
     add_vuspsi   :   1170.99s CPU   1175.31s WALL ( 1715188 calls)

     General routines
     calbec       :   1887.58s CPU   1896.02s WALL ( 2219048 calls)
     fft          :     22.50s CPU     22.81s WALL (   13860 calls)
     ffts         :      0.77s CPU      0.80s WALL (    1899 calls)
     fftw         :  23418.34s CPU  23882.78s WALL (******** calls)
     interpolate  :      1.83s CPU      1.84s WALL (     969 calls)
     davcio       :      0.00s CPU      0.13s WALL (     427 calls)
 
     Parallel routines
     fft_scatt_xy :   4038.53s CPU   4146.40s WALL (******** calls)
     fft_scatt_yz :   4657.72s CPU   4688.37s WALL (******** calls)
 
     PWSCF        :    13h 1m CPU        1h13m WALL

      37h
 
   This run was terminated on:   1: 8:25  13Feb2020            

=------------------------------------------------------------------------------=
   JOB DONE.
=------------------------------------------------------------------------------=
