
     Program PWSCF v.6.3MaX starts on  5Feb2020 at  9:31:54 

     This program is part of the open-source Quantum ESPRESSO suite
     for quantum simulation of materials; please cite
         "P. Giannozzi et al., J. Phys.:Condens. Matter 21 395502 (2009);
         "P. Giannozzi et al., J. Phys.:Condens. Matter 29 465901 (2017);
          URL http://www.quantum-espresso.org", 
     in publications or presentations arising from this work. More details at
     http://www.quantum-espresso.org/quote

     Parallel version (MPI), running on     4 processors

     MPI processes distributed on     1 nodes
     R & G space division:  proc/nbgrp/npool/nimage =       4
     Waiting for input...
     Reading input from standard input

     Current dimensions of program PWSCF are:
     Max number of different atomic species (ntypx) = 10
     Max number of k-points (npk) =  40000
     Max angular momentum in pseudopotentials (lmaxx) =  3
     Message from routine iosys:
     minimal I/O required, wf_collect reset to FALSE

     Subspace diagonalization in iterative solution of the eigenvalue problem:
     a serial algorithm will be used

 
     Parallelization info
     --------------------
     sticks:   dense  smooth     PW     G-vecs:    dense   smooth      PW
     Min         744     298     85                36380     9198    1432
     Max         745     299     87                36383     9201    1435
     Sum        2977    1193    345               145525    36799    5733
 


     bravais-lattice index     =            0
     lattice parameter (alat)  =       1.8897  a.u.
     unit-cell volume          =    1077.7903 (a.u.)^3
     number of atoms/cell      =            8
     number of atomic types    =            2
     number of electrons       =       103.00
     number of Kohn-Sham states=           62
     kinetic-energy cutoff     =      40.0000  Ry
     charge density cutoff     =     400.0000  Ry
     convergence threshold     =      1.0E-10
     mixing beta               =       0.6000
     number of iterations used =            8  plain     mixing
     Exchange-correlation      = SLA PW PBE PBE ( 1  4  3  4 0 0)
     nstep                     =           50


     celldm(1)=   1.889726  celldm(2)=   0.000000  celldm(3)=   0.000000
     celldm(4)=   0.000000  celldm(5)=   0.000000  celldm(6)=   0.000000

     crystal axes: (cart. coord. in units of alat)
               a(1) = (   0.000000   0.000000  -4.972461 )  
               a(2) = (  -4.567506   2.637051   0.000000 )  
               a(3) = (   3.045004   5.274102   0.000000 )  

     reciprocal axes: (cart. coord. in units 2 pi/alat)
               b(1) = (  0.000000  0.000000 -0.201108 )  
               b(2) = ( -0.164203  0.094803  0.000000 )  
               b(3) = (  0.082102  0.142204  0.000000 )  


     PseudoPot. # 1 for Nb read from file:
     ./Nb.pbe-nsp-van.UPF
     MD5 check sum: 0a22fc7fb0ba19a08ca5db297a5d2854
     Pseudo is Ultrasoft + core correction, Zval = 13.0
     Generated by new atomic code, or converted to UPF format
     Using radial grid of  887 points,  6 beta functions with: 
                l(1) =   0
                l(2) =   0
                l(3) =   1
                l(4) =   1
                l(5) =   2
                l(6) =   2
     Q(r) pseudized with  6 coefficients,  rinner =    1.000   1.000   1.000
                                                       1.000   1.000

     PseudoPot. # 2 for Ti read from file:
     ./Ti.pbe-sp-van_ak.UPF
     MD5 check sum: f98fea3e8887528921fefa5636a534ca
     Pseudo is Ultrasoft, Zval = 12.0
     Generated by new atomic code, or converted to UPF format
     Using radial grid of  851 points,  6 beta functions with: 
                l(1) =   0
                l(2) =   0
                l(3) =   1
                l(4) =   1
                l(5) =   2
                l(6) =   2
     Q(r) pseudized with  8 coefficients,  rinner =    1.000   1.000   1.000
                                                       1.000   1.000

     atomic species   valence    mass     pseudopotential
        Nb            13.00    92.90638     Nb( 1.00)
        Ti            12.00    47.86700     Ti( 1.00)

      4 Sym. Ops. (no inversion) found



   Cartesian axes

     site n.     atom                  positions (alat units)
         1           Ti  tau(   1) = (  -3.0450042   5.2741024  -4.9724614  )
         2           Nb  tau(   2) = (  -3.0450027   3.5160674  -2.4862307  )
         3           Nb  tau(   3) = (   0.0000000   5.2741024  -4.9724614  )
         4           Nb  tau(   4) = (   0.0000015   3.5160674  -2.4862307  )
         5           Nb  tau(   5) = (  -1.5225021   7.9111536  -4.9724614  )
         6           Nb  tau(   6) = (  -1.5225006   6.1531186  -2.4862307  )
         7           Nb  tau(   7) = (  -1.5225021   2.6370512  -4.9724614  )
         8           Nb  tau(   8) = (   1.5225036   6.1531186  -2.4862307  )

     number of k points=   180  Marzari-Vanderbilt smearing, width (Ry)=  0.0200

     Number of k-points >= 100: set verbosity='high' to print them.

     Dense  grid:   145525 G-vectors     FFT dimensions: (  60,  64,  75)

     Smooth grid:    36799 G-vectors     FFT dimensions: (  40,  45,  48)

     Estimated max dynamical RAM per process >     338.38 MB

     Estimated total dynamical RAM >       1.32 GB

     Check: negative/imaginary core charge=   -0.000001    0.000000

     Initial potential from superposition of free atoms

     starting charge  101.98082, renormalised to  103.00000
     Starting wfcs are  101 randomized atomic wfcs

     total cpu time spent up to now is       17.5 secs

     Self-consistent Calculation

     iteration #  1     ecut=    40.00 Ry     beta= 0.60
     Davidson diagonalization with overlap
     ethr =  1.00E-02,  avg # of iterations =  2.0

     total cpu time spent up to now is       47.9 secs

     total energy              =    -917.36179171 Ry
     Harris-Foulkes estimate   =    -944.76187685 Ry
     estimated scf accuracy    <      34.20560773 Ry

     iteration #  2     ecut=    40.00 Ry     beta= 0.60
     Davidson diagonalization with overlap
     ethr =  1.00E-02,  avg # of iterations =  5.0

     total cpu time spent up to now is      101.8 secs

     total energy              =    -922.91298274 Ry
     Harris-Foulkes estimate   =    -982.98868716 Ry
     estimated scf accuracy    <     197.15871799 Ry

     iteration #  3     ecut=    40.00 Ry     beta= 0.60
     Davidson diagonalization with overlap
     ethr =  1.00E-02,  avg # of iterations =  5.0

     total cpu time spent up to now is      155.4 secs

     total energy              =    -941.71985595 Ry
     Harris-Foulkes estimate   =    -947.70249046 Ry
     estimated scf accuracy    <      29.37753931 Ry

     iteration #  4     ecut=    40.00 Ry     beta= 0.60
     Davidson diagonalization with overlap
     ethr =  1.00E-02,  avg # of iterations =  3.3

     total cpu time spent up to now is      188.2 secs

     total energy              =    -943.28187531 Ry
     Harris-Foulkes estimate   =    -944.24588187 Ry
     estimated scf accuracy    <       8.81375279 Ry

     iteration #  5     ecut=    40.00 Ry     beta= 0.60
     Davidson diagonalization with overlap
     ethr =  8.56E-03,  avg # of iterations =  1.3

     total cpu time spent up to now is      213.6 secs

     total energy              =    -943.13013515 Ry
     Harris-Foulkes estimate   =    -943.57325991 Ry
     estimated scf accuracy    <       5.78278500 Ry

     iteration #  6     ecut=    40.00 Ry     beta= 0.60
     Davidson diagonalization with overlap
     ethr =  5.61E-03,  avg # of iterations =  1.0

     total cpu time spent up to now is      238.7 secs

     total energy              =    -942.74667920 Ry
     Harris-Foulkes estimate   =    -943.20917131 Ry
     estimated scf accuracy    <       4.89080263 Ry

     iteration #  7     ecut=    40.00 Ry     beta= 0.60
     Davidson diagonalization with overlap
     ethr =  4.75E-03,  avg # of iterations =  1.0

     total cpu time spent up to now is      263.6 secs

     total energy              =    -941.90820655 Ry
     Harris-Foulkes estimate   =    -942.80320470 Ry
     estimated scf accuracy    <       3.87542238 Ry

     iteration #  8     ecut=    40.00 Ry     beta= 0.60
     Davidson diagonalization with overlap
     ethr =  3.76E-03,  avg # of iterations =  1.9

     total cpu time spent up to now is      290.3 secs

     total energy              =    -941.80471217 Ry
     Harris-Foulkes estimate   =    -942.04232837 Ry
     estimated scf accuracy    <       1.29864501 Ry

     iteration #  9     ecut=    40.00 Ry     beta= 0.60
     Davidson diagonalization with overlap
     ethr =  1.26E-03,  avg # of iterations =  4.4

     total cpu time spent up to now is      329.7 secs

     total energy              =    -941.92549404 Ry
     Harris-Foulkes estimate   =    -941.97984197 Ry
     estimated scf accuracy    <       0.12269510 Ry

     iteration # 10     ecut=    40.00 Ry     beta= 0.60
     Davidson diagonalization with overlap
     ethr =  1.19E-04,  avg # of iterations =  5.5

     total cpu time spent up to now is      378.1 secs

     total energy              =    -942.07174214 Ry
     Harris-Foulkes estimate   =    -942.05577706 Ry
     estimated scf accuracy    <       0.95431539 Ry

     iteration # 11     ecut=    40.00 Ry     beta= 0.60
     Davidson diagonalization with overlap
     ethr =  1.19E-04,  avg # of iterations =  3.4

     total cpu time spent up to now is      412.7 secs

     total energy              =    -941.89930845 Ry
     Harris-Foulkes estimate   =    -942.09578328 Ry
     estimated scf accuracy    <       1.17154532 Ry

     iteration # 12     ecut=    40.00 Ry     beta= 0.60
     Davidson diagonalization with overlap
     ethr =  1.19E-04,  avg # of iterations =  5.1

     total cpu time spent up to now is      461.0 secs

     total energy              =    -941.96747818 Ry
     Harris-Foulkes estimate   =    -941.96978389 Ry
     estimated scf accuracy    <       0.00622692 Ry

     iteration # 13     ecut=    40.00 Ry     beta= 0.60
     Davidson diagonalization with overlap
     ethr =  6.05E-06,  avg # of iterations =  5.7

     total cpu time spent up to now is      511.1 secs

     total energy              =    -941.96416359 Ry
     Harris-Foulkes estimate   =    -941.97200883 Ry
     estimated scf accuracy    <       0.05188420 Ry

     iteration # 14     ecut=    40.00 Ry     beta= 0.60
     Davidson diagonalization with overlap
     ethr =  6.05E-06,  avg # of iterations =  6.1

     total cpu time spent up to now is      562.7 secs

     total energy              =    -941.97007820 Ry
     Harris-Foulkes estimate   =    -941.96994095 Ry
     estimated scf accuracy    <       0.01003911 Ry

     iteration # 15     ecut=    40.00 Ry     beta= 0.60
     Davidson diagonalization with overlap
     ethr =  6.05E-06,  avg # of iterations =  1.0

     total cpu time spent up to now is      588.7 secs

     total energy              =    -941.96850085 Ry
     Harris-Foulkes estimate   =    -941.97020174 Ry
     estimated scf accuracy    <       0.01444292 Ry

     iteration # 16     ecut=    40.00 Ry     beta= 0.60
     Davidson diagonalization with overlap
     ethr =  6.05E-06,  avg # of iterations =  3.2

     total cpu time spent up to now is      619.7 secs

     total energy              =    -941.96923254 Ry
     Harris-Foulkes estimate   =    -941.96925236 Ry
     estimated scf accuracy    <       0.00009543 Ry

     iteration # 17     ecut=    40.00 Ry     beta= 0.60
     Davidson diagonalization with overlap
     ethr =  9.26E-08,  avg # of iterations =  5.5

     total cpu time spent up to now is      666.7 secs

     total energy              =    -941.96924794 Ry
     Harris-Foulkes estimate   =    -941.96929012 Ry
     estimated scf accuracy    <       0.00027520 Ry

     iteration # 18     ecut=    40.00 Ry     beta= 0.60
     Davidson diagonalization with overlap
     ethr =  9.26E-08,  avg # of iterations =  4.1

     total cpu time spent up to now is      702.3 secs

     total energy              =    -941.96927501 Ry
     Harris-Foulkes estimate   =    -941.96927802 Ry
     estimated scf accuracy    <       0.00005264 Ry

     iteration # 19     ecut=    40.00 Ry     beta= 0.60
     Davidson diagonalization with overlap
     ethr =  5.11E-08,  avg # of iterations =  1.1

     total cpu time spent up to now is      728.4 secs

     total energy              =    -941.96927308 Ry
     Harris-Foulkes estimate   =    -941.96927617 Ry
     estimated scf accuracy    <       0.00003233 Ry

     iteration # 20     ecut=    40.00 Ry     beta= 0.60
     Davidson diagonalization with overlap
     ethr =  3.14E-08,  avg # of iterations =  2.1

     total cpu time spent up to now is      756.8 secs

     total energy              =    -941.96927417 Ry
     Harris-Foulkes estimate   =    -941.96927445 Ry
     estimated scf accuracy    <       0.00000208 Ry

     iteration # 21     ecut=    40.00 Ry     beta= 0.60
     Davidson diagonalization with overlap
     ethr =  2.02E-09,  avg # of iterations =  4.2

     total cpu time spent up to now is      794.1 secs

     total energy              =    -941.96927449 Ry
     Harris-Foulkes estimate   =    -941.96927453 Ry
     estimated scf accuracy    <       0.00000041 Ry

     iteration # 22     ecut=    40.00 Ry     beta= 0.60
     Davidson diagonalization with overlap
     ethr =  3.96E-10,  avg # of iterations =  1.9

     total cpu time spent up to now is      821.3 secs

     total energy              =    -941.96927449 Ry
     Harris-Foulkes estimate   =    -941.96927451 Ry
     estimated scf accuracy    <       0.00000017 Ry

     iteration # 23     ecut=    40.00 Ry     beta= 0.60
     Davidson diagonalization with overlap
     ethr =  1.68E-10,  avg # of iterations =  2.2

     total cpu time spent up to now is      849.4 secs

     total energy              =    -941.96927449 Ry
     Harris-Foulkes estimate   =    -941.96927450 Ry
     estimated scf accuracy    <       0.00000003 Ry

     iteration # 24     ecut=    40.00 Ry     beta= 0.60
     Davidson diagonalization with overlap
     ethr =  3.14E-11,  avg # of iterations =  4.0

     total cpu time spent up to now is      887.9 secs

     total energy              =    -941.96927450 Ry
     Harris-Foulkes estimate   =    -941.96927450 Ry
     estimated scf accuracy    <       0.00000002 Ry

     iteration # 25     ecut=    40.00 Ry     beta= 0.60
     Davidson diagonalization with overlap
     ethr =  1.58E-11,  avg # of iterations =  1.0

     total cpu time spent up to now is      913.8 secs

     total energy              =    -941.96927450 Ry
     Harris-Foulkes estimate   =    -941.96927450 Ry
     estimated scf accuracy    <          3.5E-09 Ry

     iteration # 26     ecut=    40.00 Ry     beta= 0.60
     Davidson diagonalization with overlap
     ethr =  3.37E-12,  avg # of iterations =  3.2

     total cpu time spent up to now is      948.8 secs

     total energy              =    -941.96927450 Ry
     Harris-Foulkes estimate   =    -941.96927450 Ry
     estimated scf accuracy    <          3.8E-10 Ry

     iteration # 27     ecut=    40.00 Ry     beta= 0.60
     Davidson diagonalization with overlap
     ethr =  3.70E-13,  avg # of iterations =  4.0

     total cpu time spent up to now is      985.8 secs

     total energy              =    -941.96927450 Ry
     Harris-Foulkes estimate   =    -941.96927450 Ry
     estimated scf accuracy    <          1.2E-09 Ry

     iteration # 28     ecut=    40.00 Ry     beta= 0.60
     Davidson diagonalization with overlap
     ethr =  3.70E-13,  avg # of iterations =  3.6

     total cpu time spent up to now is     1021.5 secs

     End of self-consistent calculation

     Number of k-points >= 100: set verbosity='high' to print the bands.

     the Fermi energy is    15.6966 ev

!    total energy              =    -941.96927450 Ry
     Harris-Foulkes estimate   =    -941.96927450 Ry
     estimated scf accuracy    <          7.8E-12 Ry

     The total energy is the sum of the following terms:

     one-electron contribution =    -191.79389170 Ry
     hartree contribution      =     139.90795087 Ry
     xc contribution           =    -142.75550307 Ry
     ewald contribution        =    -747.32618556 Ry
     smearing contrib. (-TS)   =      -0.00164505 Ry

     convergence has been achieved in  28 iterations

     Forces acting on atoms (cartesian axes, Ry/au):

     atom    1 type  2   force =     0.00056773   -0.00032778    0.00000000
     atom    2 type  1   force =    -0.00007940    0.00204898    0.00000000
     atom    3 type  1   force =    -0.00279655   -0.00045797    0.00000000
     atom    4 type  1   force =     0.00156496   -0.00090353    0.00000000
     atom    5 type  1   force =     0.00276671   -0.00159736    0.00000000
     atom    6 type  1   force =    -0.00181417   -0.00095573    0.00000000
     atom    7 type  1   force =    -0.00100166    0.00265087    0.00000000
     atom    8 type  1   force =     0.00079237   -0.00045748    0.00000000

     Total force =     0.006262     Total SCF correction =     0.000006


     Computing stress (Cartesian axis) and pressure

          total   stress  (Ry/bohr**3)                   (kbar)     P= -108.25
  -0.00088307  -0.00000233   0.00000000       -129.90     -0.34      0.00
  -0.00000233  -0.00088576   0.00000000         -0.34   -130.30      0.00
   0.00000000   0.00000000  -0.00043868          0.00      0.00    -64.53


     BFGS Geometry Optimization

     number of scf cycles    =   1
     number of bfgs steps    =   0

     enthalpy new            =    -941.9692745004 Ry

     new trust radius        =       0.1453961762 bohr
     new conv_thr            =            1.0E-10 Ry

     new unit-cell volume =   1019.35330 a.u.^3 (   151.05257 Ang^3 )
     density =      7.67552 g/cm^3

CELL_PARAMETERS (alat=  1.88972599)
   0.000000000   0.000000000  -4.917927504
  -4.466823718   2.578922061   0.000000000
   2.977473425   5.157135622   0.000000000

ATOMIC_POSITIONS (angstrom)
Ti      -2.977793199   5.157320243  -4.917927504
Nb      -2.978024404   3.439445031  -2.458963752
Nb      -0.001753975   5.157075852  -4.917927504
Nb       0.000606851   3.437740050  -2.458963752
Nb      -1.487918484   7.735231029  -4.917927504
Nb      -1.490185334   6.016458079  -2.458963752
Nb      -1.489561938   2.580116683  -4.917927504
Nb       1.488943739   6.016538699  -2.458963752


     NEW-OLD atomic charge density approx. for the potential

     Check: negative/imaginary core charge=   -0.000001    0.000000
     extrapolated charge   97.15369, renormalised to  103.00000

     total cpu time spent up to now is     1041.2 secs

     Self-consistent Calculation

     iteration #  1     ecut=    40.00 Ry     beta= 0.60
     Davidson diagonalization with overlap
     c_bands:  1 eigenvalues not converged
     c_bands:  1 eigenvalues not converged
     c_bands:  1 eigenvalues not converged
     c_bands:  1 eigenvalues not converged
     c_bands:  1 eigenvalues not converged
     c_bands:  1 eigenvalues not converged
     c_bands:  1 eigenvalues not converged
     c_bands:  1 eigenvalues not converged
     c_bands:  1 eigenvalues not converged
     c_bands:  1 eigenvalues not converged
     c_bands:  1 eigenvalues not converged
     c_bands:  1 eigenvalues not converged
     c_bands:  1 eigenvalues not converged
     c_bands:  1 eigenvalues not converged
     c_bands:  1 eigenvalues not converged
     c_bands:  1 eigenvalues not converged
     c_bands:  1 eigenvalues not converged
     c_bands:  1 eigenvalues not converged
     c_bands:  1 eigenvalues not converged
     c_bands:  1 eigenvalues not converged
     c_bands:  1 eigenvalues not converged
     c_bands:  1 eigenvalues not converged
     c_bands:  1 eigenvalues not converged
     ethr =  1.00E-06,  avg # of iterations = 14.4

     total cpu time spent up to now is     1150.0 secs

     total energy              =    -937.97488094 Ry
     Harris-Foulkes estimate   =    -948.98884018 Ry
     estimated scf accuracy    <       4.23048582 Ry

     iteration #  2     ecut=    40.00 Ry     beta= 0.60
     Davidson diagonalization with overlap
     ethr =  4.11E-03,  avg # of iterations =  5.3

     total cpu time spent up to now is     1199.8 secs

     total energy              =    -941.97478553 Ry
     Harris-Foulkes estimate   =    -947.02324698 Ry
     estimated scf accuracy    <      14.44923851 Ry

     iteration #  3     ecut=    40.00 Ry     beta= 0.60
     Davidson diagonalization with overlap
     ethr =  4.11E-03,  avg # of iterations =  2.9

     total cpu time spent up to now is     1232.4 secs

     total energy              =    -942.32886484 Ry
     Harris-Foulkes estimate   =    -943.16934324 Ry
     estimated scf accuracy    <       4.52840560 Ry

     iteration #  4     ecut=    40.00 Ry     beta= 0.60
     Davidson diagonalization with overlap
     ethr =  4.11E-03,  avg # of iterations =  2.0

     total cpu time spent up to now is     1259.1 secs

     total energy              =    -942.03849710 Ry
     Harris-Foulkes estimate   =    -942.61609357 Ry
     estimated scf accuracy    <       3.08125148 Ry

     iteration #  5     ecut=    40.00 Ry     beta= 0.60
     Davidson diagonalization with overlap
     ethr =  2.99E-03,  avg # of iterations =  1.9

     total cpu time spent up to now is     1287.3 secs

     total energy              =    -941.96829409 Ry
     Harris-Foulkes estimate   =    -942.15081441 Ry
     estimated scf accuracy    <       1.53617432 Ry

     iteration #  6     ecut=    40.00 Ry     beta= 0.60
     Davidson diagonalization with overlap
     ethr =  1.49E-03,  avg # of iterations =  3.6

     total cpu time spent up to now is     1318.8 secs

     total energy              =    -941.99001072 Ry
     Harris-Foulkes estimate   =    -942.06234778 Ry
     estimated scf accuracy    <       0.56494828 Ry

     iteration #  7     ecut=    40.00 Ry     beta= 0.60
     Davidson diagonalization with overlap
     ethr =  5.48E-04,  avg # of iterations =  3.8

     total cpu time spent up to now is     1355.0 secs

     total energy              =    -942.04897488 Ry
     Harris-Foulkes estimate   =    -942.03268826 Ry
     estimated scf accuracy    <       0.13634632 Ry

     iteration #  8     ecut=    40.00 Ry     beta= 0.60
     Davidson diagonalization with overlap
     ethr =  1.32E-04,  avg # of iterations =  3.7

     total cpu time spent up to now is     1387.9 secs

     total energy              =    -942.04030735 Ry
     Harris-Foulkes estimate   =    -942.06219065 Ry
     estimated scf accuracy    <       0.39302792 Ry

     iteration #  9     ecut=    40.00 Ry     beta= 0.60
     Davidson diagonalization with overlap
     ethr =  1.32E-04,  avg # of iterations =  1.0

     total cpu time spent up to now is     1415.4 secs

     total energy              =    -941.99745326 Ry
     Harris-Foulkes estimate   =    -942.04194373 Ry
     estimated scf accuracy    <       0.30629676 Ry

     iteration # 10     ecut=    40.00 Ry     beta= 0.60
     Davidson diagonalization with overlap
     ethr =  1.32E-04,  avg # of iterations =  3.8

     total cpu time spent up to now is     1447.1 secs

     total energy              =    -941.98188181 Ry
     Harris-Foulkes estimate   =    -942.00790955 Ry
     estimated scf accuracy    <       0.05438119 Ry

     iteration # 11     ecut=    40.00 Ry     beta= 0.60
     Davidson diagonalization with overlap
     ethr =  5.28E-05,  avg # of iterations =  6.0

     total cpu time spent up to now is     1503.3 secs

     total energy              =    -941.98646324 Ry
     Harris-Foulkes estimate   =    -942.02653648 Ry
     estimated scf accuracy    <       0.47497029 Ry

     iteration # 12     ecut=    40.00 Ry     beta= 0.60
     Davidson diagonalization with overlap
     ethr =  5.28E-05,  avg # of iterations =  4.5

     total cpu time spent up to now is     1539.0 secs

     total energy              =    -942.00257312 Ry
     Harris-Foulkes estimate   =    -942.00328485 Ry
     estimated scf accuracy    <       0.01308400 Ry

     iteration # 13     ecut=    40.00 Ry     beta= 0.60
     Davidson diagonalization with overlap
     ethr =  1.27E-05,  avg # of iterations =  3.8

     total cpu time spent up to now is     1570.5 secs

     total energy              =    -942.00268472 Ry
     Harris-Foulkes estimate   =    -942.00285519 Ry
     estimated scf accuracy    <       0.00629438 Ry

     iteration # 14     ecut=    40.00 Ry     beta= 0.60
     Davidson diagonalization with overlap
     ethr =  6.11E-06,  avg # of iterations =  3.1

     total cpu time spent up to now is     1600.1 secs

     total energy              =    -942.00234749 Ry
     Harris-Foulkes estimate   =    -942.00275862 Ry
     estimated scf accuracy    <       0.00466164 Ry

     iteration # 15     ecut=    40.00 Ry     beta= 0.60
     Davidson diagonalization with overlap
     ethr =  4.53E-06,  avg # of iterations =  3.4

     total cpu time spent up to now is     1630.7 secs

     total energy              =    -942.00247410 Ry
     Harris-Foulkes estimate   =    -942.00250896 Ry
     estimated scf accuracy    <       0.00051076 Ry

     iteration # 16     ecut=    40.00 Ry     beta= 0.60
     Davidson diagonalization with overlap
     ethr =  4.96E-07,  avg # of iterations =  5.2

     total cpu time spent up to now is     1671.5 secs

     total energy              =    -942.00256589 Ry
     Harris-Foulkes estimate   =    -942.00256937 Ry
     estimated scf accuracy    <       0.00001974 Ry

     iteration # 17     ecut=    40.00 Ry     beta= 0.60
     Davidson diagonalization with overlap
     ethr =  1.92E-08,  avg # of iterations =  3.1

     total cpu time spent up to now is     1706.2 secs

     total energy              =    -942.00256810 Ry
     Harris-Foulkes estimate   =    -942.00256844 Ry
     estimated scf accuracy    <       0.00000412 Ry

     iteration # 18     ecut=    40.00 Ry     beta= 0.60
     Davidson diagonalization with overlap
     ethr =  4.00E-09,  avg # of iterations =  2.0

     total cpu time spent up to now is     1735.2 secs

     total energy              =    -942.00256782 Ry
     Harris-Foulkes estimate   =    -942.00256842 Ry
     estimated scf accuracy    <       0.00000454 Ry

     iteration # 19     ecut=    40.00 Ry     beta= 0.60
     Davidson diagonalization with overlap
     ethr =  4.00E-09,  avg # of iterations =  1.2

     total cpu time spent up to now is     1763.7 secs

     total energy              =    -942.00256799 Ry
     Harris-Foulkes estimate   =    -942.00256811 Ry
     estimated scf accuracy    <       0.00000119 Ry

     iteration # 20     ecut=    40.00 Ry     beta= 0.60
     Davidson diagonalization with overlap
     ethr =  1.16E-09,  avg # of iterations =  3.1

     total cpu time spent up to now is     1796.1 secs

     total energy              =    -942.00256798 Ry
     Harris-Foulkes estimate   =    -942.00256812 Ry
     estimated scf accuracy    <       0.00000065 Ry

     iteration # 21     ecut=    40.00 Ry     beta= 0.60
     Davidson diagonalization with overlap
     ethr =  6.28E-10,  avg # of iterations =  3.9

     total cpu time spent up to now is     1838.3 secs

     total energy              =    -942.00256807 Ry
     Harris-Foulkes estimate   =    -942.00256810 Ry
     estimated scf accuracy    <       0.00000031 Ry

     iteration # 22     ecut=    40.00 Ry     beta= 0.60
     Davidson diagonalization with overlap
     ethr =  3.02E-10,  avg # of iterations =  1.0

     total cpu time spent up to now is     1864.7 secs

     total energy              =    -942.00256808 Ry
     Harris-Foulkes estimate   =    -942.00256808 Ry
     estimated scf accuracy    <       0.00000009 Ry

     iteration # 23     ecut=    40.00 Ry     beta= 0.60
     Davidson diagonalization with overlap
     ethr =  8.76E-11,  avg # of iterations =  3.0

     total cpu time spent up to now is     1896.5 secs

     total energy              =    -942.00256808 Ry
     Harris-Foulkes estimate   =    -942.00256808 Ry
     estimated scf accuracy    <       0.00000002 Ry

     iteration # 24     ecut=    40.00 Ry     beta= 0.60
     Davidson diagonalization with overlap
     ethr =  1.77E-11,  avg # of iterations =  2.7

     total cpu time spent up to now is     1926.6 secs

     total energy              =    -942.00256808 Ry
     Harris-Foulkes estimate   =    -942.00256808 Ry
     estimated scf accuracy    <          9.2E-09 Ry

     iteration # 25     ecut=    40.00 Ry     beta= 0.60
     Davidson diagonalization with overlap
     ethr =  8.92E-12,  avg # of iterations =  3.1

     total cpu time spent up to now is     1957.6 secs

     total energy              =    -942.00256808 Ry
     Harris-Foulkes estimate   =    -942.00256808 Ry
     estimated scf accuracy    <          6.6E-10 Ry

     iteration # 26     ecut=    40.00 Ry     beta= 0.60
     Davidson diagonalization with overlap
     ethr =  6.36E-13,  avg # of iterations =  3.9

     total cpu time spent up to now is     1994.4 secs

     End of self-consistent calculation

     Number of k-points >= 100: set verbosity='high' to print the bands.

     the Fermi energy is    16.7463 ev

!    total energy              =    -942.00256808 Ry
     Harris-Foulkes estimate   =    -942.00256808 Ry
     estimated scf accuracy    <          3.3E-11 Ry

     The total energy is the sum of the following terms:

     one-electron contribution =    -171.76007612 Ry
     hartree contribution      =     134.29862345 Ry
     xc contribution           =    -143.20309608 Ry
     ewald contribution        =    -761.33736171 Ry
     smearing contrib. (-TS)   =      -0.00065762 Ry

     convergence has been achieved in  26 iterations

     Forces acting on atoms (cartesian axes, Ry/au):

     atom    1 type  2   force =     0.00050937   -0.00029408    0.00000000
     atom    2 type  1   force =    -0.00003461    0.00436510    0.00000000
     atom    3 type  1   force =    -0.00319208   -0.00168210    0.00000000
     atom    4 type  1   force =     0.00403636   -0.00233039    0.00000000
     atom    5 type  1   force =     0.00225630   -0.00130268    0.00000000
     atom    6 type  1   force =    -0.00379759   -0.00215257    0.00000000
     atom    7 type  1   force =    -0.00013930    0.00360547    0.00000000
     atom    8 type  1   force =     0.00036155   -0.00020874    0.00000000

     Total force =     0.009653     Total SCF correction =     0.000013


     Computing stress (Cartesian axis) and pressure

          total   stress  (Ry/bohr**3)                   (kbar)     P=  -37.10
  -0.00041610  -0.00000263   0.00000000        -61.21     -0.39      0.00
  -0.00000263  -0.00041914   0.00000000         -0.39    -61.66      0.00
   0.00000000   0.00000000   0.00007860          0.00      0.00     11.56


     number of scf cycles    =   2
     number of bfgs steps    =   1

     enthalpy old            =    -941.9692745004 Ry
     enthalpy new            =    -942.0025680786 Ry

     CASE: enthalpy_new < enthalpy_old

     new trust radius        =       0.1235800061 bohr
     new conv_thr            =            1.0E-10 Ry

     new unit-cell volume =    982.30838 a.u.^3 (   145.56308 Ang^3 )
     density =      7.96498 g/cm^3

CELL_PARAMETERS (alat=  1.88972599)
   0.000000000   0.000000000  -4.927437242
  -4.381265959   2.529525270   0.000000000
   2.919652930   5.056987593   0.000000000

ATOMIC_POSITIONS (angstrom)
Ti      -2.920707152   5.057596248  -4.927437242
Nb      -2.921213980   3.376876999  -2.463718621
Nb      -0.005054475   5.055881773  -4.927437242
Nb       0.003562276   3.369268381  -2.463718621
Nb      -1.458227627   7.584558300  -4.927437242
Nb      -1.465415109   5.898394800  -2.463718621
Nb      -1.461396034   2.533424010  -4.927437242
Nb       1.459970813   5.899735520  -2.463718621


     NEW-OLD atomic charge density approx. for the potential

     Check: negative/imaginary core charge=   -0.000001    0.000000
     extrapolated charge   99.15409, renormalised to  103.00000

     total cpu time spent up to now is     2016.8 secs

     Self-consistent Calculation

     iteration #  1     ecut=    40.00 Ry     beta= 0.60
     Davidson diagonalization with overlap
     ethr =  1.00E-06,  avg # of iterations = 11.6

     total cpu time spent up to now is     2125.4 secs

     total energy              =    -940.97219604 Ry
     Harris-Foulkes estimate   =    -946.24472613 Ry
     estimated scf accuracy    <       1.01838414 Ry

     iteration #  2     ecut=    40.00 Ry     beta= 0.60
     Davidson diagonalization with overlap
     ethr =  9.89E-04,  avg # of iterations =  6.3

     total cpu time spent up to now is     2186.5 secs

     total energy              =    -941.86623322 Ry
     Harris-Foulkes estimate   =    -943.54449117 Ry
     estimated scf accuracy    <       5.70999655 Ry

     iteration #  3     ecut=    40.00 Ry     beta= 0.60
     Davidson diagonalization with overlap
     ethr =  9.89E-04,  avg # of iterations =  4.2

     total cpu time spent up to now is     2230.2 secs

     total energy              =    -942.02376683 Ry
     Harris-Foulkes estimate   =    -942.28095525 Ry
     estimated scf accuracy    <       1.31231858 Ry

     iteration #  4     ecut=    40.00 Ry     beta= 0.60
     Davidson diagonalization with overlap
     ethr =  9.89E-04,  avg # of iterations =  2.5

     total cpu time spent up to now is     2259.6 secs

     total energy              =    -941.99637711 Ry
     Harris-Foulkes estimate   =    -942.14203820 Ry
     estimated scf accuracy    <       0.99744094 Ry

     iteration #  5     ecut=    40.00 Ry     beta= 0.60
     Davidson diagonalization with overlap
     ethr =  9.68E-04,  avg # of iterations =  1.5

     total cpu time spent up to now is     2285.6 secs

     total energy              =    -941.99494985 Ry
     Harris-Foulkes estimate   =    -942.03500783 Ry
     estimated scf accuracy    <       0.31187688 Ry

     iteration #  6     ecut=    40.00 Ry     beta= 0.60
     Davidson diagonalization with overlap
     ethr =  3.03E-04,  avg # of iterations =  4.3

     total cpu time spent up to now is     2320.9 secs

     total energy              =    -942.01778296 Ry
     Harris-Foulkes estimate   =    -942.02782136 Ry
     estimated scf accuracy    <       0.06400423 Ry

     iteration #  7     ecut=    40.00 Ry     beta= 0.60
     Davidson diagonalization with overlap
     ethr =  6.21E-05,  avg # of iterations =  2.5

     total cpu time spent up to now is     2349.1 secs

     total energy              =    -942.02240436 Ry
     Harris-Foulkes estimate   =    -942.02221053 Ry
     estimated scf accuracy    <       0.03561973 Ry

     iteration #  8     ecut=    40.00 Ry     beta= 0.60
     Davidson diagonalization with overlap
     ethr =  3.46E-05,  avg # of iterations =  3.0

     total cpu time spent up to now is     2379.4 secs

     total energy              =    -942.01985426 Ry
     Harris-Foulkes estimate   =    -942.02413328 Ry
     estimated scf accuracy    <       0.07279679 Ry

     iteration #  9     ecut=    40.00 Ry     beta= 0.60
     Davidson diagonalization with overlap
     ethr =  3.46E-05,  avg # of iterations =  1.0

     total cpu time spent up to now is     2404.6 secs

     total energy              =    -942.01179609 Ry
     Harris-Foulkes estimate   =    -942.02025167 Ry
     estimated scf accuracy    <       0.05433203 Ry

     iteration # 10     ecut=    40.00 Ry     beta= 0.60
     Davidson diagonalization with overlap
     ethr =  3.46E-05,  avg # of iterations =  2.7

     total cpu time spent up to now is     2432.8 secs

     total energy              =    -942.00897368 Ry
     Harris-Foulkes estimate   =    -942.01357855 Ry
     estimated scf accuracy    <       0.01156096 Ry

     iteration # 11     ecut=    40.00 Ry     beta= 0.60
     Davidson diagonalization with overlap
     ethr =  1.12E-05,  avg # of iterations =  6.0

     total cpu time spent up to now is     2483.0 secs

     total energy              =    -942.01178371 Ry
     Harris-Foulkes estimate   =    -942.01357091 Ry
     estimated scf accuracy    <       0.01640533 Ry

     iteration # 12     ecut=    40.00 Ry     beta= 0.60
     Davidson diagonalization with overlap
     ethr =  1.12E-05,  avg # of iterations =  1.1

     total cpu time spent up to now is     2508.4 secs

     total energy              =    -942.01205498 Ry
     Harris-Foulkes estimate   =    -942.01230591 Ry
     estimated scf accuracy    <       0.00229987 Ry

     iteration # 13     ecut=    40.00 Ry     beta= 0.60
     Davidson diagonalization with overlap
     ethr =  2.23E-06,  avg # of iterations =  5.6

     total cpu time spent up to now is     2551.0 secs

     total energy              =    -942.01239283 Ry
     Harris-Foulkes estimate   =    -942.01241126 Ry
     estimated scf accuracy    <       0.00008165 Ry

     iteration # 14     ecut=    40.00 Ry     beta= 0.60
     Davidson diagonalization with overlap
     ethr =  7.93E-08,  avg # of iterations =  3.6

     total cpu time spent up to now is     2584.4 secs

     total energy              =    -942.01240177 Ry
     Harris-Foulkes estimate   =    -942.01240661 Ry
     estimated scf accuracy    <       0.00002462 Ry

     iteration # 15     ecut=    40.00 Ry     beta= 0.60
     Davidson diagonalization with overlap
     ethr =  2.39E-08,  avg # of iterations =  2.8

     total cpu time spent up to now is     2614.0 secs

     total energy              =    -942.01240429 Ry
     Harris-Foulkes estimate   =    -942.01240445 Ry
     estimated scf accuracy    <       0.00000138 Ry

     iteration # 16     ecut=    40.00 Ry     beta= 0.60
     Davidson diagonalization with overlap
     ethr =  1.34E-09,  avg # of iterations =  4.2

     total cpu time spent up to now is     2654.7 secs

     total energy              =    -942.01240452 Ry
     Harris-Foulkes estimate   =    -942.01240498 Ry
     estimated scf accuracy    <       0.00000651 Ry

     iteration # 17     ecut=    40.00 Ry     beta= 0.60
     Davidson diagonalization with overlap
     ethr =  1.34E-09,  avg # of iterations =  2.2

     total cpu time spent up to now is     2682.7 secs

     total energy              =    -942.01240438 Ry
     Harris-Foulkes estimate   =    -942.01240468 Ry
     estimated scf accuracy    <       0.00000347 Ry

     iteration # 18     ecut=    40.00 Ry     beta= 0.60
     Davidson diagonalization with overlap
     ethr =  1.34E-09,  avg # of iterations =  3.0

     total cpu time spent up to now is     2713.1 secs

     total energy              =    -942.01240443 Ry
     Harris-Foulkes estimate   =    -942.01240448 Ry
     estimated scf accuracy    <       0.00000059 Ry

     iteration # 19     ecut=    40.00 Ry     beta= 0.60
     Davidson diagonalization with overlap
     ethr =  5.76E-10,  avg # of iterations =  2.5

     total cpu time spent up to now is     2742.5 secs

     total energy              =    -942.01240444 Ry
     Harris-Foulkes estimate   =    -942.01240446 Ry
     estimated scf accuracy    <       0.00000014 Ry

     iteration # 20     ecut=    40.00 Ry     beta= 0.60
     Davidson diagonalization with overlap
     ethr =  1.37E-10,  avg # of iterations =  3.4

     total cpu time spent up to now is     2777.9 secs

     total energy              =    -942.01240445 Ry
     Harris-Foulkes estimate   =    -942.01240446 Ry
     estimated scf accuracy    <       0.00000002 Ry

     iteration # 21     ecut=    40.00 Ry     beta= 0.60
     Davidson diagonalization with overlap
     ethr =  1.75E-11,  avg # of iterations =  3.0

     total cpu time spent up to now is     2808.4 secs

     total energy              =    -942.01240446 Ry
     Harris-Foulkes estimate   =    -942.01240446 Ry
     estimated scf accuracy    <          3.6E-09 Ry

     iteration # 22     ecut=    40.00 Ry     beta= 0.60
     Davidson diagonalization with overlap
     ethr =  3.52E-12,  avg # of iterations =  3.5

     total cpu time spent up to now is     2843.5 secs

     total energy              =    -942.01240446 Ry
     Harris-Foulkes estimate   =    -942.01240446 Ry
     estimated scf accuracy    <          1.4E-09 Ry

     iteration # 23     ecut=    40.00 Ry     beta= 0.60
     Davidson diagonalization with overlap
     ethr =  1.35E-12,  avg # of iterations =  2.8

     total cpu time spent up to now is     2874.7 secs

     total energy              =    -942.01240446 Ry
     Harris-Foulkes estimate   =    -942.01240446 Ry
     estimated scf accuracy    <          1.7E-10 Ry

     iteration # 24     ecut=    40.00 Ry     beta= 0.60
     Davidson diagonalization with overlap
     ethr =  1.64E-13,  avg # of iterations =  2.4

     total cpu time spent up to now is     2905.0 secs

     End of self-consistent calculation

     Number of k-points >= 100: set verbosity='high' to print the bands.

     the Fermi energy is    17.4644 ev

!    total energy              =    -942.01240446 Ry
     Harris-Foulkes estimate   =    -942.01240446 Ry
     estimated scf accuracy    <          6.9E-11 Ry

     The total energy is the sum of the following terms:

     one-electron contribution =    -158.49112829 Ry
     hartree contribution      =     130.70395291 Ry
     xc contribution           =    -143.52153199 Ry
     ewald contribution        =    -770.70338855 Ry
     smearing contrib. (-TS)   =      -0.00030854 Ry

     convergence has been achieved in  24 iterations

     Forces acting on atoms (cartesian axes, Ry/au):

     atom    1 type  2   force =     0.00044338   -0.00025599    0.00000000
     atom    2 type  1   force =     0.00013664    0.00473587    0.00000000
     atom    3 type  1   force =    -0.00279722   -0.00225610    0.00000000
     atom    4 type  1   force =     0.00525197   -0.00303222    0.00000000
     atom    5 type  1   force =     0.00100098   -0.00057791    0.00000000
     atom    6 type  1   force =    -0.00403306   -0.00248627    0.00000000
     atom    7 type  1   force =     0.00055523    0.00355052    0.00000000
     atom    8 type  1   force =    -0.00055791    0.00032211    0.00000000

     Total force =     0.010465     Total SCF correction =     0.000014


     Computing stress (Cartesian axis) and pressure

          total   stress  (Ry/bohr**3)                   (kbar)     P=   18.54
  -0.00003838  -0.00000118   0.00000000         -5.65     -0.17      0.00
  -0.00000118  -0.00003974   0.00000000         -0.17     -5.85      0.00
   0.00000000   0.00000000   0.00045622          0.00      0.00     67.11


     number of scf cycles    =   3
     number of bfgs steps    =   2

     enthalpy old            =    -942.0025680786 Ry
     enthalpy new            =    -942.0124044559 Ry

     CASE: enthalpy_new < enthalpy_old

     new trust radius        =       0.0729148184 bohr
     new conv_thr            =            1.0E-10 Ry

     new unit-cell volume =    975.93878 a.u.^3 (   144.61920 Ang^3 )
     density =      8.01697 g/cm^3

CELL_PARAMETERS (alat=  1.88972599)
   0.000000000   0.000000000  -4.984754181
  -4.342230075   2.506987893   0.000000000
   2.893144276   5.011073261   0.000000000

ATOMIC_POSITIONS (angstrom)
Ti      -2.894532069   5.011874504  -4.984754181
Nb      -2.895247833   3.350322985  -2.492377090
Nb      -0.007840328   5.008528641  -4.984754181
Nb       0.007222732   3.336545462  -2.492377090
Nb      -1.444487264   7.515406189  -4.984754181
Nb      -1.455944237   5.843270133  -2.492377090
Nb      -1.448288596   2.513598863  -4.984754181
Nb       1.446284367   5.846418283  -2.492377090


     NEW-OLD atomic charge density approx. for the potential

     Check: negative/imaginary core charge=   -0.000001    0.000000
     extrapolated charge  102.33441, renormalised to  103.00000

     total cpu time spent up to now is     2926.9 secs

     Self-consistent Calculation

     iteration #  1     ecut=    40.00 Ry     beta= 0.60
     Davidson diagonalization with overlap
     c_bands:  1 eigenvalues not converged
     c_bands:  1 eigenvalues not converged
     c_bands:  1 eigenvalues not converged
     c_bands:  1 eigenvalues not converged
     c_bands:  1 eigenvalues not converged
     c_bands:  1 eigenvalues not converged
     c_bands:  1 eigenvalues not converged
     c_bands:  1 eigenvalues not converged
     c_bands:  1 eigenvalues not converged
     c_bands:  1 eigenvalues not converged
     c_bands:  1 eigenvalues not converged
     c_bands:  1 eigenvalues not converged
     ethr =  1.00E-06,  avg # of iterations = 11.0

     total cpu time spent up to now is     3015.0 secs

     total energy              =    -941.99689956 Ry
     Harris-Foulkes estimate   =    -942.73260069 Ry
     estimated scf accuracy    <       0.01962319 Ry

     iteration #  2     ecut=    40.00 Ry     beta= 0.60
     Davidson diagonalization with overlap
     c_bands:  1 eigenvalues not converged
     c_bands:  1 eigenvalues not converged
     c_bands:  1 eigenvalues not converged
     c_bands:  1 eigenvalues not converged
     ethr =  1.91E-05,  avg # of iterations =  8.3

     total cpu time spent up to now is     3083.1 secs

     total energy              =    -941.98814679 Ry
     Harris-Foulkes estimate   =    -942.06420112 Ry
     estimated scf accuracy    <       0.48097094 Ry

     iteration #  3     ecut=    40.00 Ry     beta= 0.60
     Davidson diagonalization with overlap
     ethr =  1.91E-05,  avg # of iterations =  5.2

     total cpu time spent up to now is     3132.7 secs

     total energy              =    -942.01625608 Ry
     Harris-Foulkes estimate   =    -942.02157226 Ry
     estimated scf accuracy    <       0.01523126 Ry

     iteration #  4     ecut=    40.00 Ry     beta= 0.60
     Davidson diagonalization with overlap
     ethr =  1.48E-05,  avg # of iterations =  3.2

     total cpu time spent up to now is     3165.2 secs

     total energy              =    -942.01730505 Ry
     Harris-Foulkes estimate   =    -942.01984383 Ry
     estimated scf accuracy    <       0.01728645 Ry

     iteration #  5     ecut=    40.00 Ry     beta= 0.60
     Davidson diagonalization with overlap
     ethr =  1.48E-05,  avg # of iterations =  1.8

     total cpu time spent up to now is     3191.2 secs

     total energy              =    -942.01775948 Ry
     Harris-Foulkes estimate   =    -942.01830325 Ry
     estimated scf accuracy    <       0.00435062 Ry

     iteration #  6     ecut=    40.00 Ry     beta= 0.60
     Davidson diagonalization with overlap
     ethr =  4.22E-06,  avg # of iterations =  2.2

     total cpu time spent up to now is     3219.1 secs

     total energy              =    -942.01765472 Ry
     Harris-Foulkes estimate   =    -942.01797867 Ry
     estimated scf accuracy    <       0.00202989 Ry

     iteration #  7     ecut=    40.00 Ry     beta= 0.60
     Davidson diagonalization with overlap
     ethr =  1.97E-06,  avg # of iterations =  2.8

     total cpu time spent up to now is     3247.0 secs

     total energy              =    -942.01762079 Ry
     Harris-Foulkes estimate   =    -942.01776801 Ry
     estimated scf accuracy    <       0.00055333 Ry

     iteration #  8     ecut=    40.00 Ry     beta= 0.60
     Davidson diagonalization with overlap
     ethr =  5.37E-07,  avg # of iterations =  4.3

     total cpu time spent up to now is     3282.3 secs

     total energy              =    -942.01770676 Ry
     Harris-Foulkes estimate   =    -942.01772249 Ry
     estimated scf accuracy    <       0.00014896 Ry

     iteration #  9     ecut=    40.00 Ry     beta= 0.60
     Davidson diagonalization with overlap
     ethr =  1.45E-07,  avg # of iterations =  1.3

     total cpu time spent up to now is     3307.6 secs

     total energy              =    -942.01770423 Ry
     Harris-Foulkes estimate   =    -942.01771390 Ry
     estimated scf accuracy    <       0.00007082 Ry

     iteration # 10     ecut=    40.00 Ry     beta= 0.60
     Davidson diagonalization with overlap
     ethr =  6.88E-08,  avg # of iterations =  2.8

     total cpu time spent up to now is     3336.3 secs

     total energy              =    -942.01770798 Ry
     Harris-Foulkes estimate   =    -942.01771057 Ry
     estimated scf accuracy    <       0.00000972 Ry

     iteration # 11     ecut=    40.00 Ry     beta= 0.60
     Davidson diagonalization with overlap
     ethr =  9.44E-09,  avg # of iterations =  3.4

     total cpu time spent up to now is     3369.9 secs

     total energy              =    -942.01770966 Ry
     Harris-Foulkes estimate   =    -942.01771030 Ry
     estimated scf accuracy    <       0.00000363 Ry

     iteration # 12     ecut=    40.00 Ry     beta= 0.60
     Davidson diagonalization with overlap
     ethr =  3.53E-09,  avg # of iterations =  1.9

     total cpu time spent up to now is     3396.6 secs

     total energy              =    -942.01770994 Ry
     Harris-Foulkes estimate   =    -942.01770996 Ry
     estimated scf accuracy    <       0.00000011 Ry

     iteration # 13     ecut=    40.00 Ry     beta= 0.60
     Davidson diagonalization with overlap
     ethr =  1.09E-10,  avg # of iterations =  4.3

     total cpu time spent up to now is     3437.5 secs

     total energy              =    -942.01770999 Ry
     Harris-Foulkes estimate   =    -942.01771000 Ry
     estimated scf accuracy    <       0.00000006 Ry

     iteration # 14     ecut=    40.00 Ry     beta= 0.60
     Davidson diagonalization with overlap
     ethr =  6.10E-11,  avg # of iterations =  1.0

     total cpu time spent up to now is     3462.6 secs

     total energy              =    -942.01771000 Ry
     Harris-Foulkes estimate   =    -942.01771000 Ry
     estimated scf accuracy    <       0.00000001 Ry

     iteration # 15     ecut=    40.00 Ry     beta= 0.60
     Davidson diagonalization with overlap
     ethr =  1.41E-11,  avg # of iterations =  3.1

     total cpu time spent up to now is     3496.1 secs

     total energy              =    -942.01771000 Ry
     Harris-Foulkes estimate   =    -942.01771000 Ry
     estimated scf accuracy    <          3.7E-09 Ry

     iteration # 16     ecut=    40.00 Ry     beta= 0.60
     Davidson diagonalization with overlap
     ethr =  3.56E-12,  avg # of iterations =  3.1

     total cpu time spent up to now is     3529.4 secs

     total energy              =    -942.01771000 Ry
     Harris-Foulkes estimate   =    -942.01771000 Ry
     estimated scf accuracy    <          4.2E-09 Ry

     iteration # 17     ecut=    40.00 Ry     beta= 0.60
     Davidson diagonalization with overlap
     ethr =  3.56E-12,  avg # of iterations =  2.9

     total cpu time spent up to now is     3560.2 secs

     total energy              =    -942.01771000 Ry
     Harris-Foulkes estimate   =    -942.01771000 Ry
     estimated scf accuracy    <          1.8E-09 Ry

     iteration # 18     ecut=    40.00 Ry     beta= 0.60
     Davidson diagonalization with overlap
     ethr =  1.76E-12,  avg # of iterations =  2.7

     total cpu time spent up to now is     3592.4 secs

     total energy              =    -942.01771000 Ry
     Harris-Foulkes estimate   =    -942.01771000 Ry
     estimated scf accuracy    <          3.7E-10 Ry

     iteration # 19     ecut=    40.00 Ry     beta= 0.60
     Davidson diagonalization with overlap
     ethr =  3.62E-13,  avg # of iterations =  3.9

     total cpu time spent up to now is     3630.0 secs

     total energy              =    -942.01771000 Ry
     Harris-Foulkes estimate   =    -942.01771000 Ry
     estimated scf accuracy    <          1.2E-09 Ry

     iteration # 20     ecut=    40.00 Ry     beta= 0.60
     Davidson diagonalization with overlap
     ethr =  3.62E-13,  avg # of iterations =  3.3

     total cpu time spent up to now is     3666.7 secs

     End of self-consistent calculation

     Number of k-points >= 100: set verbosity='high' to print the bands.

     the Fermi energy is    17.5824 ev

!    total energy              =    -942.01771000 Ry
     Harris-Foulkes estimate   =    -942.01771000 Ry
     estimated scf accuracy    <          7.3E-12 Ry

     The total energy is the sum of the following terms:

     one-electron contribution =    -156.49938055 Ry
     hartree contribution      =     130.25387781 Ry
     xc contribution           =    -143.58849385 Ry
     ewald contribution        =    -772.18338657 Ry
     smearing contrib. (-TS)   =      -0.00032684 Ry

     convergence has been achieved in  20 iterations

     Forces acting on atoms (cartesian axes, Ry/au):

     atom    1 type  2   force =     0.00050951   -0.00029417    0.00000000
     atom    2 type  1   force =     0.00031372    0.00280414    0.00000000
     atom    3 type  1   force =    -0.00206174   -0.00226608    0.00000000
     atom    4 type  1   force =     0.00446502   -0.00257788    0.00000000
     atom    5 type  1   force =    -0.00033894    0.00019569    0.00000000
     atom    6 type  1   force =    -0.00227160   -0.00167376    0.00000000
     atom    7 type  1   force =     0.00093161    0.00291856    0.00000000
     atom    8 type  1   force =    -0.00154758    0.00089350    0.00000000

     Total force =     0.008060     Total SCF correction =     0.000006


     Computing stress (Cartesian axis) and pressure

          total   stress  (Ry/bohr**3)                   (kbar)     P=   28.31
   0.00005349   0.00000128   0.00000000          7.87      0.19      0.00
   0.00000128   0.00005496   0.00000000          0.19      8.09      0.00
   0.00000000   0.00000000   0.00046889          0.00      0.00     68.98


     number of scf cycles    =   4
     number of bfgs steps    =   3

     enthalpy old            =    -942.0124044559 Ry
     enthalpy new            =    -942.0177099983 Ry

     CASE: enthalpy_new < enthalpy_old

     new trust radius        =       0.1077635213 bohr
     new conv_thr            =            1.0E-10 Ry

     new unit-cell volume =    976.12722 a.u.^3 (   144.64713 Ang^3 )
     density =      8.01542 g/cm^3

CELL_PARAMETERS (alat=  1.88972599)
   0.000000000   0.000000000  -5.070729588
  -4.305779631   2.485943221   0.000000000
   2.868720702   4.968770394   0.000000000

ATOMIC_POSITIONS (angstrom)
Ti      -2.869719075   4.969346805  -5.070729588
Nb      -2.870776361   3.326155677  -2.535364794
Nb      -0.010789558   4.963984064  -5.070729588
Nb       0.012102839   3.305526019  -2.535364794
Nb      -1.431666000   7.451600007  -5.070729588
Nb      -1.447202570   5.791858006  -2.535364794
Nb      -1.435610047   2.496122392  -5.070729588
Nb       1.433111993   5.797619533  -2.535364794


     NEW-OLD atomic charge density approx. for the potential

     Check: negative/imaginary core charge=   -0.000001    0.000000
     extrapolated charge  103.01969, renormalised to  103.00000

     total cpu time spent up to now is     3698.6 secs

     Self-consistent Calculation

     iteration #  1     ecut=    40.00 Ry     beta= 0.60
     Davidson diagonalization with overlap
     c_bands:  1 eigenvalues not converged
     c_bands:  1 eigenvalues not converged
     c_bands:  1 eigenvalues not converged
     c_bands:  1 eigenvalues not converged
     c_bands:  1 eigenvalues not converged
     c_bands:  1 eigenvalues not converged
     c_bands:  1 eigenvalues not converged
     ethr =  1.00E-06,  avg # of iterations = 10.3

     total cpu time spent up to now is     3782.6 secs

     total energy              =    -942.02280019 Ry
     Harris-Foulkes estimate   =    -942.00253382 Ry
     estimated scf accuracy    <       0.00162170 Ry

     iteration #  2     ecut=    40.00 Ry     beta= 0.60
     Davidson diagonalization with overlap
     ethr =  1.57E-06,  avg # of iterations =  5.3

     total cpu time spent up to now is     3832.2 secs

     total energy              =    -942.02048696 Ry
     Harris-Foulkes estimate   =    -942.02593967 Ry
     estimated scf accuracy    <       0.03568609 Ry

     iteration #  3     ecut=    40.00 Ry     beta= 0.60
     Davidson diagonalization with overlap
     ethr =  1.57E-06,  avg # of iterations =  5.2

     total cpu time spent up to now is     3882.0 secs

     total energy              =    -942.02320186 Ry
     Harris-Foulkes estimate   =    -942.02352313 Ry
     estimated scf accuracy    <       0.00136562 Ry

     iteration #  4     ecut=    40.00 Ry     beta= 0.60
     Davidson diagonalization with overlap
     ethr =  1.33E-06,  avg # of iterations =  4.5

     total cpu time spent up to now is     3921.3 secs

     total energy              =    -942.02309159 Ry
     Harris-Foulkes estimate   =    -942.02381330 Ry
     estimated scf accuracy    <       0.00476347 Ry

     iteration #  5     ecut=    40.00 Ry     beta= 0.60
     Davidson diagonalization with overlap
     ethr =  1.33E-06,  avg # of iterations =  3.5

     total cpu time spent up to now is     3954.9 secs

     total energy              =    -942.02342700 Ry
     Harris-Foulkes estimate   =    -942.02343665 Ry
     estimated scf accuracy    <       0.00002874 Ry

     iteration #  6     ecut=    40.00 Ry     beta= 0.60
     Davidson diagonalization with overlap
     ethr =  2.79E-08,  avg # of iterations =  4.0

     total cpu time spent up to now is     3993.9 secs

     total energy              =    -942.02343428 Ry
     Harris-Foulkes estimate   =    -942.02344158 Ry
     estimated scf accuracy    <       0.00003758 Ry

     iteration #  7     ecut=    40.00 Ry     beta= 0.60
     Davidson diagonalization with overlap
     ethr =  2.79E-08,  avg # of iterations =  2.9

     total cpu time spent up to now is     4024.9 secs

     total energy              =    -942.02343692 Ry
     Harris-Foulkes estimate   =    -942.02343901 Ry
     estimated scf accuracy    <       0.00000793 Ry

     iteration #  8     ecut=    40.00 Ry     beta= 0.60
     Davidson diagonalization with overlap
     ethr =  7.70E-09,  avg # of iterations =  3.0

     total cpu time spent up to now is     4057.3 secs

     total energy              =    -942.02343793 Ry
     Harris-Foulkes estimate   =    -942.02343877 Ry
     estimated scf accuracy    <       0.00000433 Ry

     iteration #  9     ecut=    40.00 Ry     beta= 0.60
     Davidson diagonalization with overlap
     ethr =  4.21E-09,  avg # of iterations =  2.0

     total cpu time spent up to now is     4084.4 secs

     total energy              =    -942.02343828 Ry
     Harris-Foulkes estimate   =    -942.02343831 Ry
     estimated scf accuracy    <       0.00000019 Ry

     iteration # 10     ecut=    40.00 Ry     beta= 0.60
     Davidson diagonalization with overlap
     ethr =  1.88E-10,  avg # of iterations =  4.0

     total cpu time spent up to now is     4124.7 secs

     total energy              =    -942.02343833 Ry
     Harris-Foulkes estimate   =    -942.02343837 Ry
     estimated scf accuracy    <       0.00000016 Ry

     iteration # 11     ecut=    40.00 Ry     beta= 0.60
     Davidson diagonalization with overlap
     ethr =  1.58E-10,  avg # of iterations =  2.1

     total cpu time spent up to now is     4153.0 secs

     total energy              =    -942.02343835 Ry
     Harris-Foulkes estimate   =    -942.02343835 Ry
     estimated scf accuracy    <       0.00000003 Ry

     iteration # 12     ecut=    40.00 Ry     beta= 0.60
     Davidson diagonalization with overlap
     ethr =  2.66E-11,  avg # of iterations =  2.5

     total cpu time spent up to now is     4182.9 secs

     total energy              =    -942.02343835 Ry
     Harris-Foulkes estimate   =    -942.02343835 Ry
     estimated scf accuracy    <          3.1E-09 Ry

     iteration # 13     ecut=    40.00 Ry     beta= 0.60
     Davidson diagonalization with overlap
     ethr =  2.99E-12,  avg # of iterations =  3.6

     total cpu time spent up to now is     4217.8 secs

     total energy              =    -942.02343835 Ry
     Harris-Foulkes estimate   =    -942.02343835 Ry
     estimated scf accuracy    <          5.3E-10 Ry

     iteration # 14     ecut=    40.00 Ry     beta= 0.60
     Davidson diagonalization with overlap
     ethr =  5.14E-13,  avg # of iterations =  3.8

     total cpu time spent up to now is     4253.7 secs

     total energy              =    -942.02343835 Ry
     Harris-Foulkes estimate   =    -942.02343835 Ry
     estimated scf accuracy    <          2.1E-09 Ry

     iteration # 15     ecut=    40.00 Ry     beta= 0.60
     Davidson diagonalization with overlap
     ethr =  5.14E-13,  avg # of iterations =  3.4

     total cpu time spent up to now is     4286.7 secs

     End of self-consistent calculation

     Number of k-points >= 100: set verbosity='high' to print the bands.

     the Fermi energy is    17.5645 ev

!    total energy              =    -942.02343835 Ry
     Harris-Foulkes estimate   =    -942.02343835 Ry
     estimated scf accuracy    <          9.8E-11 Ry

     The total energy is the sum of the following terms:

     one-electron contribution =    -157.35189835 Ry
     hartree contribution      =     130.66948366 Ry
     xc contribution           =    -143.60765053 Ry
     ewald contribution        =    -771.73287674 Ry
     smearing contrib. (-TS)   =      -0.00049638 Ry

     convergence has been achieved in  15 iterations

     Forces acting on atoms (cartesian axes, Ry/au):

     atom    1 type  2   force =     0.00062797   -0.00036256    0.00000000
     atom    2 type  1   force =     0.00044772   -0.00059970    0.00000000
     atom    3 type  1   force =    -0.00111852   -0.00241417    0.00000000
     atom    4 type  1   force =     0.00252382   -0.00145713    0.00000000
     atom    5 type  1   force =    -0.00197006    0.00113742    0.00000000
     atom    6 type  1   force =     0.00074321   -0.00008789    0.00000000
     atom    7 type  1   force =     0.00153147    0.00217575    0.00000000
     atom    8 type  1   force =    -0.00278561    0.00160827    0.00000000

     Total force =     0.006310     Total SCF correction =     0.000036


     Computing stress (Cartesian axis) and pressure

          total   stress  (Ry/bohr**3)                   (kbar)     P=   27.47
   0.00010193   0.00000386   0.00000000         14.99      0.57      0.00
   0.00000386   0.00010638   0.00000000          0.57     15.65      0.00
   0.00000000   0.00000000   0.00035184          0.00      0.00     51.76


     number of scf cycles    =   5
     number of bfgs steps    =   4

     enthalpy old            =    -942.0177099983 Ry
     enthalpy new            =    -942.0234383492 Ry

     CASE: enthalpy_new < enthalpy_old

     new trust radius        =       0.1589198889 bohr
     new conv_thr            =            1.0E-10 Ry

     new unit-cell volume =    986.50453 a.u.^3 (   146.18489 Ang^3 )
     density =      7.93110 g/cm^3

CELL_PARAMETERS (alat=  1.88972599)
   0.000000000   0.000000000  -5.199692699
  -4.273918783   2.467548353   0.000000000
   2.848388580   4.933554127   0.000000000

ATOMIC_POSITIONS (angstrom)
Ti      -2.846962905   4.932731013  -5.199692699
Nb      -2.848798403   3.304976866  -2.599846350
Nb      -0.013743433   4.924329857  -5.199692699
Nb       0.018849143   3.278153528  -2.599846350
Nb      -1.420787886   7.398364503  -5.199692699
Nb      -1.438204323   5.748197676  -2.599846350
Nb      -1.423077554   2.483291360  -5.199692699
Nb       1.420440453   5.757980428  -2.599846350


     NEW-OLD atomic charge density approx. for the potential
     extrapolated charge  104.07276, renormalised to  103.00000

     total cpu time spent up to now is     4306.4 secs

     Self-consistent Calculation

     iteration #  1     ecut=    40.00 Ry     beta= 0.60
     Davidson diagonalization with overlap
     c_bands:  1 eigenvalues not converged
     c_bands:  1 eigenvalues not converged
     ethr =  1.00E-06,  avg # of iterations = 11.0

     total cpu time spent up to now is     4393.4 secs

     total energy              =    -941.99224517 Ry
     Harris-Foulkes estimate   =    -940.83565351 Ry
     estimated scf accuracy    <       0.02691729 Ry

     iteration #  2     ecut=    40.00 Ry     beta= 0.60
     Davidson diagonalization with overlap
     ethr =  2.61E-05,  avg # of iterations =  6.1

     total cpu time spent up to now is     4454.4 secs

     total energy              =    -941.96866335 Ry
     Harris-Foulkes estimate   =    -942.08884599 Ry
     estimated scf accuracy    <       1.02228662 Ry

     iteration #  3     ecut=    40.00 Ry     beta= 0.60
     Davidson diagonalization with overlap
     ethr =  2.61E-05,  avg # of iterations =  5.3

     total cpu time spent up to now is     4504.7 secs

     total energy              =    -942.02187043 Ry
     Harris-Foulkes estimate   =    -942.03688098 Ry
     estimated scf accuracy    <       0.05221011 Ry

     iteration #  4     ecut=    40.00 Ry     beta= 0.60
     Davidson diagonalization with overlap
     ethr =  2.61E-05,  avg # of iterations =  4.3

     total cpu time spent up to now is     4542.9 secs

     total energy              =    -942.02570702 Ry
     Harris-Foulkes estimate   =    -942.03343550 Ry
     estimated scf accuracy    <       0.05801495 Ry

     iteration #  5     ecut=    40.00 Ry     beta= 0.60
     Davidson diagonalization with overlap
     ethr =  2.61E-05,  avg # of iterations =  2.4

     total cpu time spent up to now is     4571.0 secs

     total energy              =    -942.02807689 Ry
     Harris-Foulkes estimate   =    -942.02883238 Ry
     estimated scf accuracy    <       0.00936074 Ry

     iteration #  6     ecut=    40.00 Ry     beta= 0.60
     Davidson diagonalization with overlap
     ethr =  9.09E-06,  avg # of iterations =  2.8

     total cpu time spent up to now is     4603.3 secs

     total energy              =    -942.02710077 Ry
     Harris-Foulkes estimate   =    -942.02851959 Ry
     estimated scf accuracy    <       0.00753697 Ry

     iteration #  7     ecut=    40.00 Ry     beta= 0.60
     Davidson diagonalization with overlap
     ethr =  7.32E-06,  avg # of iterations =  1.3

     total cpu time spent up to now is     4629.0 secs

     total energy              =    -942.02706547 Ry
     Harris-Foulkes estimate   =    -942.02743737 Ry
     estimated scf accuracy    <       0.00263521 Ry

     iteration #  8     ecut=    40.00 Ry     beta= 0.60
     Davidson diagonalization with overlap
     ethr =  2.56E-06,  avg # of iterations =  4.3

     total cpu time spent up to now is     4664.1 secs

     total energy              =    -942.02721229 Ry
     Harris-Foulkes estimate   =    -942.02730219 Ry
     estimated scf accuracy    <       0.00091735 Ry

     iteration #  9     ecut=    40.00 Ry     beta= 0.60
     Davidson diagonalization with overlap
     ethr =  8.91E-07,  avg # of iterations =  1.3

     total cpu time spent up to now is     4691.8 secs

     total energy              =    -942.02722438 Ry
     Harris-Foulkes estimate   =    -942.02724565 Ry
     estimated scf accuracy    <       0.00038029 Ry

     iteration # 10     ecut=    40.00 Ry     beta= 0.60
     Davidson diagonalization with overlap
     ethr =  3.69E-07,  avg # of iterations =  2.3

     total cpu time spent up to now is     4721.8 secs

     total energy              =    -942.02721331 Ry
     Harris-Foulkes estimate   =    -942.02723406 Ry
     estimated scf accuracy    <       0.00017369 Ry

     iteration # 11     ecut=    40.00 Ry     beta= 0.60
     Davidson diagonalization with overlap
     ethr =  1.69E-07,  avg # of iterations =  3.4

     total cpu time spent up to now is     4752.8 secs

     total energy              =    -942.02722350 Ry
     Harris-Foulkes estimate   =    -942.02722569 Ry
     estimated scf accuracy    <       0.00001279 Ry

     iteration # 12     ecut=    40.00 Ry     beta= 0.60
     Davidson diagonalization with overlap
     ethr =  1.24E-08,  avg # of iterations =  4.0

     total cpu time spent up to now is     4790.8 secs

     total energy              =    -942.02722715 Ry
     Harris-Foulkes estimate   =    -942.02722786 Ry
     estimated scf accuracy    <       0.00000484 Ry

     iteration # 13     ecut=    40.00 Ry     beta= 0.60
     Davidson diagonalization with overlap
     ethr =  4.70E-09,  avg # of iterations =  1.4

     total cpu time spent up to now is     4816.3 secs

     total energy              =    -942.02722720 Ry
     Harris-Foulkes estimate   =    -942.02722742 Ry
     estimated scf accuracy    <       0.00000115 Ry

     iteration # 14     ecut=    40.00 Ry     beta= 0.60
     Davidson diagonalization with overlap
     ethr =  1.12E-09,  avg # of iterations =  3.1

     total cpu time spent up to now is     4852.8 secs

     total energy              =    -942.02722736 Ry
     Harris-Foulkes estimate   =    -942.02722740 Ry
     estimated scf accuracy    <       0.00000026 Ry

     iteration # 15     ecut=    40.00 Ry     beta= 0.60
     Davidson diagonalization with overlap
     ethr =  2.51E-10,  avg # of iterations =  1.4

     total cpu time spent up to now is     4878.7 secs

     total energy              =    -942.02722737 Ry
     Harris-Foulkes estimate   =    -942.02722738 Ry
     estimated scf accuracy    <       0.00000005 Ry

     iteration # 16     ecut=    40.00 Ry     beta= 0.60
     Davidson diagonalization with overlap
     ethr =  5.29E-11,  avg # of iterations =  3.0

     total cpu time spent up to now is     4911.2 secs

     total energy              =    -942.02722737 Ry
     Harris-Foulkes estimate   =    -942.02722738 Ry
     estimated scf accuracy    <       0.00000001 Ry

     iteration # 17     ecut=    40.00 Ry     beta= 0.60
     Davidson diagonalization with overlap
     ethr =  1.12E-11,  avg # of iterations =  3.2

     total cpu time spent up to now is     4947.2 secs

     total energy              =    -942.02722737 Ry
     Harris-Foulkes estimate   =    -942.02722738 Ry
     estimated scf accuracy    <       0.00000001 Ry

     iteration # 18     ecut=    40.00 Ry     beta= 0.60
     Davidson diagonalization with overlap
     ethr =  1.12E-11,  avg # of iterations =  2.5

     total cpu time spent up to now is     4975.3 secs

     total energy              =    -942.02722737 Ry
     Harris-Foulkes estimate   =    -942.02722737 Ry
     estimated scf accuracy    <          1.3E-09 Ry

     iteration # 19     ecut=    40.00 Ry     beta= 0.60
     Davidson diagonalization with overlap
     ethr =  1.29E-12,  avg # of iterations =  3.2

     total cpu time spent up to now is     5008.3 secs

     total energy              =    -942.02722738 Ry
     Harris-Foulkes estimate   =    -942.02722738 Ry
     estimated scf accuracy    <          4.2E-10 Ry

     iteration # 20     ecut=    40.00 Ry     beta= 0.60
     Davidson diagonalization with overlap
     ethr =  4.11E-13,  avg # of iterations =  2.7

     total cpu time spent up to now is     5037.7 secs

     End of self-consistent calculation

     Number of k-points >= 100: set verbosity='high' to print the bands.

     the Fermi energy is    17.3397 ev

!    total energy              =    -942.02722738 Ry
     Harris-Foulkes estimate   =    -942.02722738 Ry
     estimated scf accuracy    <          4.7E-11 Ry

     The total energy is the sum of the following terms:

     one-electron contribution =    -162.70995307 Ry
     hartree contribution      =     132.47748908 Ry
     xc contribution           =    -143.55450027 Ry
     ewald contribution        =    -768.23939275 Ry
     smearing contrib. (-TS)   =      -0.00087037 Ry

     convergence has been achieved in  20 iterations

     Forces acting on atoms (cartesian axes, Ry/au):

     atom    1 type  2   force =     0.00069432   -0.00040087    0.00000000
     atom    2 type  1   force =     0.00026733   -0.00489917    0.00000000
     atom    3 type  1   force =     0.00037011   -0.00217738    0.00000000
     atom    4 type  1   force =    -0.00051503    0.00029735    0.00000000
     atom    5 type  1   force =    -0.00366694    0.00211711    0.00000000
     atom    6 type  1   force =     0.00437647    0.00221807    0.00000000
     atom    7 type  1   force =     0.00207072    0.00076817    0.00000000
     atom    8 type  1   force =    -0.00359698    0.00207671    0.00000000

     Total force =     0.009699     Total SCF correction =     0.000022


     Computing stress (Cartesian axis) and pressure

          total   stress  (Ry/bohr**3)                   (kbar)     P=   11.32
   0.00008509   0.00000514   0.00000000         12.52      0.76      0.00
   0.00000514   0.00009103   0.00000000          0.76     13.39      0.00
   0.00000000   0.00000000   0.00005480          0.00      0.00      8.06


     number of scf cycles    =   6
     number of bfgs steps    =   5

     enthalpy old            =    -942.0234383492 Ry
     enthalpy new            =    -942.0272273751 Ry

     CASE: enthalpy_new < enthalpy_old

     new trust radius        =       0.0199122870 bohr
     new conv_thr            =            1.0E-10 Ry

     new unit-cell volume =    992.75847 a.u.^3 (   147.11163 Ang^3 )
     density =      7.88114 g/cm^3

CELL_PARAMETERS (alat=  1.88972599)
   0.000000000   0.000000000  -5.200435660
  -4.286504318   2.474814615   0.000000000
   2.857621477   4.949545973   0.000000000

ATOMIC_POSITIONS (angstrom)
Ti      -2.854656117   4.947833922  -5.200435660
Nb      -2.856876339   3.312625348  -2.600217830
Nb      -0.012783600   4.939095005  -5.200435660
Nb       0.018762716   3.288864658  -2.600217830
Nb      -1.425828832   7.422597355  -5.200435660
Nb      -1.439634174   5.767360978  -2.600217830
Nb      -1.426151734   2.491069392  -5.200435660
Nb       1.423924821   5.777291188  -2.600217830


     NEW-OLD atomic charge density approx. for the potential

     Check: negative/imaginary core charge=   -0.000001    0.000000
     extrapolated charge  103.64243, renormalised to  103.00000

     total cpu time spent up to now is     5057.3 secs

     Self-consistent Calculation

     iteration #  1     ecut=    40.00 Ry     beta= 0.60
     Davidson diagonalization with overlap
     c_bands:  1 eigenvalues not converged
     ethr =  1.00E-06,  avg # of iterations =  5.5

     total cpu time spent up to now is     5116.7 secs

     total energy              =    -942.01214397 Ry
     Harris-Foulkes estimate   =    -941.30586843 Ry
     estimated scf accuracy    <       0.01290717 Ry

     iteration #  2     ecut=    40.00 Ry     beta= 0.60
     Davidson diagonalization with overlap
     ethr =  1.25E-05,  avg # of iterations =  6.9

     total cpu time spent up to now is     5179.2 secs

     total energy              =    -941.99411734 Ry
     Harris-Foulkes estimate   =    -942.06215645 Ry
     estimated scf accuracy    <       0.60440384 Ry

     iteration #  3     ecut=    40.00 Ry     beta= 0.60
     Davidson diagonalization with overlap
     ethr =  1.25E-05,  avg # of iterations =  5.2

     total cpu time spent up to now is     5229.9 secs

     total energy              =    -942.02636866 Ry
     Harris-Foulkes estimate   =    -942.03094149 Ry
     estimated scf accuracy    <       0.01374646 Ry

     iteration #  4     ecut=    40.00 Ry     beta= 0.60
     Davidson diagonalization with overlap
     ethr =  1.25E-05,  avg # of iterations =  3.2

     total cpu time spent up to now is     5262.1 secs

     total energy              =    -942.02728806 Ry
     Harris-Foulkes estimate   =    -942.02935048 Ry
     estimated scf accuracy    <       0.01447281 Ry

     iteration #  5     ecut=    40.00 Ry     beta= 0.60
     Davidson diagonalization with overlap
     ethr =  1.25E-05,  avg # of iterations =  1.3

     total cpu time spent up to now is     5287.7 secs

     total energy              =    -942.02798874 Ry
     Harris-Foulkes estimate   =    -942.02814127 Ry
     estimated scf accuracy    <       0.00292897 Ry

     iteration #  6     ecut=    40.00 Ry     beta= 0.60
     Davidson diagonalization with overlap
     ethr =  2.84E-06,  avg # of iterations =  2.5

     total cpu time spent up to now is     5315.6 secs

     total energy              =    -942.02784372 Ry
     Harris-Foulkes estimate   =    -942.02808289 Ry
     estimated scf accuracy    <       0.00241146 Ry

     iteration #  7     ecut=    40.00 Ry     beta= 0.60
     Davidson diagonalization with overlap
     ethr =  2.34E-06,  avg # of iterations =  1.0

     total cpu time spent up to now is     5340.5 secs

     total energy              =    -942.02763239 Ry
     Harris-Foulkes estimate   =    -942.02788025 Ry
     estimated scf accuracy    <       0.00162810 Ry

     iteration #  8     ecut=    40.00 Ry     beta= 0.60
     Davidson diagonalization with overlap
     ethr =  1.58E-06,  avg # of iterations =  1.0

     total cpu time spent up to now is     5370.3 secs

     total energy              =    -942.02760614 Ry
     Harris-Foulkes estimate   =    -942.02767751 Ry
     estimated scf accuracy    <       0.00071955 Ry

     iteration #  9     ecut=    40.00 Ry     beta= 0.60
     Davidson diagonalization with overlap
     ethr =  6.99E-07,  avg # of iterations =  1.9

     total cpu time spent up to now is     5396.8 secs

     total energy              =    -942.02757899 Ry
     Harris-Foulkes estimate   =    -942.02762523 Ry
     estimated scf accuracy    <       0.00034907 Ry

     iteration # 10     ecut=    40.00 Ry     beta= 0.60
     Davidson diagonalization with overlap
     ethr =  3.39E-07,  avg # of iterations =  2.9

     total cpu time spent up to now is     5425.7 secs

     total energy              =    -942.02758849 Ry
     Harris-Foulkes estimate   =    -942.02759609 Ry
     estimated scf accuracy    <       0.00007127 Ry

     iteration # 11     ecut=    40.00 Ry     beta= 0.60
     Davidson diagonalization with overlap
     ethr =  6.92E-08,  avg # of iterations =  3.5

     total cpu time spent up to now is     5458.5 secs

     total energy              =    -942.02759485 Ry
     Harris-Foulkes estimate   =    -942.02759667 Ry
     estimated scf accuracy    <       0.00000885 Ry

     iteration # 12     ecut=    40.00 Ry     beta= 0.60
     Davidson diagonalization with overlap
     ethr =  8.59E-09,  avg # of iterations =  3.8

     total cpu time spent up to now is     5492.3 secs

     total energy              =    -942.02759621 Ry
     Harris-Foulkes estimate   =    -942.02759625 Ry
     estimated scf accuracy    <       0.00000037 Ry

     iteration # 13     ecut=    40.00 Ry     beta= 0.60
     Davidson diagonalization with overlap
     ethr =  3.59E-10,  avg # of iterations =  3.5

     total cpu time spent up to now is     5528.3 secs

     total energy              =    -942.02759628 Ry
     Harris-Foulkes estimate   =    -942.02759629 Ry
     estimated scf accuracy    <       0.00000017 Ry

     iteration # 14     ecut=    40.00 Ry     beta= 0.60
     Davidson diagonalization with overlap
     ethr =  1.62E-10,  avg # of iterations =  1.1

     total cpu time spent up to now is     5553.5 secs

     total energy              =    -942.02759628 Ry
     Harris-Foulkes estimate   =    -942.02759628 Ry
     estimated scf accuracy    <       0.00000011 Ry

     iteration # 15     ecut=    40.00 Ry     beta= 0.60
     Davidson diagonalization with overlap
     ethr =  1.10E-10,  avg # of iterations =  1.4

     total cpu time spent up to now is     5579.3 secs

     total energy              =    -942.02759627 Ry
     Harris-Foulkes estimate   =    -942.02759628 Ry
     estimated scf accuracy    <       0.00000005 Ry

     iteration # 16     ecut=    40.00 Ry     beta= 0.60
     Davidson diagonalization with overlap
     ethr =  4.74E-11,  avg # of iterations =  3.1

     total cpu time spent up to now is     5608.7 secs

     total energy              =    -942.02759627 Ry
[...]
   0.00000287   0.00000459   0.00000000          0.42      0.68      0.00
   0.00000459   0.00000817   0.00000000          0.68      1.20      0.00
   0.00000000   0.00000000  -0.00001234          0.00      0.00     -1.82


     number of scf cycles    =  48
     number of bfgs steps    =  42

     enthalpy old            =    -942.1708536462 Ry
     enthalpy new            =    -942.1709775439 Ry

     CASE: enthalpy_new < enthalpy_old

     new trust radius        =       0.0165024042 bohr
     new conv_thr            =            1.0E-10 Ry

     new unit-cell volume =    968.68249 a.u.^3 (   143.54393 Ang^3 )
     density =      8.07702 g/cm^3

CELL_PARAMETERS (alat=  1.88972599)
   0.000000000   0.000000000  -4.671986147
  -4.043940090   2.334770104   0.000000000
   3.289874199   5.698229606   0.000000000

ATOMIC_POSITIONS (angstrom)
Ti      -2.062543065   4.989629694  -4.671986147
Nb      -2.892261564   3.553811429  -2.335993074
Nb       0.787450111   5.254619741  -4.671986147
Nb      -0.041422121   3.822734805  -2.335993074
Nb      -0.414012870   7.836670023  -4.671986147
Nb      -1.233947350   6.426096068  -2.335993074
Nb      -0.867034605   2.388967984  -4.671986147
Nb       1.605467374   6.670722392  -2.335993074


     NEW-OLD atomic charge density approx. for the potential
     extrapolated charge  102.98782, renormalised to  103.00000

     total cpu time spent up to now is    32742.6 secs

     Self-consistent Calculation

     iteration #  1     ecut=    40.00 Ry     beta= 0.60
     Davidson diagonalization with overlap
     ethr =  1.00E-06,  avg # of iterations =  4.0

     total cpu time spent up to now is    32798.5 secs

     total energy              =    -942.17091174 Ry
     Harris-Foulkes estimate   =    -942.18383618 Ry
     estimated scf accuracy    <       0.00022637 Ry

     iteration #  2     ecut=    40.00 Ry     beta= 0.60
     Davidson diagonalization with overlap
     ethr =  2.20E-07,  avg # of iterations =  4.9

     total cpu time spent up to now is    32845.1 secs

     total energy              =    -942.17062069 Ry
     Harris-Foulkes estimate   =    -942.17131705 Ry
     estimated scf accuracy    <       0.00439912 Ry

     iteration #  3     ecut=    40.00 Ry     beta= 0.60
     Davidson diagonalization with overlap
     ethr =  2.20E-07,  avg # of iterations =  4.6

     total cpu time spent up to now is    32888.2 secs

     total energy              =    -942.17096120 Ry
     Harris-Foulkes estimate   =    -942.17108678 Ry
     estimated scf accuracy    <       0.00082077 Ry

     iteration #  4     ecut=    40.00 Ry     beta= 0.60
     Davidson diagonalization with overlap
     ethr =  2.20E-07,  avg # of iterations =  3.7

     total cpu time spent up to now is    32923.2 secs

     total energy              =    -942.17101223 Ry
     Harris-Foulkes estimate   =    -942.17103396 Ry
     estimated scf accuracy    <       0.00010143 Ry

     iteration #  5     ecut=    40.00 Ry     beta= 0.60
     Davidson diagonalization with overlap
     ethr =  9.85E-08,  avg # of iterations =  2.6

     total cpu time spent up to now is    32952.2 secs

     total energy              =    -942.17102363 Ry
     Harris-Foulkes estimate   =    -942.17102596 Ry
     estimated scf accuracy    <       0.00000968 Ry

     iteration #  6     ecut=    40.00 Ry     beta= 0.60
     Davidson diagonalization with overlap
     ethr =  9.39E-09,  avg # of iterations =  2.9

     total cpu time spent up to now is    32984.5 secs

     total energy              =    -942.17102478 Ry
     Harris-Foulkes estimate   =    -942.17102575 Ry
     estimated scf accuracy    <       0.00000284 Ry

     iteration #  7     ecut=    40.00 Ry     beta= 0.60
     Davidson diagonalization with overlap
     ethr =  2.76E-09,  avg # of iterations =  3.5

     total cpu time spent up to now is    33019.5 secs

     total energy              =    -942.17102505 Ry
     Harris-Foulkes estimate   =    -942.17102599 Ry
     estimated scf accuracy    <       0.00000549 Ry

     iteration #  8     ecut=    40.00 Ry     beta= 0.60
     Davidson diagonalization with overlap
     ethr =  2.76E-09,  avg # of iterations =  2.9

     total cpu time spent up to now is    33049.8 secs

     total energy              =    -942.17102547 Ry
     Harris-Foulkes estimate   =    -942.17102552 Ry
     estimated scf accuracy    <       0.00000015 Ry

     iteration #  9     ecut=    40.00 Ry     beta= 0.60
     Davidson diagonalization with overlap
     ethr =  1.49E-10,  avg # of iterations =  4.0

     total cpu time spent up to now is    33087.9 secs

     total energy              =    -942.17102551 Ry
     Harris-Foulkes estimate   =    -942.17102553 Ry
     estimated scf accuracy    <       0.00000008 Ry

     iteration # 10     ecut=    40.00 Ry     beta= 0.60
     Davidson diagonalization with overlap
     ethr =  7.67E-11,  avg # of iterations =  3.0

     total cpu time spent up to now is    33120.2 secs

     total energy              =    -942.17102552 Ry
     Harris-Foulkes estimate   =    -942.17102552 Ry
     estimated scf accuracy    <          7.2E-09 Ry

     iteration # 11     ecut=    40.00 Ry     beta= 0.60
     Davidson diagonalization with overlap
     ethr =  6.99E-12,  avg # of iterations =  3.8

     total cpu time spent up to now is    33157.5 secs

     total energy              =    -942.17102552 Ry
     Harris-Foulkes estimate   =    -942.17102553 Ry
     estimated scf accuracy    <       0.00000002 Ry

     iteration # 12     ecut=    40.00 Ry     beta= 0.60
     Davidson diagonalization with overlap
     ethr =  6.99E-12,  avg # of iterations =  3.0

     total cpu time spent up to now is    33190.3 secs

     total energy              =    -942.17102552 Ry
     Harris-Foulkes estimate   =    -942.17102552 Ry
     estimated scf accuracy    <          1.8E-10 Ry

     iteration # 13     ecut=    40.00 Ry     beta= 0.60
     Davidson diagonalization with overlap
     ethr =  1.71E-13,  avg # of iterations =  4.1

     total cpu time spent up to now is    33228.9 secs

     total energy              =    -942.17102552 Ry
     Harris-Foulkes estimate   =    -942.17102552 Ry
     estimated scf accuracy    <          3.2E-10 Ry

     iteration # 14     ecut=    40.00 Ry     beta= 0.60
     Davidson diagonalization with overlap
     ethr =  1.71E-13,  avg # of iterations =  3.1

     total cpu time spent up to now is    33258.3 secs

     End of self-consistent calculation

     Number of k-points >= 100: set verbosity='high' to print the bands.

     the Fermi energy is    17.3861 ev

!    total energy              =    -942.17102552 Ry
     Harris-Foulkes estimate   =    -942.17102552 Ry
     estimated scf accuracy    <          1.4E-11 Ry

     The total energy is the sum of the following terms:

     one-electron contribution =    -153.29728057 Ry
     hartree contribution      =     129.12593419 Ry
     xc contribution           =    -143.62922892 Ry
     ewald contribution        =    -774.37014854 Ry
     smearing contrib. (-TS)   =      -0.00030169 Ry

     convergence has been achieved in  14 iterations

     Forces acting on atoms (cartesian axes, Ry/au):

     atom    1 type  2   force =    -0.00002431    0.00001404    0.00000000
     atom    2 type  1   force =     0.00067919    0.00034832    0.00000000
     atom    3 type  1   force =     0.00037034    0.00027342    0.00000000
     atom    4 type  1   force =    -0.00003860    0.00002229    0.00000000
     atom    5 type  1   force =    -0.00086990    0.00050223    0.00000000
     atom    6 type  1   force =     0.00003794   -0.00076236    0.00000000
     atom    7 type  1   force =    -0.00005161   -0.00045744    0.00000000
     atom    8 type  1   force =    -0.00010304    0.00005949    0.00000000

     Total force =     0.001617     Total SCF correction =     0.000020


     Computing stress (Cartesian axis) and pressure

          total   stress  (Ry/bohr**3)                   (kbar)     P=    0.04
   0.00000178   0.00000289   0.00000000          0.26      0.43      0.00
   0.00000289   0.00000512   0.00000000          0.43      0.75      0.00
   0.00000000   0.00000000  -0.00000611          0.00      0.00     -0.90


     number of scf cycles    =  49
     number of bfgs steps    =  43

     enthalpy old            =    -942.1709775439 Ry
     enthalpy new            =    -942.1710255238 Ry

     CASE: enthalpy_new < enthalpy_old

     new trust radius        =       0.0017649362 bohr
     new conv_thr            =            8.7E-11 Ry

     new unit-cell volume =    968.64917 a.u.^3 (   143.53900 Ang^3 )
     density =      8.07730 g/cm^3

CELL_PARAMETERS (alat=  1.88972599)
   0.000000000   0.000000000  -4.670661471
  -4.044155829   2.334894661   0.000000000
   3.290518514   5.699345592   0.000000000

ATOMIC_POSITIONS (angstrom)
Ti      -2.062000576   4.990060479  -4.670661471
Nb      -2.891893064   3.554337228  -2.335330735
Nb       0.787606438   5.255655470  -4.670661471
Nb      -0.040964020   3.823214311  -2.335330735
Nb      -0.414091177   7.838203215  -4.670661471
Nb      -1.233574141   6.426630024  -2.335330735
Nb      -0.867209093   2.389430723  -4.670661471
Nb       1.605892510   6.671964921  -2.335330735


     NEW-OLD atomic charge density approx. for the potential
     extrapolated charge  102.99649, renormalised to  103.00000

     total cpu time spent up to now is    33278.4 secs

     Self-consistent Calculation

     iteration #  1     ecut=    40.00 Ry     beta= 0.60
     Davidson diagonalization with overlap
     ethr =  1.00E-06,  avg # of iterations =  3.0

     Threshold (ethr) on eigenvalues was too large:
     Diagonalizing with lowered threshold

     Davidson diagonalization with overlap
     ethr =  2.62E-09,  avg # of iterations =  3.3

     total cpu time spent up to now is    33355.6 secs

     total energy              =    -942.17102795 Ry
     Harris-Foulkes estimate   =    -942.17470857 Ry
     estimated scf accuracy    <       0.00000311 Ry

     iteration #  2     ecut=    40.00 Ry     beta= 0.60
     Davidson diagonalization with overlap
     ethr =  3.02E-09,  avg # of iterations =  4.7

     total cpu time spent up to now is    33402.7 secs

     total energy              =    -942.17102034 Ry
     Harris-Foulkes estimate   =    -942.17104013 Ry
     estimated scf accuracy    <       0.00016736 Ry

     iteration #  3     ecut=    40.00 Ry     beta= 0.60
     Davidson diagonalization with overlap
     ethr =  3.02E-09,  avg # of iterations =  4.4

     total cpu time spent up to now is    33444.5 secs

     total energy              =    -942.17102987 Ry
     Harris-Foulkes estimate   =    -942.17103034 Ry
     estimated scf accuracy    <       0.00000143 Ry

     iteration #  4     ecut=    40.00 Ry     beta= 0.60
     Davidson diagonalization with overlap
     ethr =  1.39E-09,  avg # of iterations =  3.0

     total cpu time spent up to now is    33477.4 secs

     total energy              =    -942.17102996 Ry
     Harris-Foulkes estimate   =    -942.17103029 Ry
     estimated scf accuracy    <       0.00000175 Ry

     iteration #  5     ecut=    40.00 Ry     beta= 0.60
     Davidson diagonalization with overlap
     ethr =  1.39E-09,  avg # of iterations =  2.3

     total cpu time spent up to now is    33504.9 secs

     total energy              =    -942.17103009 Ry
     Harris-Foulkes estimate   =    -942.17103012 Ry
     estimated scf accuracy    <       0.00000006 Ry

     iteration #  6     ecut=    40.00 Ry     beta= 0.60
     Davidson diagonalization with overlap
     ethr =  5.50E-11,  avg # of iterations =  4.0

     total cpu time spent up to now is    33543.3 secs

     total energy              =    -942.17103010 Ry
     Harris-Foulkes estimate   =    -942.17103013 Ry
     estimated scf accuracy    <       0.00000009 Ry

     iteration #  7     ecut=    40.00 Ry     beta= 0.60
     Davidson diagonalization with overlap
     ethr =  5.50E-11,  avg # of iterations =  4.0

     total cpu time spent up to now is    33580.5 secs

     total energy              =    -942.17103011 Ry
     Harris-Foulkes estimate   =    -942.17103013 Ry
     estimated scf accuracy    <       0.00000010 Ry

     iteration #  8     ecut=    40.00 Ry     beta= 0.60
     Davidson diagonalization with overlap
     ethr =  5.50E-11,  avg # of iterations =  3.0

     total cpu time spent up to now is    33611.6 secs

     total energy              =    -942.17103012 Ry
     Harris-Foulkes estimate   =    -942.17103012 Ry
     estimated scf accuracy    <       0.00000002 Ry

     iteration #  9     ecut=    40.00 Ry     beta= 0.60
     Davidson diagonalization with overlap
     ethr =  2.13E-11,  avg # of iterations =  2.5

     total cpu time spent up to now is    33640.2 secs

     total energy              =    -942.17103012 Ry
     Harris-Foulkes estimate   =    -942.17103012 Ry
     estimated scf accuracy    <          3.3E-09 Ry

     iteration # 10     ecut=    40.00 Ry     beta= 0.60
     Davidson diagonalization with overlap
     ethr =  3.24E-12,  avg # of iterations =  3.5

     total cpu time spent up to now is    33674.4 secs

     total energy              =    -942.17103012 Ry
     Harris-Foulkes estimate   =    -942.17103012 Ry
     estimated scf accuracy    <          2.0E-09 Ry

     iteration # 11     ecut=    40.00 Ry     beta= 0.60
     Davidson diagonalization with overlap
     ethr =  1.97E-12,  avg # of iterations =  2.4

     total cpu time spent up to now is    33702.9 secs

     total energy              =    -942.17103012 Ry
     Harris-Foulkes estimate   =    -942.17103012 Ry
     estimated scf accuracy    <          9.7E-11 Ry

     iteration # 12     ecut=    40.00 Ry     beta= 0.60
     Davidson diagonalization with overlap
     ethr =  1.00E-13,  avg # of iterations =  4.0

     total cpu time spent up to now is    33740.3 secs

     total energy              =    -942.17103012 Ry
     Harris-Foulkes estimate   =    -942.17103012 Ry
     estimated scf accuracy    <          9.2E-11 Ry

     iteration # 13     ecut=    40.00 Ry     beta= 0.60
     Davidson diagonalization with overlap
     ethr =  1.00E-13,  avg # of iterations =  3.2

     total cpu time spent up to now is    33770.3 secs

     End of self-consistent calculation

     Number of k-points >= 100: set verbosity='high' to print the bands.

     the Fermi energy is    17.3868 ev

!    total energy              =    -942.17103012 Ry
     Harris-Foulkes estimate   =    -942.17103012 Ry
     estimated scf accuracy    <          8.7E-11 Ry

     The total energy is the sum of the following terms:

     one-electron contribution =    -153.28163448 Ry
     hartree contribution      =     129.12104323 Ry
     xc contribution           =    -143.62948971 Ry
     ewald contribution        =    -774.38065036 Ry
     smearing contrib. (-TS)   =      -0.00029881 Ry

     convergence has been achieved in  13 iterations

     Forces acting on atoms (cartesian axes, Ry/au):

     atom    1 type  2   force =    -0.00010101    0.00005832    0.00000000
     atom    2 type  1   force =     0.00054855    0.00027614    0.00000000
     atom    3 type  1   force =     0.00043024    0.00027088    0.00000000
     atom    4 type  1   force =    -0.00003835    0.00002214    0.00000000
     atom    5 type  1   force =    -0.00075895    0.00043818    0.00000000
     atom    6 type  1   force =     0.00003513   -0.00061313    0.00000000
     atom    7 type  1   force =    -0.00001947   -0.00050804    0.00000000
     atom    8 type  1   force =    -0.00009614    0.00005551    0.00000000

     Total force =     0.001438     Total SCF correction =     0.000051


     Computing stress (Cartesian axis) and pressure

          total   stress  (Ry/bohr**3)                   (kbar)     P=    0.08
   0.00000191   0.00000220   0.00000000          0.28      0.32      0.00
   0.00000220   0.00000446   0.00000000          0.32      0.66      0.00
   0.00000000   0.00000000  -0.00000465          0.00      0.00     -0.68


     number of scf cycles    =  50
     number of bfgs steps    =  44

     enthalpy old            =    -942.1710255238 Ry
     enthalpy new            =    -942.1710301211 Ry

     CASE: enthalpy_new < enthalpy_old

     new trust radius        =       0.0019419470 bohr
     new conv_thr            =            7.6E-11 Ry

     new unit-cell volume =    968.62918 a.u.^3 (   143.53603 Ang^3 )
     density =      8.07747 g/cm^3

CELL_PARAMETERS (alat=  1.88972599)
   0.000000000   0.000000000  -4.669204326
  -4.044438241   2.335057711   0.000000000
   3.291247652   5.700608496   0.000000000

ATOMIC_POSITIONS (angstrom)
Ti      -2.061665085   4.990708719  -4.669204326
Nb      -2.891430186   3.555094281  -2.334602163
Nb       0.788120302   5.256954099  -4.669204326
Nb      -0.040558674   3.823822221  -2.334602163
Nb      -0.414331957   7.840026102  -4.669204326
Nb      -1.233269190   6.427113538  -2.334602163
Nb      -0.867347669   2.389599293  -4.669204326
Nb       1.606388830   6.673362243  -2.334602163


     NEW-OLD atomic charge density approx. for the potential
     extrapolated charge  102.99790, renormalised to  103.00000
 
     init_run     :     16.48s CPU     16.90s WALL (       1 calls)
     electrons    :  31182.25s CPU  32729.54s WALL (      50 calls)
     update_pot   :     94.34s CPU     94.69s WALL (      50 calls)
     forces       :    225.23s CPU    231.26s WALL (      50 calls)
     stress       :    645.72s CPU    663.01s WALL (      50 calls)

     Called by init_run:
     wfcinit      :     14.50s CPU     14.78s WALL (       1 calls)
     potinit      :      0.79s CPU      0.82s WALL (       1 calls)
     hinit0       :      0.94s CPU      0.94s WALL (       1 calls)

     Called by electrons:
     c_bands      :  27437.60s CPU  28586.98s WALL (     856 calls)
     sum_band     :   3481.76s CPU   3618.66s WALL (     856 calls)
     v_of_rho     :     36.25s CPU     36.41s WALL (     896 calls)
     newd         :    234.18s CPU    331.69s WALL (     896 calls)
     mix_rho      :      5.00s CPU      5.02s WALL (     856 calls)

     Called by c_bands:
     init_us_2    :    319.87s CPU    321.83s WALL (  326340 calls)
     cegterg      :  25169.40s CPU  25475.83s WALL (  154080 calls)

     Called by sum_band:
     sum_band:bec :     11.46s CPU     11.62s WALL (  154080 calls)
     addusdens    :    246.90s CPU    331.27s WALL (     856 calls)

     Called by *egterg:
     h_psi        :  14309.59s CPU  14580.27s WALL (  694438 calls)
     s_psi        :   1060.40s CPU   1061.77s WALL (  694438 calls)
     g_psi        :    145.63s CPU    144.04s WALL (  540178 calls)
     cdiaghg      :   5457.53s CPU   5463.97s WALL (  683458 calls)

     Called by h_psi:
     h_psi:pot    :  14238.26s CPU  14508.75s WALL (  694438 calls)
     h_psi:calbec :   1176.20s CPU   1183.02s WALL (  694438 calls)
     vloc_psi     :  11984.36s CPU  12244.58s WALL (  694438 calls)
     add_vuspsi   :   1074.60s CPU   1077.11s WALL (  694438 calls)

     General routines
     calbec       :   1711.82s CPU   1720.05s WALL (  893518 calls)
     fft          :     27.85s CPU     28.39s WALL (   12910 calls)
     ffts         :      0.87s CPU      0.85s WALL (    1752 calls)
     fftw         :  12868.69s CPU  13116.07s WALL (59250794 calls)
     interpolate  :      2.09s CPU      2.11s WALL (     896 calls)
     davcio       :      0.00s CPU      0.10s WALL (     180 calls)
 
     Parallel routines
     fft_scatt_xy :   2057.70s CPU   2112.61s WALL (59265456 calls)
     fft_scatt_yz :   3232.15s CPU   3230.46s WALL (59265456 calls)
 
     PWSCF        :     8h56m CPU       56h 9m WALL

      23h
 
   This run was terminated on:  18:55: 8   5Feb2020            

=------------------------------------------------------------------------------=
   JOB DONE.
=------------------------------------------------------------------------------=
