
     Program PWSCF v.6.0 (svn rev. 13079) starts on 11Mar2018 at 10:47:50 

     This program is part of the open-source Quantum ESPRESSO suite
     for quantum simulation of materials; please cite
         "P. Giannozzi et al., J. Phys.:Condens. Matter 21 395502 (2009);
          URL http://www.quantum-espresso.org", 
     in publications or presentations arising from this work. More details at
     http://www.quantum-espresso.org/quote

     Parallel version (MPI), running on     4 processors
     R & G space division:  proc/nbgrp/npool/nimage =       4
     Waiting for input...
     Reading input from standard input

     Current dimensions of program PWSCF are:
     Max number of different atomic species (ntypx) = 10
     Max number of k-points (npk) =  40000
     Max angular momentum in pseudopotentials (lmaxx) =  3

     Subspace diagonalization in iterative solution of the eigenvalue problem:
     a serial algorithm will be used


     Parallelization info
     --------------------
     sticks:   dense  smooth     PW     G-vecs:    dense   smooth      PW
     Min         708     284     97                13657     3459     707
     Max         709     286     98                13658     3460     708
     Sum        2835    1139    389                54631    13839    2829



     bravais-lattice index     =            0
     lattice parameter (alat)  =       1.8897  a.u.
     unit-cell volume          =     538.8952 (a.u.)^3
     number of atoms/cell      =            4
     number of atomic types    =            2
     number of electrons       =        49.00
     number of Kohn-Sham states=           30
     kinetic-energy cutoff     =      33.0700  Ry
     charge density cutoff     =     330.7000  Ry
     convergence threshold     =      1.0E-10
     mixing beta               =       0.6000
     number of iterations used =            8  plain     mixing
     Exchange-correlation      = SLA  PW   PBE  PBE ( 1  4  3  4 0 0)
     nstep                     =           50


     celldm(1)=   1.889726  celldm(2)=   0.000000  celldm(3)=   0.000000
     celldm(4)=   0.000000  celldm(5)=   0.000000  celldm(6)=   0.000000

     crystal axes: (cart. coord. in units of alat)
               a(1) = (   1.522502  -2.637051  -4.972461 )  
               a(2) = (  -1.522502   2.637051  -4.972461 )  
               a(3) = (   3.045004   0.000000   4.972461 )  

     reciprocal axes: (cart. coord. in units 2 pi/alat)
               b(1) = (  0.164203 -0.094803 -0.100554 )  
               b(2) = (  0.164203  0.284409 -0.100554 )  
               b(3) = (  0.328407  0.189606  0.000000 )  


     PseudoPot. # 1 for Nb read from file:
     ./Nb.pbe-nsp-van.UPF
     MD5 check sum: 2636d8d3a061c4aefa0a317108b12435
     Pseudo is Ultrasoft + core correction, Zval = 13.0
     Generated by new atomic code, or converted to UPF format
     Using radial grid of  887 points,  6 beta functions with: 
                l(1) =   0
                l(2) =   0
                l(3) =   1
                l(4) =   1
                l(5) =   2
                l(6) =   2
     Q(r) pseudized with  6 coefficients,  rinner =    1.000   1.000   1.000
                                                       1.000   1.000

     PseudoPot. # 2 for Ti read from file:
     ./Ti.pbe-sp-van_ak.UPF
     MD5 check sum: 8e4df49b7f0d34bbd5052bf3f5ea0213
     Pseudo is Ultrasoft, Zval = 12.0
     Generated by new atomic code, or converted to UPF format
     Using radial grid of  851 points,  6 beta functions with: 
                l(1) =   0
                l(2) =   0
                l(3) =   1
                l(4) =   1
                l(5) =   2
                l(6) =   2
     Q(r) pseudized with  8 coefficients,  rinner =    1.000   1.000   1.000
                                                       1.000   1.000

     atomic species   valence    mass     pseudopotential
        Nb            13.00    92.90600     Nb( 1.00)
        Ti            12.00    47.86700     Ti( 1.00)

      4 Sym. Ops. (no inversion) found ( 2 have fractional translation)



   Cartesian axes

     site n.     atom                  positions (alat units)
         1           Ti  tau(   1) = (   3.0450042   0.0000000  -4.9724614  )
         2           Ti  tau(   2) = (   1.5225036   0.8790162  -2.4862307  )
         3           Ti  tau(   3) = (   3.0450042   0.0000000   0.0000000  )
         4           Nb  tau(   4) = (   3.0450058  -1.7580350  -2.4862307  )

     number of k points=   216  Marzari-Vanderbilt smearing, width (Ry)=  0.2000

     Number of k-points >= 100: set verbosity='high' to print them.

     Dense  grid:    54631 G-vectors     FFT dimensions: (  64,  64,  64)

     Smooth grid:    13839 G-vectors     FFT dimensions: (  45,  45,  45)

     Estimated max dynamical RAM per process >      55.54Mb

     Estimated total allocated dynamical RAM >     222.17Mb

     Check: negative/imaginary core charge=   -0.000001    0.000000

     Initial potential from superposition of free atoms

     starting charge   45.99713, renormalised to   49.00000
     Starting wfc are   43 randomized atomic wfcs

     total cpu time spent up to now is        9.1 secs

     per-process dynamical memory:    62.9 Mb

     Self-consistent Calculation

     iteration #  1     ecut=    33.07 Ry     beta=0.60
     Davidson diagonalization with overlap
     ethr =  1.00E-02,  avg # of iterations =  3.6

     total cpu time spent up to now is       32.4 secs

     total energy              =    -464.83868058 Ry
     Harris-Foulkes estimate   =    -469.33201011 Ry
     estimated scf accuracy    <       5.81032781 Ry

     iteration #  2     ecut=    33.07 Ry     beta=0.60
     Davidson diagonalization with overlap
     ethr =  1.00E-02,  avg # of iterations =  5.4

     total cpu time spent up to now is       61.7 secs

     total energy              =    -464.36917013 Ry
     Harris-Foulkes estimate   =    -475.12082742 Ry
     estimated scf accuracy    <      37.27494483 Ry

     iteration #  3     ecut=    33.07 Ry     beta=0.60
     Davidson diagonalization with overlap
     ethr =  1.00E-02,  avg # of iterations =  7.0

     total cpu time spent up to now is       90.0 secs

     total energy              =    -467.75054573 Ry
     Harris-Foulkes estimate   =    -468.06053484 Ry
     estimated scf accuracy    <       1.13680294 Ry

     iteration #  4     ecut=    33.07 Ry     beta=0.60
     Davidson diagonalization with overlap
     ethr =  2.32E-03,  avg # of iterations =  7.4

     total cpu time spent up to now is      117.0 secs

     total energy              =    -467.78487409 Ry
     Harris-Foulkes estimate   =    -468.20147903 Ry
     estimated scf accuracy    <       2.47324808 Ry

     iteration #  5     ecut=    33.07 Ry     beta=0.60
     Davidson diagonalization with overlap
     ethr =  2.32E-03,  avg # of iterations =  5.7

     total cpu time spent up to now is      139.0 secs

     total energy              =    -467.95586689 Ry
     Harris-Foulkes estimate   =    -467.98246605 Ry
     estimated scf accuracy    <       0.04883711 Ry

     iteration #  6     ecut=    33.07 Ry     beta=0.60
     Davidson diagonalization with overlap
     ethr =  9.97E-05,  avg # of iterations =  6.7

     total cpu time spent up to now is      169.6 secs

     total energy              =    -467.97571815 Ry
     Harris-Foulkes estimate   =    -467.99198813 Ry
     estimated scf accuracy    <       0.04062108 Ry

     iteration #  7     ecut=    33.07 Ry     beta=0.60
     Davidson diagonalization with overlap
     ethr =  8.29E-05,  avg # of iterations =  5.3

     total cpu time spent up to now is      193.6 secs

     total energy              =    -467.98242044 Ry
     Harris-Foulkes estimate   =    -467.98714275 Ry
     estimated scf accuracy    <       0.02080028 Ry

     iteration #  8     ecut=    33.07 Ry     beta=0.60
     Davidson diagonalization with overlap
     ethr =  4.24E-05,  avg # of iterations =  4.3

     total cpu time spent up to now is      211.0 secs

     total energy              =    -467.98415261 Ry
     Harris-Foulkes estimate   =    -467.98430073 Ry
     estimated scf accuracy    <       0.00061202 Ry

     iteration #  9     ecut=    33.07 Ry     beta=0.60
     Davidson diagonalization with overlap
     ethr =  1.25E-06,  avg # of iterations =  7.4

     total cpu time spent up to now is      243.6 secs

     total energy              =    -467.98474528 Ry
     Harris-Foulkes estimate   =    -467.98499189 Ry
     estimated scf accuracy    <       0.00396427 Ry

     iteration # 10     ecut=    33.07 Ry     beta=0.60
     Davidson diagonalization with overlap
     ethr =  1.25E-06,  avg # of iterations =  1.5

     total cpu time spent up to now is      258.1 secs

     total energy              =    -467.98453193 Ry
     Harris-Foulkes estimate   =    -467.98476983 Ry
     estimated scf accuracy    <       0.00233631 Ry

     iteration # 11     ecut=    33.07 Ry     beta=0.60
     Davidson diagonalization with overlap
     ethr =  1.25E-06,  avg # of iterations =  5.8

     total cpu time spent up to now is      281.7 secs

     total energy              =    -467.98472075 Ry
     Harris-Foulkes estimate   =    -467.98472295 Ry
     estimated scf accuracy    <       0.00002520 Ry

     iteration # 12     ecut=    33.07 Ry     beta=0.60
     Davidson diagonalization with overlap
     c_bands:  1 eigenvalues not converged
     c_bands:  1 eigenvalues not converged
     ethr =  5.14E-08,  avg # of iterations =  5.3

     total cpu time spent up to now is      301.0 secs

     total energy              =    -467.98472158 Ry
     Harris-Foulkes estimate   =    -467.98472539 Ry
     estimated scf accuracy    <       0.00002132 Ry

     iteration # 13     ecut=    33.07 Ry     beta=0.60
     Davidson diagonalization with overlap
     c_bands:  1 eigenvalues not converged
     ethr =  4.35E-08,  avg # of iterations =  5.8

     total cpu time spent up to now is      322.4 secs

     total energy              =    -467.98472528 Ry
     Harris-Foulkes estimate   =    -467.98472595 Ry
     estimated scf accuracy    <       0.00000305 Ry

     iteration # 14     ecut=    33.07 Ry     beta=0.60
     Davidson diagonalization with overlap
     c_bands:  1 eigenvalues not converged
     ethr =  6.23E-09,  avg # of iterations =  6.2

     total cpu time spent up to now is      346.2 secs

     total energy              =    -467.98472877 Ry
     Harris-Foulkes estimate   =    -467.98472888 Ry
     estimated scf accuracy    <       0.00000158 Ry

     iteration # 15     ecut=    33.07 Ry     beta=0.60
     Davidson diagonalization with overlap
     ethr =  3.22E-09,  avg # of iterations =  1.1

     total cpu time spent up to now is      360.6 secs

     total energy              =    -467.98472873 Ry
     Harris-Foulkes estimate   =    -467.98472879 Ry
     estimated scf accuracy    <       0.00000095 Ry

     iteration # 16     ecut=    33.07 Ry     beta=0.60
     Davidson diagonalization with overlap
     ethr =  1.93E-09,  avg # of iterations =  4.4

     total cpu time spent up to now is      377.8 secs

     total energy              =    -467.98472872 Ry
     Harris-Foulkes estimate   =    -467.98472876 Ry
     estimated scf accuracy    <       0.00000029 Ry

     iteration # 17     ecut=    33.07 Ry     beta=0.60
     Davidson diagonalization with overlap
     ethr =  5.94E-10,  avg # of iterations =  6.4

     total cpu time spent up to now is      402.2 secs

     total energy              =    -467.98472893 Ry
     Harris-Foulkes estimate   =    -467.98472893 Ry
     estimated scf accuracy    <       0.00000001 Ry

     iteration # 18     ecut=    33.07 Ry     beta=0.60
     Davidson diagonalization with overlap
     c_bands:  1 eigenvalues not converged
     ethr =  2.82E-11,  avg # of iterations =  6.6

     total cpu time spent up to now is      425.4 secs

     total energy              =    -467.98472974 Ry
     Harris-Foulkes estimate   =    -467.98472973 Ry
     estimated scf accuracy    <       0.00000010 Ry

     iteration # 19     ecut=    33.07 Ry     beta=0.60
     Davidson diagonalization with overlap
     ethr =  2.82E-11,  avg # of iterations =  2.6

     total cpu time spent up to now is      440.9 secs

     total energy              =    -467.98472972 Ry
     Harris-Foulkes estimate   =    -467.98472974 Ry
     estimated scf accuracy    <       0.00000014 Ry

     iteration # 20     ecut=    33.07 Ry     beta=0.60
     Davidson diagonalization with overlap
     ethr =  2.82E-11,  avg # of iterations =  6.4

     total cpu time spent up to now is      468.4 secs

     total energy              =    -467.98473180 Ry
     Harris-Foulkes estimate   =    -467.98473177 Ry
     estimated scf accuracy    <       0.00000049 Ry

     iteration # 21     ecut=    33.07 Ry     beta=0.60
     Davidson diagonalization with overlap
     ethr =  2.82E-11,  avg # of iterations =  6.1

     total cpu time spent up to now is      495.1 secs

     total energy              =    -467.98473183 Ry
     Harris-Foulkes estimate   =    -467.98473181 Ry
     estimated scf accuracy    <       0.00000112 Ry

     iteration # 22     ecut=    33.07 Ry     beta=0.60
     Davidson diagonalization with overlap
     ethr =  2.82E-11,  avg # of iterations =  1.0

     total cpu time spent up to now is      509.3 secs

     total energy              =    -467.98473178 Ry
     Harris-Foulkes estimate   =    -467.98473183 Ry
     estimated scf accuracy    <       0.00000119 Ry

     iteration # 23     ecut=    33.07 Ry     beta=0.60
     Davidson diagonalization with overlap
     ethr =  2.82E-11,  avg # of iterations =  5.9

     total cpu time spent up to now is      535.1 secs

     total energy              =    -467.98473179 Ry
     Harris-Foulkes estimate   =    -467.98473179 Ry
     estimated scf accuracy    <       0.00000067 Ry

     iteration # 24     ecut=    33.07 Ry     beta=0.60
     Davidson diagonalization with overlap
     ethr =  2.82E-11,  avg # of iterations =  1.0

     total cpu time spent up to now is      549.4 secs

     total energy              =    -467.98473180 Ry
     Harris-Foulkes estimate   =    -467.98473179 Ry
     estimated scf accuracy    <       0.00000071 Ry

     iteration # 25     ecut=    33.07 Ry     beta=0.60
     Davidson diagonalization with overlap
     ethr =  2.82E-11,  avg # of iterations =  4.4

     total cpu time spent up to now is      566.7 secs

     total energy              =    -467.98473184 Ry
     Harris-Foulkes estimate   =    -467.98473180 Ry
     estimated scf accuracy    <       0.00000082 Ry

     iteration # 26     ecut=    33.07 Ry     beta=0.60
     Davidson diagonalization with overlap
     ethr =  2.82E-11,  avg # of iterations =  6.3

     total cpu time spent up to now is      593.4 secs

     total energy              =    -467.98473177 Ry
     Harris-Foulkes estimate   =    -467.98473184 Ry
     estimated scf accuracy    <       0.00000134 Ry

     iteration # 27     ecut=    33.07 Ry     beta=0.60
     Davidson diagonalization with overlap
     ethr =  2.82E-11,  avg # of iterations =  6.5

     total cpu time spent up to now is      621.5 secs

     total energy              =    -467.98473182 Ry
     Harris-Foulkes estimate   =    -467.98473178 Ry
     estimated scf accuracy    <       0.00000068 Ry

     iteration # 28     ecut=    33.07 Ry     beta=0.60
     Davidson diagonalization with overlap
     ethr =  2.82E-11,  avg # of iterations =  6.2

     total cpu time spent up to now is      647.9 secs

     total energy              =    -467.98473148 Ry
     Harris-Foulkes estimate   =    -467.98473183 Ry
     estimated scf accuracy    <       0.00000122 Ry

     iteration # 29     ecut=    33.07 Ry     beta=0.60
     Davidson diagonalization with overlap
     c_bands:  1 eigenvalues not converged
     c_bands:  1 eigenvalues not converged
     c_bands:  1 eigenvalues not converged
     c_bands:  1 eigenvalues not converged
     c_bands:  1 eigenvalues not converged
     c_bands:  1 eigenvalues not converged
     c_bands:  1 eigenvalues not converged
     c_bands:  1 eigenvalues not converged
     c_bands:  1 eigenvalues not converged
     c_bands:  1 eigenvalues not converged
     c_bands:  1 eigenvalues not converged
     c_bands:  1 eigenvalues not converged
     c_bands:  1 eigenvalues not converged
     c_bands:  1 eigenvalues not converged
     c_bands:  1 eigenvalues not converged
     c_bands:  1 eigenvalues not converged
     c_bands:  1 eigenvalues not converged
     c_bands:  1 eigenvalues not converged
     c_bands:  1 eigenvalues not converged
     c_bands:  1 eigenvalues not converged
     c_bands:  1 eigenvalues not converged
     c_bands:  1 eigenvalues not converged
     c_bands:  1 eigenvalues not converged
     c_bands:  1 eigenvalues not converged
     c_bands:  1 eigenvalues not converged
     c_bands:  1 eigenvalues not converged
     c_bands:  1 eigenvalues not converged
     c_bands:  1 eigenvalues not converged
     c_bands:  1 eigenvalues not converged
     c_bands:  1 eigenvalues not converged
     c_bands:  1 eigenvalues not converged
     c_bands:  1 eigenvalues not converged
     c_bands:  1 eigenvalues not converged
     c_bands:  1 eigenvalues not converged
     c_bands:  1 eigenvalues not converged
     c_bands:  1 eigenvalues not converged
     ethr =  2.82E-11,  avg # of iterations = 16.1

     total cpu time spent up to now is      696.6 secs

     total energy              =    -467.98473155 Ry
     Harris-Foulkes estimate   =    -467.98473190 Ry
     estimated scf accuracy    <       0.00000233 Ry

     iteration # 30     ecut=    33.07 Ry     beta=0.60
     Davidson diagonalization with overlap
     c_bands:  1 eigenvalues not converged
     c_bands:  1 eigenvalues not converged
     c_bands:  1 eigenvalues not converged
     c_bands:  1 eigenvalues not converged
     c_bands:  1 eigenvalues not converged
     c_bands:  1 eigenvalues not converged
     c_bands:  1 eigenvalues not converged
     c_bands:  1 eigenvalues not converged
     c_bands:  1 eigenvalues not converged
     c_bands:  1 eigenvalues not converged
     c_bands:  1 eigenvalues not converged
     c_bands:  1 eigenvalues not converged
     c_bands:  1 eigenvalues not converged
     c_bands:  1 eigenvalues not converged
     c_bands:  1 eigenvalues not converged
     c_bands:  1 eigenvalues not converged
     c_bands:  1 eigenvalues not converged
     c_bands:  1 eigenvalues not converged
     c_bands:  1 eigenvalues not converged
     c_bands:  1 eigenvalues not converged
     c_bands:  1 eigenvalues not converged
     c_bands:  1 eigenvalues not converged
     c_bands:  1 eigenvalues not converged
     c_bands:  1 eigenvalues not converged
     c_bands:  1 eigenvalues not converged
     c_bands:  1 eigenvalues not converged
     c_bands:  1 eigenvalues not converged
     c_bands:  1 eigenvalues not converged
     c_bands:  1 eigenvalues not converged
     c_bands:  1 eigenvalues not converged
     c_bands:  1 eigenvalues not converged
     ethr =  2.82E-11,  avg # of iterations = 15.6

     total cpu time spent up to now is      741.4 secs

     total energy              =    -467.98473171 Ry
     Harris-Foulkes estimate   =    -467.98473171 Ry
     estimated scf accuracy    <          9.0E-09 Ry

     iteration # 31     ecut=    33.07 Ry     beta=0.60
     Davidson diagonalization with overlap
     c_bands:  1 eigenvalues not converged
     ethr =  1.84E-11,  avg # of iterations =  6.3

     total cpu time spent up to now is      761.8 secs

     total energy              =    -467.98473171 Ry
     Harris-Foulkes estimate   =    -467.98473171 Ry
     estimated scf accuracy    <          1.1E-09 Ry

     iteration # 32     ecut=    33.07 Ry     beta=0.60
     Davidson diagonalization with overlap
     c_bands:  1 eigenvalues not converged
     ethr =  2.29E-12,  avg # of iterations =  6.0

     total cpu time spent up to now is      785.0 secs

     total energy              =    -467.98473171 Ry
     Harris-Foulkes estimate   =    -467.98473171 Ry
     estimated scf accuracy    <          1.7E-09 Ry

     iteration # 33     ecut=    33.07 Ry     beta=0.60
     Davidson diagonalization with overlap
     ethr =  2.29E-12,  avg # of iterations =  5.3

     total cpu time spent up to now is      804.1 secs

     End of self-consistent calculation

     Number of k-points >= 100: set verbosity='high' to print the bands.

     the Fermi energy is    12.8193 ev

!    total energy              =    -467.98473171 Ry
     Harris-Foulkes estimate   =    -467.98473171 Ry
     estimated scf accuracy    <          9.6E-12 Ry

     The total energy is the sum of the following terms:

     one-electron contribution =    -163.40819402 Ry
     hartree contribution      =      95.87234902 Ry
     xc contribution           =     -61.68076244 Ry
     ewald contribution        =    -338.35127281 Ry
     smearing contrib. (-TS)   =      -0.41685146 Ry

     convergence has been achieved in  33 iterations

     Forces acting on atoms (Ry/au):

     atom    1 type  2   force =     0.00037022   -0.00021374    0.00092081
     atom    2 type  2   force =    -0.00020888    0.00012060    0.00000000
     atom    3 type  2   force =     0.00037022   -0.00021374   -0.00092081
     atom    4 type  1   force =    -0.00053155    0.00030689    0.00000000

     Total force =     0.001580     Total SCF correction =     0.000015


     entering subroutine stress ...

          total   stress  (Ry/bohr**3)                   (kbar)     P=  -57.57
  -0.00039798  -0.00001281  -0.00000000        -58.54     -1.88     -0.00
  -0.00001281  -0.00041277  -0.00000000         -1.88    -60.72     -0.00
  -0.00000000  -0.00000000  -0.00036328         -0.00     -0.00    -53.44


     BFGS Geometry Optimization

     number of scf cycles    =   1
     number of bfgs steps    =   0

     enthalpy new            =    -467.9847317078 Ry

     new trust radius        =       0.0479339760 bohr
     new conv_thr            =            1.0E-10 Ry

     new unit-cell volume =    523.23215 a.u.^3 (    77.53500 Ang^3 )

CELL_PARAMETERS (alat=  1.88972599)
   1.508198634  -2.610326055  -4.927301376
  -1.508198634   2.610326055  -4.927301376
   3.014707834  -0.000975395   4.927301376

ATOMIC_POSITIONS (angstrom)
Ti       3.014901831  -0.001087399  -4.926818531
Ti       1.506964395   0.869520747  -2.463650688
Ti       3.014901831  -0.001087399  -0.000482846
Nb       3.014993951  -1.740707691  -2.463650688


     NEW-OLD atomic charge density approx. for the potential

     Check: negative/imaginary core charge=   -0.000001    0.000000
     extrapolated charge   47.62307, renormalised to   49.00000

     total cpu time spent up to now is      810.9 secs

     per-process dynamical memory:    69.1 Mb

     Self-consistent Calculation

     iteration #  1     ecut=    33.07 Ry     beta=0.60
     Davidson diagonalization with overlap
     c_bands:  1 eigenvalues not converged
     c_bands:  2 eigenvalues not converged
     c_bands:  1 eigenvalues not converged
     c_bands:  1 eigenvalues not converged
     c_bands:  1 eigenvalues not converged
     c_bands:  2 eigenvalues not converged
     c_bands:  1 eigenvalues not converged
     c_bands:  1 eigenvalues not converged
     c_bands:  2 eigenvalues not converged
     c_bands:  2 eigenvalues not converged
     c_bands:  1 eigenvalues not converged
     c_bands:  1 eigenvalues not converged
     c_bands:  1 eigenvalues not converged
     c_bands:  1 eigenvalues not converged
     c_bands:  1 eigenvalues not converged
     ethr =  1.00E-06,  avg # of iterations = 14.0

     total cpu time spent up to now is      868.0 secs

     total energy              =    -467.45795698 Ry
     Harris-Foulkes estimate   =    -471.25637330 Ry
     estimated scf accuracy    <       0.50266486 Ry

     iteration #  2     ecut=    33.07 Ry     beta=0.60
     Davidson diagonalization with overlap
     ethr =  1.03E-03,  avg # of iterations =  5.8

     total cpu time spent up to now is      899.6 secs

     total energy              =    -467.45831807 Ry
     Harris-Foulkes estimate   =    -468.90784994 Ry
     estimated scf accuracy    <       7.59046280 Ry

     iteration #  3     ecut=    33.07 Ry     beta=0.60
     Davidson diagonalization with overlap
     ethr =  1.03E-03,  avg # of iterations =  6.2

     total cpu time spent up to now is      928.3 secs

     total energy              =    -467.97548355 Ry
     Harris-Foulkes estimate   =    -468.13928126 Ry
     estimated scf accuracy    <       0.50628219 Ry

     iteration #  4     ecut=    33.07 Ry     beta=0.60
     Davidson diagonalization with overlap
     ethr =  1.03E-03,  avg # of iterations =  4.6

     total cpu time spent up to now is      946.5 secs

     total energy              =    -468.00724624 Ry
     Harris-Foulkes estimate   =    -468.03392283 Ry
     estimated scf accuracy    <       0.24797362 Ry

     iteration #  5     ecut=    33.07 Ry     beta=0.60
     Davidson diagonalization with overlap
     ethr =  5.06E-04,  avg # of iterations =  2.3

     total cpu time spent up to now is      961.7 secs

     total energy              =    -468.00342943 Ry
     Harris-Foulkes estimate   =    -468.01895211 Ry
     estimated scf accuracy    <       0.14947151 Ry

     iteration #  6     ecut=    33.07 Ry     beta=0.60
     Davidson diagonalization with overlap
     ethr =  3.05E-04,  avg # of iterations =  2.0

     total cpu time spent up to now is      976.6 secs

     total energy              =    -468.00526047 Ry
     Harris-Foulkes estimate   =    -468.00630883 Ry
     estimated scf accuracy    <       0.10224673 Ry

     iteration #  7     ecut=    33.07 Ry     beta=0.60
     Davidson diagonalization with overlap
     ethr =  2.09E-04,  avg # of iterations =  1.1

     total cpu time spent up to now is      991.0 secs

     total energy              =    -467.99442004 Ry
     Harris-Foulkes estimate   =    -468.00629493 Ry
     estimated scf accuracy    <       0.10060104 Ry

     iteration #  8     ecut=    33.07 Ry     beta=0.60
     Davidson diagonalization with overlap
     ethr =  2.05E-04,  avg # of iterations =  1.5

     total cpu time spent up to now is     1005.6 secs

     total energy              =    -467.99590827 Ry
     Harris-Foulkes estimate   =    -467.99616863 Ry
     estimated scf accuracy    <       0.05937077 Ry

     iteration #  9     ecut=    33.07 Ry     beta=0.60
     Davidson diagonalization with overlap
     ethr =  1.21E-04,  avg # of iterations =  1.8

     total cpu time spent up to now is     1020.4 secs

     total energy              =    -467.98509060 Ry
     Harris-Foulkes estimate   =    -467.99668770 Ry
     estimated scf accuracy    <       0.05600017 Ry

     iteration # 10     ecut=    33.07 Ry     beta=0.60
     Davidson diagonalization with overlap
     ethr =  1.14E-04,  avg # of iterations =  3.8

     total cpu time spent up to now is     1038.3 secs

     total energy              =    -467.98532928 Ry
     Harris-Foulkes estimate   =    -467.98891247 Ry
     estimated scf accuracy    <       0.01014890 Ry

     iteration # 11     ecut=    33.07 Ry     beta=0.60
     Davidson diagonalization with overlap
     ethr =  2.07E-05,  avg # of iterations =  6.7

     total cpu time spent up to now is     1068.2 secs

     total energy              =    -467.98919569 Ry
     Harris-Foulkes estimate   =    -467.99040571 Ry
     estimated scf accuracy    <       0.00712444 Ry

     iteration # 12     ecut=    33.07 Ry     beta=0.60
     Davidson diagonalization with overlap
     ethr =  1.45E-05,  avg # of iterations =  1.2

     total cpu time spent up to now is     1082.6 secs

     total energy              =    -467.98923183 Ry
     Harris-Foulkes estimate   =    -467.98943618 Ry
     estimated scf accuracy    <       0.00217201 Ry

     iteration # 13     ecut=    33.07 Ry     beta=0.60
     Davidson diagonalization with overlap
     ethr =  4.43E-06,  avg # of iterations =  5.1

     total cpu time spent up to now is     1105.5 secs

     total energy              =    -467.98957513 Ry
     Harris-Foulkes estimate   =    -467.98958005 Ry
     estimated scf accuracy    <       0.00003520 Ry

     iteration # 14     ecut=    33.07 Ry     beta=0.60
     Davidson diagonalization with overlap
     ethr =  7.18E-08,  avg # of iterations =  7.2

     total cpu time spent up to now is     1136.1 secs

     total energy              =    -467.98961698 Ry
     Harris-Foulkes estimate   =    -467.98962046 Ry
     estimated scf accuracy    <       0.00014717 Ry

     iteration # 15     ecut=    33.07 Ry     beta=0.60
     Davidson diagonalization with overlap
     ethr =  7.18E-08,  avg # of iterations =  1.0

     total cpu time spent up to now is     1150.5 secs

     total energy              =    -467.98962140 Ry
     Harris-Foulkes estimate   =    -467.98961737 Ry
     estimated scf accuracy    <       0.00013706 Ry

     iteration # 16     ecut=    33.07 Ry     beta=0.60
     Davidson diagonalization with overlap
     ethr =  7.18E-08,  avg # of iterations =  6.1

     total cpu time spent up to now is     1176.0 secs

     total energy              =    -467.98951201 Ry
     Harris-Foulkes estimate   =    -467.98962965 Ry
     estimated scf accuracy    <       0.00032951 Ry

     iteration # 17     ecut=    33.07 Ry     beta=0.60
     Davidson diagonalization with overlap
     c_bands:  1 eigenvalues not converged
     c_bands:  1 eigenvalues not converged
     c_bands:  1 eigenvalues not converged
     c_bands:  1 eigenvalues not converged
     c_bands:  1 eigenvalues not converged
     c_bands:  1 eigenvalues not converged
     c_bands:  1 eigenvalues not converged
     c_bands:  1 eigenvalues not converged
     c_bands:  1 eigenvalues not converged
     c_bands:  1 eigenvalues not converged
     c_bands:  1 eigenvalues not converged
     c_bands:  1 eigenvalues not converged
     c_bands:  1 eigenvalues not converged
     c_bands:  1 eigenvalues not converged
     c_bands:  1 eigenvalues not converged
     c_bands:  1 eigenvalues not converged
     c_bands:  1 eigenvalues not converged
     ethr =  7.18E-08,  avg # of iterations =  8.9

     total cpu time spent up to now is     1210.4 secs

     total energy              =    -467.98957920 Ry
     Harris-Foulkes estimate   =    -467.98967933 Ry
     estimated scf accuracy    <       0.00087392 Ry

     iteration # 18     ecut=    33.07 Ry     beta=0.60
     Davidson diagonalization with overlap
     ethr =  7.18E-08,  avg # of iterations =  6.6

     total cpu time spent up to now is     1239.7 secs

     total energy              =    -467.98961096 Ry
     Harris-Foulkes estimate   =    -467.98961123 Ry
     estimated scf accuracy    <       0.00007706 Ry

     iteration # 19     ecut=    33.07 Ry     beta=0.60
     Davidson diagonalization with overlap
     ethr =  7.18E-08,  avg # of iterations =  1.0

     total cpu time spent up to now is     1254.1 secs

     total energy              =    -467.98960837 Ry
     Harris-Foulkes estimate   =    -467.98961104 Ry
     estimated scf accuracy    <       0.00007687 Ry

     iteration # 20     ecut=    33.07 Ry     beta=0.60
     Davidson diagonalization with overlap
     ethr =  7.18E-08,  avg # of iterations =  1.0

     total cpu time spent up to now is     1268.4 secs

     total energy              =    -467.98960602 Ry
     Harris-Foulkes estimate   =    -467.98960854 Ry
     estimated scf accuracy    <       0.00005778 Ry

     iteration # 21     ecut=    33.07 Ry     beta=0.60
     Davidson diagonalization with overlap
     ethr =  7.18E-08,  avg # of iterations =  1.0

     total cpu time spent up to now is     1282.6 secs

     total energy              =    -467.98959828 Ry
     Harris-Foulkes estimate   =    -467.98960629 Ry
     estimated scf accuracy    <       0.00003949 Ry

     iteration # 22     ecut=    33.07 Ry     beta=0.60
     Davidson diagonalization with overlap
     ethr =  7.18E-08,  avg # of iterations =  5.9

     total cpu time spent up to now is     1306.2 secs

     total energy              =    -467.98960390 Ry
     Harris-Foulkes estimate   =    -467.98960528 Ry
     estimated scf accuracy    <       0.00001039 Ry

     iteration # 23     ecut=    33.07 Ry     beta=0.60
     Davidson diagonalization with overlap
     ethr =  2.12E-08,  avg # of iterations =  2.8

     total cpu time spent up to now is     1322.0 secs

     total energy              =    -467.98960435 Ry
     Harris-Foulkes estimate   =    -467.98960430 Ry
     estimated scf accuracy    <       0.00000245 Ry

     iteration # 24     ecut=    33.07 Ry     beta=0.60
     Davidson diagonalization with overlap
     c_bands:  1 eigenvalues not converged
     ethr =  4.99E-09,  avg # of iterations =  5.8

     total cpu time spent up to now is     1342.6 secs

     total energy              =    -467.98960622 Ry
     Harris-Foulkes estimate   =    -467.98960619 Ry
     estimated scf accuracy    <       0.00000063 Ry

     iteration # 25     ecut=    33.07 Ry     beta=0.60
     Davidson diagonalization with overlap
     c_bands:  1 eigenvalues not converged
     ethr =  1.29E-09,  avg # of iterations =  3.4

     total cpu time spent up to now is     1359.0 secs

     total energy              =    -467.98960683 Ry
     Harris-Foulkes estimate   =    -467.98960687 Ry
     estimated scf accuracy    <       0.00000079 Ry

     iteration # 26     ecut=    33.07 Ry     beta=0.60
     Davidson diagonalization with overlap
     c_bands:  1 eigenvalues not converged
     ethr =  1.29E-09,  avg # of iterations =  1.1

     total cpu time spent up to now is     1374.0 secs

     total energy              =    -467.98960671 Ry
     Harris-Foulkes estimate   =    -467.98960687 Ry
     estimated scf accuracy    <       0.00000054 Ry

     iteration # 27     ecut=    33.07 Ry     beta=0.60
     Davidson diagonalization with overlap
     c_bands:  1 eigenvalues not converged
     ethr =  1.10E-09,  avg # of iterations =  6.3

     total cpu time spent up to now is     1400.8 secs

     total energy              =    -467.98960685 Ry
     Harris-Foulkes estimate   =    -467.98960693 Ry
     estimated scf accuracy    <       0.00000100 Ry

     iteration # 28     ecut=    33.07 Ry     beta=0.60
     Davidson diagonalization with overlap
     ethr =  1.10E-09,  avg # of iterations =  1.0

     total cpu time spent up to now is     1415.2 secs

     total energy              =    -467.98960682 Ry
     Harris-Foulkes estimate   =    -467.98960686 Ry
     estimated scf accuracy    <       0.00000048 Ry

     iteration # 29     ecut=    33.07 Ry     beta=0.60
     Davidson diagonalization with overlap
     ethr =  9.87E-10,  avg # of iterations =  4.7

     total cpu time spent up to now is     1434.4 secs

     total energy              =    -467.98960684 Ry
     Harris-Foulkes estimate   =    -467.98960685 Ry
     estimated scf accuracy    <       0.00000002 Ry

     iteration # 30     ecut=    33.07 Ry     beta=0.60
     Davidson diagonalization with overlap
     ethr =  3.57E-11,  avg # of iterations =  7.0

     total cpu time spent up to now is     1465.3 secs

     total energy              =    -467.98960913 Ry
     Harris-Foulkes estimate   =    -467.98960913 Ry
     estimated scf accuracy    <       0.00000056 Ry

     iteration # 31     ecut=    33.07 Ry     beta=0.60
     Davidson diagonalization with overlap
     ethr =  3.57E-11,  avg # of iterations =  1.0

     total cpu time spent up to now is     1479.7 secs

     total energy              =    -467.98960912 Ry
     Harris-Foulkes estimate   =    -467.98960913 Ry
     estimated scf accuracy    <       0.00000055 Ry

     iteration # 32     ecut=    33.07 Ry     beta=0.60
     Davidson diagonalization with overlap
     ethr =  3.57E-11,  avg # of iterations =  5.9

     total cpu time spent up to now is     1505.2 secs

     total energy              =    -467.98960913 Ry
     Harris-Foulkes estimate   =    -467.98960913 Ry
     estimated scf accuracy    <       0.00000042 Ry

     iteration # 33     ecut=    33.07 Ry     beta=0.60
     Davidson diagonalization with overlap
     ethr =  3.57E-11,  avg # of iterations =  1.6

     total cpu time spent up to now is     1520.1 secs

     total energy              =    -467.98960912 Ry
     Harris-Foulkes estimate   =    -467.98960913 Ry
     estimated scf accuracy    <       0.00000042 Ry

     iteration # 34     ecut=    33.07 Ry     beta=0.60
     Davidson diagonalization with overlap
     ethr =  3.57E-11,  avg # of iterations =  5.3

     total cpu time spent up to now is     1543.7 secs

     total energy              =    -467.98960912 Ry
     Harris-Foulkes estimate   =    -467.98960913 Ry
     estimated scf accuracy    <       0.00000048 Ry

     iteration # 35     ecut=    33.07 Ry     beta=0.60
     Davidson diagonalization with overlap
     ethr =  3.57E-11,  avg # of iterations =  4.3

     total cpu time spent up to now is     1561.3 secs

     total energy              =    -467.98960911 Ry
     Harris-Foulkes estimate   =    -467.98960912 Ry
     estimated scf accuracy    <       0.00000039 Ry

     iteration # 36     ecut=    33.07 Ry     beta=0.60
     Davidson diagonalization with overlap
     ethr =  3.57E-11,  avg # of iterations =  3.0

     total cpu time spent up to now is     1577.4 secs

     total energy              =    -467.98960911 Ry
     Harris-Foulkes estimate   =    -467.98960911 Ry
     estimated scf accuracy    <       0.00000034 Ry

     iteration # 37     ecut=    33.07 Ry     beta=0.60
     Davidson diagonalization with overlap
     ethr =  3.57E-11,  avg # of iterations =  4.1

     total cpu time spent up to now is     1594.4 secs

     total energy              =    -467.98960911 Ry
     Harris-Foulkes estimate   =    -467.98960911 Ry
     estimated scf accuracy    <       0.00000027 Ry

     iteration # 38     ecut=    33.07 Ry     beta=0.60
     Davidson diagonalization with overlap
     ethr =  3.57E-11,  avg # of iterations =  1.2

     total cpu time spent up to now is     1609.0 secs

     total energy              =    -467.98960906 Ry
     Harris-Foulkes estimate   =    -467.98960911 Ry
     estimated scf accuracy    <       0.00000026 Ry

     iteration # 39     ecut=    33.07 Ry     beta=0.60
     Davidson diagonalization with overlap
     ethr =  3.57E-11,  avg # of iterations =  6.5

     total cpu time spent up to now is     1642.2 secs

     total energy              =    -467.98960909 Ry
     Harris-Foulkes estimate   =    -467.98960909 Ry
     estimated scf accuracy    <       0.00000003 Ry

     iteration # 40     ecut=    33.07 Ry     beta=0.60
     Davidson diagonalization with overlap
     ethr =  3.57E-11,  avg # of iterations =  1.0

     total cpu time spent up to now is     1656.6 secs

     total energy              =    -467.98960908 Ry
     Harris-Foulkes estimate   =    -467.98960909 Ry
     estimated scf accuracy    <       0.00000001 Ry

     iteration # 41     ecut=    33.07 Ry     beta=0.60
     Davidson diagonalization with overlap
     ethr =  2.97E-11,  avg # of iterations =  6.0

     total cpu time spent up to now is     1681.6 secs

     total energy              =    -467.98960909 Ry
     Harris-Foulkes estimate   =    -467.98960909 Ry
     estimated scf accuracy    <       0.00000002 Ry

     iteration # 42     ecut=    33.07 Ry     beta=0.60
     Davidson diagonalization with overlap
     ethr =  2.97E-11,  avg # of iterations =  1.4

     total cpu time spent up to now is     1696.3 secs

     total energy              =    -467.98960909 Ry
     Harris-Foulkes estimate   =    -467.98960909 Ry
     estimated scf accuracy    <          5.3E-09 Ry

     iteration # 43     ecut=    33.07 Ry     beta=0.60
     Davidson diagonalization with overlap
     ethr =  1.08E-11,  avg # of iterations =  6.0

     total cpu time spent up to now is     1721.1 secs

     total energy              =    -467.98960909 Ry
     Harris-Foulkes estimate   =    -467.98960909 Ry
     estimated scf accuracy    <          2.8E-09 Ry

     iteration # 44     ecut=    33.07 Ry     beta=0.60
     Davidson diagonalization with overlap
     ethr =  5.64E-12,  avg # of iterations =  1.1

     total cpu time spent up to now is     1735.4 secs

     total energy              =    -467.98960909 Ry
     Harris-Foulkes estimate   =    -467.98960909 Ry
     estimated scf accuracy    <          1.4E-09 Ry

     iteration # 45     ecut=    33.07 Ry     beta=0.60
     Davidson diagonalization with overlap
     ethr =  2.92E-12,  avg # of iterations =  5.2

     total cpu time spent up to now is     1756.3 secs

     End of self-consistent calculation

     Number of k-points >= 100: set verbosity='high' to print the bands.

     the Fermi energy is    13.2582 ev

!    total energy              =    -467.98960909 Ry
     Harris-Foulkes estimate   =    -467.98960909 Ry
     estimated scf accuracy    <          9.8E-11 Ry

     The total energy is the sum of the following terms:

     one-electron contribution =    -158.39674224 Ry
     hartree contribution      =      94.27119337 Ry
     xc contribution           =     -61.76590090 Ry
     ewald contribution        =    -341.69386002 Ry
     smearing contrib. (-TS)   =      -0.40429930 Ry

     convergence has been achieved in  45 iterations

     Forces acting on atoms (Ry/au):

     atom    1 type  2   force =     0.00030086   -0.00017370    0.00034980
     atom    2 type  2   force =    -0.00017624    0.00010175    0.00000000
     atom    3 type  2   force =     0.00030086   -0.00017370   -0.00034980
     atom    4 type  1   force =    -0.00042548    0.00024565    0.00000000

     Total force =     0.000877     Total SCF correction =     0.000002


     entering subroutine stress ...

          total   stress  (Ry/bohr**3)                   (kbar)     P=  -32.99
  -0.00023041  -0.00001124   0.00000000        -33.89     -1.65      0.00
  -0.00001124  -0.00024339   0.00000000         -1.65    -35.80      0.00
   0.00000000   0.00000000  -0.00019896          0.00      0.00    -29.27


     number of scf cycles    =   2
     number of bfgs steps    =   1

     enthalpy old            =    -467.9847317078 Ry
     enthalpy new            =    -467.9896090860 Ry

     CASE: enthalpy_new < enthalpy_old

     new trust radius        =       0.0633141253 bohr
     new conv_thr            =            4.3E-11 Ry

     new unit-cell volume =    503.50924 a.u.^3 (    74.61237 Ang^3 )

CELL_PARAMETERS (alat=  1.88972599)
   1.490162546  -2.575214878  -4.871752452
  -1.490162546   2.575214878  -4.871752452
   2.975282617  -0.002911275   4.871752452

ATOMIC_POSITIONS (angstrom)
Ti       2.975827244  -0.003225715  -4.870862847
Ti       1.486487488   0.856645056  -2.435876226
Ti       2.975827244  -0.003225715  -0.000889606
Nb       2.976190573  -1.718304552  -2.435876226


     NEW-OLD atomic charge density approx. for the potential
     extrapolated charge   47.19825, renormalised to   49.00000

     total cpu time spent up to now is     1763.2 secs

     per-process dynamical memory:    71.8 Mb

     Self-consistent Calculation

     iteration #  1     ecut=    33.07 Ry     beta=0.60
     Davidson diagonalization with overlap
     c_bands:  1 eigenvalues not converged
     c_bands:  1 eigenvalues not converged
     c_bands:  1 eigenvalues not converged
     c_bands:  2 eigenvalues not converged
     c_bands:  1 eigenvalues not converged
     c_bands:  2 eigenvalues not converged
     c_bands:  2 eigenvalues not converged
     c_bands:  1 eigenvalues not converged
     c_bands:  1 eigenvalues not converged
     c_bands:  1 eigenvalues not converged
     c_bands:  2 eigenvalues not converged
     c_bands:  2 eigenvalues not converged
     c_bands:  1 eigenvalues not converged
     c_bands:  1 eigenvalues not converged
     c_bands:  1 eigenvalues not converged
     c_bands:  1 eigenvalues not converged
     c_bands:  1 eigenvalues not converged
     c_bands:  1 eigenvalues not converged
     c_bands:  1 eigenvalues not converged
     c_bands:  1 eigenvalues not converged
     c_bands:  1 eigenvalues not converged
     c_bands:  1 eigenvalues not converged
     c_bands:  1 eigenvalues not converged
     c_bands:  2 eigenvalues not converged
     ethr =  1.00E-06,  avg # of iterations = 15.0

     total cpu time spent up to now is     1820.5 secs

     total energy              =    -467.07525666 Ry
     Harris-Foulkes estimate   =    -472.13614948 Ry
     estimated scf accuracy    <       0.87263338 Ry

     iteration #  2     ecut=    33.07 Ry     beta=0.60
     Davidson diagonalization with overlap
     ethr =  1.78E-03,  avg # of iterations =  5.7

     total cpu time spent up to now is     1851.8 secs

     total energy              =    -467.18366801 Ry
     Harris-Foulkes estimate   =    -469.52387982 Ry
     estimated scf accuracy    <      11.60793242 Ry

     iteration #  3     ecut=    33.07 Ry     beta=0.60
     Davidson diagonalization with overlap
     ethr =  1.78E-03,  avg # of iterations =  6.1

     total cpu time spent up to now is     1879.3 secs

     total energy              =    -467.97731677 Ry
     Harris-Foulkes estimate   =    -468.24131433 Ry
     estimated scf accuracy    <       0.80862691 Ry

     iteration #  4     ecut=    33.07 Ry     beta=0.60
     Davidson diagonalization with overlap
     ethr =  1.65E-03,  avg # of iterations =  4.4

     total cpu time spent up to now is     1897.2 secs

     total energy              =    -468.02418825 Ry
     Harris-Foulkes estimate   =    -468.06805944 Ry
     estimated scf accuracy    <       0.41049103 Ry

     iteration #  5     ecut=    33.07 Ry     beta=0.60
     Davidson diagonalization with overlap
     ethr =  8.38E-04,  avg # of iterations =  2.0

     total cpu time spent up to now is     1912.2 secs

     total energy              =    -468.01635661 Ry
     Harris-Foulkes estimate   =    -468.04265340 Ry
     estimated scf accuracy    <       0.26200872 Ry

     iteration #  6     ecut=    33.07 Ry     beta=0.60
     Davidson diagonalization with overlap
     ethr =  5.35E-04,  avg # of iterations =  1.4

     total cpu time spent up to now is     1926.8 secs

     total energy              =    -468.02045059 Ry
     Harris-Foulkes estimate   =    -468.02089288 Ry
     estimated scf accuracy    <       0.18067515 Ry

     iteration #  7     ecut=    33.07 Ry     beta=0.60
     Davidson diagonalization with overlap
     ethr =  3.69E-04,  avg # of iterations =  1.1

     total cpu time spent up to now is     1941.3 secs

     total energy              =    -468.00729200 Ry
     Harris-Foulkes estimate   =    -468.02209532 Ry
     estimated scf accuracy    <       0.18227625 Ry

     iteration #  8     ecut=    33.07 Ry     beta=0.60
     Davidson diagonalization with overlap
     ethr =  3.69E-04,  avg # of iterations =  1.3

     total cpu time spent up to now is     1955.9 secs

     total energy              =    -468.00887900 Ry
     Harris-Foulkes estimate   =    -468.00925628 Ry
     estimated scf accuracy    <       0.12706870 Ry

     iteration #  9     ecut=    33.07 Ry     beta=0.60
     Davidson diagonalization with overlap
     ethr =  2.59E-04,  avg # of iterations =  1.2

     total cpu time spent up to now is     1970.4 secs

     total energy              =    -467.99275930 Ry
     Harris-Foulkes estimate   =    -468.00977986 Ry
     estimated scf accuracy    <       0.12438511 Ry

     iteration # 10     ecut=    33.07 Ry     beta=0.60
     Davidson diagonalization with overlap
     ethr =  2.54E-04,  avg # of iterations =  2.3

     total cpu time spent up to now is     1985.6 secs

     total energy              =    -467.97442560 Ry
     Harris-Foulkes estimate   =    -467.99552356 Ry
     estimated scf accuracy    <       0.05918584 Ry

     iteration # 11     ecut=    33.07 Ry     beta=0.60
     Davidson diagonalization with overlap
     ethr =  1.21E-04,  avg # of iterations =  5.8

     total cpu time spent up to now is     2010.9 secs

     total energy              =    -467.99194283 Ry
     Harris-Foulkes estimate   =    -467.99361345 Ry
     estimated scf accuracy    <       0.02018765 Ry

     iteration # 12     ecut=    33.07 Ry     beta=0.60
     Davidson diagonalization with overlap
     ethr =  4.12E-05,  avg # of iterations =  1.6

     total cpu time spent up to now is     2025.6 secs

     total energy              =    -467.99175233 Ry
     Harris-Foulkes estimate   =    -467.99238607 Ry
     estimated scf accuracy    <       0.01289237 Ry

     iteration # 13     ecut=    33.07 Ry     beta=0.60
     Davidson diagonalization with overlap
     ethr =  2.63E-05,  avg # of iterations =  1.6

     total cpu time spent up to now is     2040.4 secs

     total energy              =    -467.99124322 Ry
     Harris-Foulkes estimate   =    -467.99199259 Ry
     estimated scf accuracy    <       0.00855852 Ry

     iteration # 14     ecut=    33.07 Ry     beta=0.60
     Davidson diagonalization with overlap
     c_bands:  1 eigenvalues not converged
     ethr =  1.75E-05,  avg # of iterations =  2.8

     total cpu time spent up to now is     2056.0 secs

     total energy              =    -467.99126040 Ry
     Harris-Foulkes estimate   =    -467.99145822 Ry
     estimated scf accuracy    <       0.00378840 Ry

     iteration # 15     ecut=    33.07 Ry     beta=0.60
     Davidson diagonalization with overlap
     ethr =  7.73E-06,  avg # of iterations =  5.1

     total cpu time spent up to now is     2076.5 secs

     total energy              =    -467.99178961 Ry
     Harris-Foulkes estimate   =    -467.99163915 Ry
     estimated scf accuracy    <       0.00037391 Ry

     iteration # 16     ecut=    33.07 Ry     beta=0.60
     Davidson diagonalization with overlap
     ethr =  7.63E-07,  avg # of iterations =  6.8

     total cpu time spent up to now is     2107.4 secs

     total energy              =    -467.99185654 Ry
     Harris-Foulkes estimate   =    -467.99212290 Ry
     estimated scf accuracy    <       0.00486529 Ry

     iteration # 17     ecut=    33.07 Ry     beta=0.60
     Davidson diagonalization with overlap
     ethr =  7.63E-07,  avg # of iterations =  2.4

     total cpu time spent up to now is     2122.8 secs

     total energy              =    -467.99121221 Ry
     Harris-Foulkes estimate   =    -467.99187768 Ry
     estimated scf accuracy    <       0.00325055 Ry

     iteration # 18     ecut=    33.07 Ry     beta=0.60
     Davidson diagonalization with overlap
     c_bands:  1 eigenvalues not converged
     ethr =  7.63E-07,  avg # of iterations =  7.0

     total cpu time spent up to now is     2153.3 secs

     total energy              =    -467.99166153 Ry
     Harris-Foulkes estimate   =    -467.99169155 Ry
     estimated scf accuracy    <       0.00036886 Ry

     iteration # 19     ecut=    33.07 Ry     beta=0.60
     Davidson diagonalization with overlap
     ethr =  7.53E-07,  avg # of iterations =  1.1

     total cpu time spent up to now is     2167.6 secs

     total energy              =    -467.99167323 Ry
     Harris-Foulkes estimate   =    -467.99166567 Ry
     estimated scf accuracy    <       0.00021204 Ry

     iteration # 20     ecut=    33.07 Ry     beta=0.60
     Davidson diagonalization with overlap
     ethr =  4.33E-07,  avg # of iterations =  1.0

     total cpu time spent up to now is     2181.9 secs

     total energy              =    -467.99167571 Ry
     Harris-Foulkes estimate   =    -467.99167537 Ry
     estimated scf accuracy    <       0.00025517 Ry

     iteration # 21     ecut=    33.07 Ry     beta=0.60
     Davidson diagonalization with overlap
     ethr =  4.33E-07,  avg # of iterations =  1.0

     total cpu time spent up to now is     2196.1 secs

     total energy              =    -467.99168533 Ry
     Harris-Foulkes estimate   =    -467.99167694 Ry
     estimated scf accuracy    <       0.00025222 Ry

     iteration # 22     ecut=    33.07 Ry     beta=0.60
     Davidson diagonalization with overlap
     ethr =  4.33E-07,  avg # of iterations =  1.0

     total cpu time spent up to now is     2210.5 secs

     total energy              =    -467.99168829 Ry
     Harris-Foulkes estimate   =    -467.99168642 Ry
     estimated scf accuracy    <       0.00031140 Ry

     iteration # 23     ecut=    33.07 Ry     beta=0.60
     Davidson diagonalization with overlap
     ethr =  4.33E-07,  avg # of iterations =  1.2

     total cpu time spent up to now is     2225.8 secs

     total energy              =    -467.99165762 Ry
     Harris-Foulkes estimate   =    -467.99168912 Ry
     estimated scf accuracy    <       0.00032736 Ry

     iteration # 24     ecut=    33.07 Ry     beta=0.60
     Davidson diagonalization with overlap
     ethr =  4.33E-07,  avg # of iterations =  1.1

     total cpu time spent up to now is     2240.7 secs

     total energy              =    -467.99163602 Ry
     Harris-Foulkes estimate   =    -467.99166307 Ry
     estimated scf accuracy    <       0.00016802 Ry

     iteration # 25     ecut=    33.07 Ry     beta=0.60
     Davidson diagonalization with overlap
     ethr =  3.43E-07,  avg # of iterations =  5.4

     total cpu time spent up to now is     2262.6 secs

     total energy              =    -467.99165691 Ry
     Harris-Foulkes estimate   =    -467.99165845 Ry
     estimated scf accuracy    <       0.00001188 Ry

     iteration # 26     ecut=    33.07 Ry     beta=0.60
     Davidson diagonalization with overlap
     c_bands:  1 eigenvalues not converged
     ethr =  2.42E-08,  avg # of iterations =  6.2

     total cpu time spent up to now is     2283.3 secs

     total energy              =    -467.99165692 Ry
     Harris-Foulkes estimate   =    -467.99165795 Ry
     estimated scf accuracy    <       0.00000373 Ry

     iteration # 27     ecut=    33.07 Ry     beta=0.60
     Davidson diagonalization with overlap
     ethr =  7.62E-09,  avg # of iterations =  5.9

     total cpu time spent up to now is     2308.8 secs

     total energy              =    -467.99165762 Ry
     Harris-Foulkes estimate   =    -467.99165804 Ry
     estimated scf accuracy    <       0.00000310 Ry

     iteration # 28     ecut=    33.07 Ry     beta=0.60
     Davidson diagonalization with overlap
     ethr =  6.33E-09,  avg # of iterations =  1.8

     total cpu time spent up to now is     2323.7 secs

     total energy              =    -467.99165746 Ry
     Harris-Foulkes estimate   =    -467.99165773 Ry
     estimated scf accuracy    <       0.00000085 Ry

     iteration # 29     ecut=    33.07 Ry     beta=0.60
     Davidson diagonalization with overlap
     ethr =  1.74E-09,  avg # of iterations =  7.0

     total cpu time spent up to now is     2352.5 secs

     total energy              =    -467.99165756 Ry
     Harris-Foulkes estimate   =    -467.99165808 Ry
     estimated scf accuracy    <       0.00000361 Ry

     iteration # 30     ecut=    33.07 Ry     beta=0.60
     Davidson diagonalization with overlap
     ethr =  1.74E-09,  avg # of iterations =  6.5

     total cpu time spent up to now is     2377.7 secs

     total energy              =    -467.99165780 Ry
     Harris-Foulkes estimate   =    -467.99165780 Ry
     estimated scf accuracy    <       0.00000001 Ry

     iteration # 31     ecut=    33.07 Ry     beta=0.60
     Davidson diagonalization with overlap
     ethr =  2.29E-11,  avg # of iterations =  7.5

     total cpu time spent up to now is     2409.8 secs

     total energy              =    -467.99165780 Ry
     Harris-Foulkes estimate   =    -467.99165780 Ry
     estimated scf accuracy    <       0.00000005 Ry

     iteration # 32     ecut=    33.07 Ry     beta=0.60
     Davidson diagonalization with overlap
     ethr =  2.29E-11,  avg # of iterations =  6.5

     total cpu time spent up to now is     2434.7 secs

     total energy              =    -467.99165780 Ry
     Harris-Foulkes estimate   =    -467.99165780 Ry
     estimated scf accuracy    <          3.4E-10 Ry

     iteration # 33     ecut=    33.07 Ry     beta=0.60
     Davidson diagonalization with overlap
     c_bands:  1 eigenvalues not converged
     ethr =  6.92E-13,  avg # of iterations =  7.2

     total cpu time spent up to now is     2459.0 secs

     total energy              =    -467.99165780 Ry
     Harris-Foulkes estimate   =    -467.99165780 Ry
     estimated scf accuracy    <          4.6E-10 Ry

     iteration # 34     ecut=    33.07 Ry     beta=0.60
     Davidson diagonalization with overlap
     ethr =  6.92E-13,  avg # of iterations =  1.3

     total cpu time spent up to now is     2473.4 secs

     total energy              =    -467.99165780 Ry
     Harris-Foulkes estimate   =    -467.99165780 Ry
     estimated scf accuracy    <          2.2E-10 Ry

     iteration # 35     ecut=    33.07 Ry     beta=0.60
     Davidson diagonalization with overlap
     ethr =  4.50E-13,  avg # of iterations =  5.5

     total cpu time spent up to now is     2495.3 secs

     End of self-consistent calculation

     Number of k-points >= 100: set verbosity='high' to print the bands.

     the Fermi energy is    13.8480 ev

!    total energy              =    -467.99165780 Ry
     Harris-Foulkes estimate   =    -467.99165780 Ry
     estimated scf accuracy    <          1.3E-11 Ry

     The total energy is the sum of the following terms:

     one-electron contribution =    -151.82437697 Ry
     hartree contribution      =      92.19951463 Ry
     xc contribution           =     -61.88205092 Ry
     ewald contribution        =    -346.09735785 Ry
     smearing contrib. (-TS)   =      -0.38738670 Ry

     convergence has been achieved in  35 iterations

     Forces acting on atoms (Ry/au):

     atom    1 type  2   force =     0.00014235   -0.00008219   -0.00043212
     atom    2 type  2   force =    -0.00009035    0.00005216    0.00000000
     atom    3 type  2   force =     0.00014235   -0.00008219    0.00043212
     atom    4 type  1   force =    -0.00019435    0.00011221    0.00000000

     Total force =     0.000699     Total SCF correction =     0.000002


     entering subroutine stress ...

          total   stress  (Ry/bohr**3)                   (kbar)     P=    4.13
   0.00002404  -0.00000741   0.00000000          3.54     -1.09      0.00
  -0.00000741   0.00001549  -0.00000000         -1.09      2.28     -0.00
  -0.00000000  -0.00000000   0.00004467         -0.00     -0.00      6.57


     number of scf cycles    =   3
     number of bfgs steps    =   2

     enthalpy old            =    -467.9896090860 Ry
     enthalpy new            =    -467.9916578007 Ry

     CASE: enthalpy_new < enthalpy_old

     new trust radius        =       0.0072617442 bohr
     new conv_thr            =            4.3E-11 Ry

     new unit-cell volume =    505.53940 a.u.^3 (    74.91321 Ang^3 )

CELL_PARAMETERS (alat=  1.88972599)
   1.492383358  -2.578316613  -4.879635469
  -1.492383358   2.578316613  -4.879635469
   2.979079204  -0.003283686   4.879635469

ATOMIC_POSITIONS (angstrom)
Ti       2.979669106  -0.003624266  -4.878964630
Ti       1.488248606   0.857447823  -2.439817735
Ti       2.979669106  -0.003624266  -0.000670839
Nb       2.980141296  -1.720585503  -2.439817735


     NEW-OLD atomic charge density approx. for the potential

     Check: negative/imaginary core charge=   -0.000001    0.000000
     extrapolated charge   49.18472, renormalised to   49.00000

     total cpu time spent up to now is     2502.2 secs

     per-process dynamical memory:    71.8 Mb

     Self-consistent Calculation

     iteration #  1     ecut=    33.07 Ry     beta=0.60
     Davidson diagonalization with overlap
     c_bands:  1 eigenvalues not converged
     c_bands:  1 eigenvalues not converged
     c_bands:  1 eigenvalues not converged
     c_bands:  1 eigenvalues not converged
     c_bands:  1 eigenvalues not converged
     ethr =  1.00E-06,  avg # of iterations =  7.2

     total cpu time spent up to now is     2535.5 secs

     total energy              =    -467.98553818 Ry
     Harris-Foulkes estimate   =    -467.57974118 Ry
     estimated scf accuracy    <       0.00534134 Ry

     iteration #  2     ecut=    33.07 Ry     beta=0.60
     Davidson diagonalization with overlap
     c_bands:  1 eigenvalues not converged
     c_bands:  1 eigenvalues not converged
     c_bands:  1 eigenvalues not converged
     c_bands:  1 eigenvalues not converged
     c_bands:  1 eigenvalues not converged
     c_bands:  1 eigenvalues not converged
     c_bands:  1 eigenvalues not converged
     c_bands:  1 eigenvalues not converged
     c_bands:  1 eigenvalues not converged
     c_bands:  1 eigenvalues not converged
     ethr =  1.09E-05,  avg # of iterations =  8.9

     total cpu time spent up to now is     2570.6 secs

     total energy              =    -467.98549989 Ry
     Harris-Foulkes estimate   =    -468.00062173 Ry
     estimated scf accuracy    <       0.07789374 Ry

     iteration #  3     ecut=    33.07 Ry     beta=0.60
     Davidson diagonalization with overlap
     ethr =  1.09E-05,  avg # of iterations =  6.5

     total cpu time spent up to now is     2600.1 secs

     total energy              =    -467.99124815 Ry
     Harris-Foulkes estimate   =    -467.99333329 Ry
     estimated scf accuracy    <       0.00735772 Ry

     iteration #  4     ecut=    33.07 Ry     beta=0.60
     Davidson diagonalization with overlap
     ethr =  1.09E-05,  avg # of iterations =  4.5

     total cpu time spent up to now is     2619.2 secs

     total energy              =    -467.99193536 Ry
     Harris-Foulkes estimate   =    -467.99206842 Ry
     estimated scf accuracy    <       0.00192297 Ry

     iteration #  5     ecut=    33.07 Ry     beta=0.60
     Davidson diagonalization with overlap
     ethr =  3.92E-06,  avg # of iterations =  3.1

     total cpu time spent up to now is     2635.1 secs

     total energy              =    -467.99176180 Ry
     Harris-Foulkes estimate   =    -467.99200562 Ry
     estimated scf accuracy    <       0.00144939 Ry

     iteration #  6     ecut=    33.07 Ry     beta=0.60
     Davidson diagonalization with overlap
     ethr =  2.96E-06,  avg # of iterations =  1.6

     total cpu time spent up to now is     2649.8 secs

     total energy              =    -467.99171485 Ry
     Harris-Foulkes estimate   =    -467.99179994 Ry
     estimated scf accuracy    <       0.00074610 Ry

     iteration #  7     ecut=    33.07 Ry     beta=0.60
     Davidson diagonalization with overlap
     ethr =  1.52E-06,  avg # of iterations =  3.9

     total cpu time spent up to now is     2667.3 secs

     total energy              =    -467.99170974 Ry
     Harris-Foulkes estimate   =    -467.99174855 Ry
     estimated scf accuracy    <       0.00037913 Ry

     iteration #  8     ecut=    33.07 Ry     beta=0.60
     Davidson diagonalization with overlap
     ethr =  7.74E-07,  avg # of iterations =  2.4

     total cpu time spent up to now is     2682.6 secs

     total energy              =    -467.99167394 Ry
     Harris-Foulkes estimate   =    -467.99171810 Ry
     estimated scf accuracy    <       0.00023733 Ry

     iteration #  9     ecut=    33.07 Ry     beta=0.60
     Davidson diagonalization with overlap
     ethr =  4.84E-07,  avg # of iterations =  3.9

     total cpu time spent up to now is     2700.7 secs

     total energy              =    -467.99168256 Ry
     Harris-Foulkes estimate   =    -467.99169138 Ry
     estimated scf accuracy    <       0.00004604 Ry

     iteration # 10     ecut=    33.07 Ry     beta=0.60
     Davidson diagonalization with overlap
     ethr =  9.40E-08,  avg # of iterations =  5.6

     total cpu time spent up to now is     2722.8 secs

     total energy              =    -467.99168735 Ry
     Harris-Foulkes estimate   =    -467.99168901 Ry
     estimated scf accuracy    <       0.00000359 Ry

     iteration # 11     ecut=    33.07 Ry     beta=0.60
     Davidson diagonalization with overlap
     ethr =  7.32E-09,  avg # of iterations =  6.4

     total cpu time spent up to now is     2751.4 secs

     total energy              =    -467.99168903 Ry
     Harris-Foulkes estimate   =    -467.99168938 Ry
     estimated scf accuracy    <       0.00000382 Ry

     iteration # 12     ecut=    33.07 Ry     beta=0.60
     Davidson diagonalization with overlap
     ethr =  7.32E-09,  avg # of iterations =  1.0

     total cpu time spent up to now is     2765.6 secs

     total energy              =    -467.99168874 Ry
     Harris-Foulkes estimate   =    -467.99168909 Ry
     estimated scf accuracy    <       0.00000186 Ry

     iteration # 13     ecut=    33.07 Ry     beta=0.60
     Davidson diagonalization with overlap
     ethr =  3.79E-09,  avg # of iterations =  5.6

     total cpu time spent up to now is     2788.8 secs

     total energy              =    -467.99168909 Ry
     Harris-Foulkes estimate   =    -467.99168917 Ry
     estimated scf accuracy    <       0.00000158 Ry

     iteration # 14     ecut=    33.07 Ry     beta=0.60
     Davidson diagonalization with overlap
     ethr =  3.22E-09,  avg # of iterations =  1.0

     total cpu time spent up to now is     2803.1 secs

     total energy              =    -467.99168890 Ry
     Harris-Foulkes estimate   =    -467.99168910 Ry
     estimated scf accuracy    <       0.00000105 Ry

     iteration # 15     ecut=    33.07 Ry     beta=0.60
     Davidson diagonalization with overlap
     ethr =  2.13E-09,  avg # of iterations =  5.3

     total cpu time spent up to now is     2825.3 secs

     total energy              =    -467.99168903 Ry
     Harris-Foulkes estimate   =    -467.99168906 Ry
     estimated scf accuracy    <       0.00000033 Ry

     iteration # 16     ecut=    33.07 Ry     beta=0.60
     Davidson diagonalization with overlap
     ethr =  6.66E-10,  avg # of iterations =  2.4

     total cpu time spent up to now is     2840.6 secs

     total energy              =    -467.99168900 Ry
     Harris-Foulkes estimate   =    -467.99168904 Ry
     estimated scf accuracy    <       0.00000012 Ry

     iteration # 17     ecut=    33.07 Ry     beta=0.60
     Davidson diagonalization with overlap
     ethr =  2.36E-10,  avg # of iterations =  6.6

     total cpu time spent up to now is     2869.8 secs

     total energy              =    -467.99168903 Ry
     Harris-Foulkes estimate   =    -467.99168910 Ry
     estimated scf accuracy    <       0.00000084 Ry

     iteration # 18     ecut=    33.07 Ry     beta=0.60
     Davidson diagonalization with overlap
     ethr =  2.36E-10,  avg # of iterations =  5.3

     total cpu time spent up to now is     2891.7 secs

     total energy              =    -467.99168903 Ry
     Harris-Foulkes estimate   =    -467.99168905 Ry
     estimated scf accuracy    <       0.00000020 Ry

     iteration # 19     ecut=    33.07 Ry     beta=0.60
     Davidson diagonalization with overlap
     c_bands:  1 eigenvalues not converged
     ethr =  2.36E-10,  avg # of iterations =  1.6

     total cpu time spent up to now is     2906.7 secs

     total energy              =    -467.99168902 Ry
     Harris-Foulkes estimate   =    -467.99168903 Ry
     estimated scf accuracy    <       0.00000008 Ry

     iteration # 20     ecut=    33.07 Ry     beta=0.60
     Davidson diagonalization with overlap
     ethr =  1.67E-10,  avg # of iterations =  6.2

     total cpu time spent up to now is     2930.2 secs

     total energy              =    -467.99168903 Ry
     Harris-Foulkes estimate   =    -467.99168904 Ry
     estimated scf accuracy    <       0.00000001 Ry

     iteration # 21     ecut=    33.07 Ry     beta=0.60
     Davidson diagonalization with overlap
     c_bands:  1 eigenvalues not converged
     ethr =  2.15E-11,  avg # of iterations =  3.3

     total cpu time spent up to now is     2946.7 secs

     total energy              =    -467.99169033 Ry
     Harris-Foulkes estimate   =    -467.99169033 Ry
     estimated scf accuracy    <       0.00000002 Ry

     iteration # 22     ecut=    33.07 Ry     beta=0.60
     Davidson diagonalization with overlap
     c_bands:  1 eigenvalues not converged
     ethr =  2.15E-11,  avg # of iterations =  1.1

     total cpu time spent up to now is     2961.0 secs

     total energy              =    -467.99169033 Ry
     Harris-Foulkes estimate   =    -467.99169033 Ry
     estimated scf accuracy    <       0.00000002 Ry

     iteration # 23     ecut=    33.07 Ry     beta=0.60
     Davidson diagonalization with overlap
     ethr =  2.15E-11,  avg # of iterations =  1.1

     total cpu time spent up to now is     2975.3 secs

     total energy              =    -467.99169033 Ry
     Harris-Foulkes estimate   =    -467.99169033 Ry
     estimated scf accuracy    <       0.00000001 Ry

     iteration # 24     ecut=    33.07 Ry     beta=0.60
     Davidson diagonalization with overlap
     ethr =  2.15E-11,  avg # of iterations =  1.0

     total cpu time spent up to now is     2989.5 secs

     total energy              =    -467.99169033 Ry
     Harris-Foulkes estimate   =    -467.99169033 Ry
     estimated scf accuracy    <       0.00000001 Ry

     iteration # 25     ecut=    33.07 Ry     beta=0.60
     Davidson diagonalization with overlap
     ethr =  2.15E-11,  avg # of iterations =  1.0

     total cpu time spent up to now is     3003.7 secs

     total energy              =    -467.99169033 Ry
     Harris-Foulkes estimate   =    -467.99169033 Ry
     estimated scf accuracy    <       0.00000001 Ry

     iteration # 26     ecut=    33.07 Ry     beta=0.60
     Davidson diagonalization with overlap
     ethr =  2.15E-11,  avg # of iterations =  1.2

     total cpu time spent up to now is     3018.1 secs

     total energy              =    -467.99169033 Ry
     Harris-Foulkes estimate   =    -467.99169033 Ry
     estimated scf accuracy    <          9.8E-09 Ry

     iteration # 27     ecut=    33.07 Ry     beta=0.60
     Davidson diagonalization with overlap
     ethr =  1.99E-11,  avg # of iterations =  1.0

     total cpu time spent up to now is     3032.3 secs

     total energy              =    -467.99169033 Ry
     Harris-Foulkes estimate   =    -467.99169033 Ry
     estimated scf accuracy    <          9.5E-09 Ry

     iteration # 28     ecut=    33.07 Ry     beta=0.60
     Davidson diagonalization with overlap
     ethr =  1.95E-11,  avg # of iterations =  1.0

     total cpu time spent up to now is     3046.5 secs

     total energy              =    -467.99169033 Ry
     Harris-Foulkes estimate   =    -467.99169033 Ry
     estimated scf accuracy    <       0.00000001 Ry

     iteration # 29     ecut=    33.07 Ry     beta=0.60
     Davidson diagonalization with overlap
     ethr =  1.95E-11,  avg # of iterations =  1.0

     total cpu time spent up to now is     3060.7 secs

     total energy              =    -467.99169033 Ry
     Harris-Foulkes estimate   =    -467.99169033 Ry
     estimated scf accuracy    <       0.00000001 Ry

     iteration # 30     ecut=    33.07 Ry     beta=0.60
     Davidson diagonalization with overlap
     c_bands:  1 eigenvalues not converged
     ethr =  1.95E-11,  avg # of iterations =  7.2

     total cpu time spent up to now is     3094.4 secs

     total energy              =    -467.99169073 Ry
     Harris-Foulkes estimate   =    -467.99169074 Ry
     estimated scf accuracy    <       0.00000030 Ry

     iteration # 31     ecut=    33.07 Ry     beta=0.60
     Davidson diagonalization with overlap
     ethr =  1.95E-11,  avg # of iterations =  4.3

     total cpu time spent up to now is     3112.5 secs

     total energy              =    -467.99169072 Ry
     Harris-Foulkes estimate   =    -467.99169073 Ry
     estimated scf accuracy    <       0.00000025 Ry

     iteration # 32     ecut=    33.07 Ry     beta=0.60
     Davidson diagonalization with overlap
     ethr =  1.95E-11,  avg # of iterations =  6.2

     total cpu time spent up to now is     3136.6 secs

     total energy              =    -467.99169072 Ry
     Harris-Foulkes estimate   =    -467.99169073 Ry
     estimated scf accuracy    <       0.00000013 Ry

     iteration # 33     ecut=    33.07 Ry     beta=0.60
     Davidson diagonalization with overlap
     ethr =  1.95E-11,  avg # of iterations =  1.0

     total cpu time spent up to now is     3150.9 secs

     total energy              =    -467.99169072 Ry
     Harris-Foulkes estimate   =    -467.99169072 Ry
     estimated scf accuracy    <       0.00000011 Ry

     iteration # 34     ecut=    33.07 Ry     beta=0.60
     Davidson diagonalization with overlap
     ethr =  1.95E-11,  avg # of iterations =  6.6

     total cpu time spent up to now is     3174.1 secs

     total energy              =    -467.99169072 Ry
     Harris-Foulkes estimate   =    -467.99169072 Ry
     estimated scf accuracy    <       0.00000005 Ry

     iteration # 35     ecut=    33.07 Ry     beta=0.60
     Davidson diagonalization with overlap
     ethr =  1.95E-11,  avg # of iterations =  1.0

     total cpu time spent up to now is     3188.3 secs

     total energy              =    -467.99169072 Ry
     Harris-Foulkes estimate   =    -467.99169072 Ry
     estimated scf accuracy    <       0.00000006 Ry

     iteration # 36     ecut=    33.07 Ry     beta=0.60
     Davidson diagonalization with overlap
     ethr =  1.95E-11,  avg # of iterations =  5.0

     total cpu time spent up to now is     3206.6 secs

     total energy              =    -467.99169071 Ry
     Harris-Foulkes estimate   =    -467.99169072 Ry
     estimated scf accuracy    <       0.00000002 Ry

     iteration # 37     ecut=    33.07 Ry     beta=0.60
     Davidson diagonalization with overlap
     ethr =  1.95E-11,  avg # of iterations =  6.5

     total cpu time spent up to now is     3232.0 secs

     total energy              =    -467.99169072 Ry
     Harris-Foulkes estimate   =    -467.99169072 Ry
     estimated scf accuracy    <       0.00000001 Ry

     iteration # 38     ecut=    33.07 Ry     beta=0.60
     Davidson diagonalization with overlap
     ethr =  1.95E-11,  avg # of iterations =  6.9

     total cpu time spent up to now is     3261.3 secs

     total energy              =    -467.99169073 Ry
     Harris-Foulkes estimate   =    -467.99169073 Ry
     estimated scf accuracy    <       0.00000019 Ry

     iteration # 39     ecut=    33.07 Ry     beta=0.60
     Davidson diagonalization with overlap
     ethr =  1.95E-11,  avg # of iterations =  1.1

     total cpu time spent up to now is     3275.6 secs

     total energy              =    -467.99169072 Ry
     Harris-Foulkes estimate   =    -467.99169073 Ry
     estimated scf accuracy    <       0.00000021 Ry

     iteration # 40     ecut=    33.07 Ry     beta=0.60
     Davidson diagonalization with overlap
     ethr =  1.95E-11,  avg # of iterations =  6.2

     total cpu time spent up to now is     3301.3 secs

     total energy              =    -467.99169071 Ry
     Harris-Foulkes estimate   =    -467.99169072 Ry
     estimated scf accuracy    <       0.00000006 Ry

     iteration # 41     ecut=    33.07 Ry     beta=0.60
     Davidson diagonalization with overlap
     ethr =  1.95E-11,  avg # of iterations =  6.5

     total cpu time spent up to now is     3327.1 secs

     total energy              =    -467.99169071 Ry
     Harris-Foulkes estimate   =    -467.99169072 Ry
     estimated scf accuracy    <          6.4E-10 Ry

     iteration # 42     ecut=    33.07 Ry     beta=0.60
     Davidson diagonalization with overlap
     c_bands:  1 eigenvalues not converged
     ethr =  1.31E-12,  avg # of iterations =  4.4

     total cpu time spent up to now is     3344.6 secs

     total energy              =    -467.99169071 Ry
     Harris-Foulkes estimate   =    -467.99169071 Ry
     estimated scf accuracy    <          3.0E-10 Ry

     iteration # 43     ecut=    33.07 Ry     beta=0.60
     Davidson diagonalization with overlap
     ethr =  6.19E-13,  avg # of iterations =  6.0

     total cpu time spent up to now is     3367.3 secs

     total energy              =    -467.99169125 Ry
     Harris-Foulkes estimate   =    -467.99169125 Ry
     estimated scf accuracy    <       0.00000006 Ry

     iteration # 44     ecut=    33.07 Ry     beta=0.60
     Davidson diagonalization with overlap
     ethr =  6.19E-13,  avg # of iterations =  1.0

     total cpu time spent up to now is     3381.9 secs

     total energy              =    -467.99169125 Ry
     Harris-Foulkes estimate   =    -467.99169125 Ry
     estimated scf accuracy    <       0.00000006 Ry

     iteration # 45     ecut=    33.07 Ry     beta=0.60
     Davidson diagonalization with overlap
     ethr =  6.19E-13,  avg # of iterations =  1.0

     total cpu time spent up to now is     3396.2 secs

     total energy              =    -467.99169125 Ry
     Harris-Foulkes estimate   =    -467.99169125 Ry
     estimated scf accuracy    <       0.00000006 Ry

     iteration # 46     ecut=    33.07 Ry     beta=0.60
     Davidson diagonalization with overlap
     ethr =  6.19E-13,  avg # of iterations =  3.6

     total cpu time spent up to now is     3412.4 secs

     total energy              =    -467.99169126 Ry
     Harris-Foulkes estimate   =    -467.99169125 Ry
     estimated scf accuracy    <       0.00000006 Ry

     iteration # 47     ecut=    33.07 Ry     beta=0.60
     Davidson diagonalization with overlap
     ethr =  6.19E-13,  avg # of iterations =  4.3

     total cpu time spent up to now is     3431.7 secs

     total energy              =    -467.99169125 Ry
     Harris-Foulkes estimate   =    -467.99169126 Ry
     estimated scf accuracy    <       0.00000007 Ry

     iteration # 48     ecut=    33.07 Ry     beta=0.60
     Davidson diagonalization with overlap
     ethr =  6.19E-13,  avg # of iterations =  1.0

     total cpu time spent up to now is     3446.0 secs

     total energy              =    -467.99169125 Ry
     Harris-Foulkes estimate   =    -467.99169125 Ry
     estimated scf accuracy    <       0.00000007 Ry

     iteration # 49     ecut=    33.07 Ry     beta=0.60
     Davidson diagonalization with overlap
     ethr =  6.19E-13,  avg # of iterations =  1.0

     total cpu time spent up to now is     3460.4 secs

     total energy              =    -467.99169126 Ry
     Harris-Foulkes estimate   =    -467.99169126 Ry
     estimated scf accuracy    <       0.00000007 Ry

     iteration # 50     ecut=    33.07 Ry     beta=0.60
     Davidson diagonalization with overlap
     ethr =  6.19E-13,  avg # of iterations =  1.0

     total cpu time spent up to now is     3474.8 secs

     total energy              =    -467.99169125 Ry
     Harris-Foulkes estimate   =    -467.99169126 Ry
     estimated scf accuracy    <       0.00000007 Ry

     iteration # 51     ecut=    33.07 Ry     beta=0.60
     Davidson diagonalization with overlap
     ethr =  6.19E-13,  avg # of iterations =  5.6

     total cpu time spent up to now is     3498.1 secs

     total energy              =    -467.99169125 Ry
     Harris-Foulkes estimate   =    -467.99169125 Ry
     estimated scf accuracy    <       0.00000005 Ry

     iteration # 52     ecut=    33.07 Ry     beta=0.60
     Davidson diagonalization with overlap
     c_bands:  1 eigenvalues not converged
     c_bands:  1 eigenvalues not converged
     c_bands:  1 eigenvalues not converged
     c_bands:  1 eigenvalues not converged
     c_bands:  1 eigenvalues not converged
     c_bands:  1 eigenvalues not converged
     c_bands:  1 eigenvalues not converged
     c_bands:  1 eigenvalues not converged
     c_bands:  1 eigenvalues not converged
     c_bands:  1 eigenvalues not converged
     c_bands:  1 eigenvalues not converged
     c_bands:  1 eigenvalues not converged
[...]

     per-process dynamical memory:    63.4 Mb

     Self-consistent Calculation

     iteration #  1     ecut=    33.07 Ry     beta=0.60
     Davidson diagonalization with overlap
     c_bands:  2 eigenvalues not converged
     c_bands:  1 eigenvalues not converged
     c_bands:  1 eigenvalues not converged
     c_bands:  1 eigenvalues not converged
     c_bands:  3 eigenvalues not converged
     c_bands:  1 eigenvalues not converged
     c_bands:  1 eigenvalues not converged
     c_bands:  1 eigenvalues not converged
     c_bands:  3 eigenvalues not converged
     c_bands:  2 eigenvalues not converged
     c_bands:  1 eigenvalues not converged
     c_bands:  1 eigenvalues not converged
     c_bands:  1 eigenvalues not converged
     c_bands:  1 eigenvalues not converged
     c_bands:  3 eigenvalues not converged
     c_bands:  1 eigenvalues not converged
     c_bands:  1 eigenvalues not converged
     c_bands:  1 eigenvalues not converged
     c_bands:  2 eigenvalues not converged
     c_bands:  2 eigenvalues not converged
     c_bands:  1 eigenvalues not converged
     c_bands:  1 eigenvalues not converged
     c_bands:  1 eigenvalues not converged
     c_bands:  1 eigenvalues not converged
     c_bands:  1 eigenvalues not converged
     c_bands:  1 eigenvalues not converged
     c_bands:  1 eigenvalues not converged
     c_bands:  1 eigenvalues not converged
     c_bands:  1 eigenvalues not converged
     c_bands:  1 eigenvalues not converged
     c_bands:  1 eigenvalues not converged
     c_bands:  1 eigenvalues not converged
     c_bands:  2 eigenvalues not converged
     c_bands:  1 eigenvalues not converged
     c_bands:  1 eigenvalues not converged
     c_bands:  1 eigenvalues not converged
     c_bands:  1 eigenvalues not converged
     c_bands:  1 eigenvalues not converged
     c_bands:  2 eigenvalues not converged
     c_bands:  3 eigenvalues not converged
     c_bands:  1 eigenvalues not converged
     c_bands:  1 eigenvalues not converged
     c_bands:  4 eigenvalues not converged
     c_bands:  1 eigenvalues not converged
     c_bands:  1 eigenvalues not converged
     c_bands:  1 eigenvalues not converged
     c_bands:  1 eigenvalues not converged
     c_bands:  2 eigenvalues not converged
     c_bands:  1 eigenvalues not converged
     c_bands:  1 eigenvalues not converged
     c_bands:  1 eigenvalues not converged
     c_bands:  1 eigenvalues not converged
     c_bands:  2 eigenvalues not converged
     c_bands:  1 eigenvalues not converged
     c_bands:  1 eigenvalues not converged
     c_bands:  1 eigenvalues not converged
     c_bands:  1 eigenvalues not converged
     c_bands:  1 eigenvalues not converged
     c_bands:  1 eigenvalues not converged
     c_bands:  1 eigenvalues not converged
     c_bands:  1 eigenvalues not converged
     c_bands:  1 eigenvalues not converged
     c_bands:  1 eigenvalues not converged
     c_bands:  1 eigenvalues not converged
     c_bands:  1 eigenvalues not converged
     c_bands:  1 eigenvalues not converged
     c_bands:  1 eigenvalues not converged
     c_bands:  1 eigenvalues not converged
     ethr =  1.00E-06,  avg # of iterations = 16.4

     total cpu time spent up to now is    17268.4 secs

     total energy              =    -464.98274065 Ry
     Harris-Foulkes estimate   =    -469.33122368 Ry
     estimated scf accuracy    <       5.63070751 Ry

     iteration #  2     ecut=    33.07 Ry     beta=0.60
     Davidson diagonalization with overlap
     ethr =  1.00E-02,  avg # of iterations =  5.2

     total cpu time spent up to now is    17295.7 secs

     total energy              =    -464.31507640 Ry
     Harris-Foulkes estimate   =    -474.70664979 Ry
     estimated scf accuracy    <      36.05094145 Ry

     iteration #  3     ecut=    33.07 Ry     beta=0.60
     Davidson diagonalization with overlap
     ethr =  1.00E-02,  avg # of iterations =  6.7

     total cpu time spent up to now is    17322.7 secs

     total energy              =    -467.82927406 Ry
     Harris-Foulkes estimate   =    -468.06185583 Ry
     estimated scf accuracy    <       0.76769978 Ry

     iteration #  4     ecut=    33.07 Ry     beta=0.60
     Davidson diagonalization with overlap
     ethr =  1.57E-03,  avg # of iterations =  7.0

     total cpu time spent up to now is    17349.1 secs

     total energy              =    -467.82721751 Ry
     Harris-Foulkes estimate   =    -468.16560622 Ry
     estimated scf accuracy    <       1.94282847 Ry

     iteration #  5     ecut=    33.07 Ry     beta=0.60
     Davidson diagonalization with overlap
     ethr =  1.57E-03,  avg # of iterations =  5.3

     total cpu time spent up to now is    17371.1 secs

     total energy              =    -467.96917244 Ry
     Harris-Foulkes estimate   =    -467.99323311 Ry
     estimated scf accuracy    <       0.05349757 Ry

     iteration #  6     ecut=    33.07 Ry     beta=0.60
     Davidson diagonalization with overlap
     ethr =  1.09E-04,  avg # of iterations =  6.6

     total cpu time spent up to now is    17398.1 secs

     total energy              =    -467.97766056 Ry
     Harris-Foulkes estimate   =    -467.99349571 Ry
     estimated scf accuracy    <       0.03984119 Ry

     iteration #  7     ecut=    33.07 Ry     beta=0.60
     Davidson diagonalization with overlap
     ethr =  8.13E-05,  avg # of iterations =  5.4

     total cpu time spent up to now is    17421.1 secs

     total energy              =    -467.98552667 Ry
     Harris-Foulkes estimate   =    -467.98755457 Ry
     estimated scf accuracy    <       0.00798062 Ry

     iteration #  8     ecut=    33.07 Ry     beta=0.60
     Davidson diagonalization with overlap
     c_bands:  1 eigenvalues not converged
     c_bands:  1 eigenvalues not converged
     ethr =  1.63E-05,  avg # of iterations =  3.7

     total cpu time spent up to now is    17438.2 secs

     total energy              =    -467.98615821 Ry
     Harris-Foulkes estimate   =    -467.98628852 Ry
     estimated scf accuracy    <       0.00038978 Ry

     iteration #  9     ecut=    33.07 Ry     beta=0.60
     Davidson diagonalization with overlap
     ethr =  7.95E-07,  avg # of iterations =  7.3

     total cpu time spent up to now is    17468.4 secs

     total energy              =    -467.98636486 Ry
     Harris-Foulkes estimate   =    -467.98644788 Ry
     estimated scf accuracy    <       0.00062345 Ry

     iteration # 10     ecut=    33.07 Ry     beta=0.60
     Davidson diagonalization with overlap
     ethr =  7.95E-07,  avg # of iterations =  1.1

     total cpu time spent up to now is    17482.3 secs

     total energy              =    -467.98635697 Ry
     Harris-Foulkes estimate   =    -467.98638129 Ry
     estimated scf accuracy    <       0.00018864 Ry

     iteration # 11     ecut=    33.07 Ry     beta=0.60
     Davidson diagonalization with overlap
     ethr =  3.85E-07,  avg # of iterations =  5.8

     total cpu time spent up to now is    17505.1 secs

     total energy              =    -467.98638743 Ry
     Harris-Foulkes estimate   =    -467.98639028 Ry
     estimated scf accuracy    <       0.00003703 Ry

     iteration # 12     ecut=    33.07 Ry     beta=0.60
     Davidson diagonalization with overlap
     ethr =  7.56E-08,  avg # of iterations =  2.5

     total cpu time spent up to now is    17520.2 secs

     total energy              =    -467.98638566 Ry
     Harris-Foulkes estimate   =    -467.98638822 Ry
     estimated scf accuracy    <       0.00001988 Ry

     iteration # 13     ecut=    33.07 Ry     beta=0.60
     Davidson diagonalization with overlap
     ethr =  4.06E-08,  avg # of iterations =  5.6

     total cpu time spent up to now is    17541.0 secs

     total energy              =    -467.98638764 Ry
     Harris-Foulkes estimate   =    -467.98638795 Ry
     estimated scf accuracy    <       0.00000136 Ry

     iteration # 14     ecut=    33.07 Ry     beta=0.60
     Davidson diagonalization with overlap
     c_bands:  1 eigenvalues not converged
     c_bands:  1 eigenvalues not converged
     ethr =  2.77E-09,  avg # of iterations =  7.3

     total cpu time spent up to now is    17566.4 secs

     total energy              =    -467.98639387 Ry
     Harris-Foulkes estimate   =    -467.98639398 Ry
     estimated scf accuracy    <       0.00000174 Ry

     iteration # 15     ecut=    33.07 Ry     beta=0.60
     Davidson diagonalization with overlap
     ethr =  2.77E-09,  avg # of iterations =  1.0

     total cpu time spent up to now is    17580.3 secs

     total energy              =    -467.98639382 Ry
     Harris-Foulkes estimate   =    -467.98639389 Ry
     estimated scf accuracy    <       0.00000104 Ry

     iteration # 16     ecut=    33.07 Ry     beta=0.60
     Davidson diagonalization with overlap
     ethr =  2.13E-09,  avg # of iterations =  4.3

     total cpu time spent up to now is    17597.7 secs

     total energy              =    -467.98639382 Ry
     Harris-Foulkes estimate   =    -467.98639386 Ry
     estimated scf accuracy    <       0.00000031 Ry

     iteration # 17     ecut=    33.07 Ry     beta=0.60
     Davidson diagonalization with overlap
     c_bands:  1 eigenvalues not converged
     ethr =  6.28E-10,  avg # of iterations =  6.6

     total cpu time spent up to now is    17620.3 secs

     total energy              =    -467.98639402 Ry
     Harris-Foulkes estimate   =    -467.98639404 Ry
     estimated scf accuracy    <       0.00000009 Ry

     iteration # 18     ecut=    33.07 Ry     beta=0.60
     Davidson diagonalization with overlap
     c_bands:  1 eigenvalues not converged
     ethr =  1.89E-10,  avg # of iterations =  5.8

     total cpu time spent up to now is    17640.9 secs

     total energy              =    -467.98639493 Ry
     Harris-Foulkes estimate   =    -467.98639493 Ry
     estimated scf accuracy    <       0.00000008 Ry

     iteration # 19     ecut=    33.07 Ry     beta=0.60
     Davidson diagonalization with overlap
     ethr =  1.61E-10,  avg # of iterations =  1.1

     total cpu time spent up to now is    17654.8 secs

     total energy              =    -467.98639492 Ry
     Harris-Foulkes estimate   =    -467.98639493 Ry
     estimated scf accuracy    <       0.00000006 Ry

     iteration # 20     ecut=    33.07 Ry     beta=0.60
     Davidson diagonalization with overlap
     ethr =  1.17E-10,  avg # of iterations =  1.7

     total cpu time spent up to now is    17669.3 secs

     total energy              =    -467.98639493 Ry
     Harris-Foulkes estimate   =    -467.98639492 Ry
     estimated scf accuracy    <       0.00000004 Ry

     iteration # 21     ecut=    33.07 Ry     beta=0.60
     Davidson diagonalization with overlap
     ethr =  7.66E-11,  avg # of iterations =  5.9

     total cpu time spent up to now is    17691.9 secs

     total energy              =    -467.98639817 Ry
     Harris-Foulkes estimate   =    -467.98639815 Ry
     estimated scf accuracy    <       0.00000029 Ry

     iteration # 22     ecut=    33.07 Ry     beta=0.60
     Davidson diagonalization with overlap
     ethr =  7.66E-11,  avg # of iterations =  7.3

     total cpu time spent up to now is    17721.8 secs

     total energy              =    -467.98639811 Ry
     Harris-Foulkes estimate   =    -467.98639821 Ry
     estimated scf accuracy    <       0.00000130 Ry

     iteration # 23     ecut=    33.07 Ry     beta=0.60
     Davidson diagonalization with overlap
     ethr =  7.66E-11,  avg # of iterations =  6.6

     total cpu time spent up to now is    17749.2 secs

     total energy              =    -467.98639824 Ry
     Harris-Foulkes estimate   =    -467.98639825 Ry
     estimated scf accuracy    <       0.00000047 Ry

     iteration # 24     ecut=    33.07 Ry     beta=0.60
     Davidson diagonalization with overlap
     ethr =  7.66E-11,  avg # of iterations =  1.0

     total cpu time spent up to now is    17763.1 secs

     total energy              =    -467.98639820 Ry
     Harris-Foulkes estimate   =    -467.98639824 Ry
     estimated scf accuracy    <       0.00000040 Ry

     iteration # 25     ecut=    33.07 Ry     beta=0.60
     Davidson diagonalization with overlap
     ethr =  7.66E-11,  avg # of iterations =  6.1

     total cpu time spent up to now is    17788.2 secs

     total energy              =    -467.98639822 Ry
     Harris-Foulkes estimate   =    -467.98639822 Ry
     estimated scf accuracy    <       0.00000002 Ry

     iteration # 26     ecut=    33.07 Ry     beta=0.60
     Davidson diagonalization with overlap
     ethr =  4.60E-11,  avg # of iterations =  1.8

     total cpu time spent up to now is    17802.6 secs

     total energy              =    -467.98639822 Ry
     Harris-Foulkes estimate   =    -467.98639822 Ry
     estimated scf accuracy    <       0.00000002 Ry

     iteration # 27     ecut=    33.07 Ry     beta=0.60
     Davidson diagonalization with overlap
     ethr =  3.16E-11,  avg # of iterations =  6.5

     total cpu time spent up to now is    17830.3 secs

     total energy              =    -467.98639821 Ry
     Harris-Foulkes estimate   =    -467.98639823 Ry
     estimated scf accuracy    <       0.00000025 Ry

     iteration # 28     ecut=    33.07 Ry     beta=0.60
     Davidson diagonalization with overlap
     ethr =  3.16E-11,  avg # of iterations =  6.3

     total cpu time spent up to now is    17856.3 secs

     total energy              =    -467.98639822 Ry
     Harris-Foulkes estimate   =    -467.98639822 Ry
     estimated scf accuracy    <       0.00000002 Ry

     iteration # 29     ecut=    33.07 Ry     beta=0.60
     Davidson diagonalization with overlap
     ethr =  3.16E-11,  avg # of iterations =  1.0

     total cpu time spent up to now is    17870.1 secs

     total energy              =    -467.98639822 Ry
     Harris-Foulkes estimate   =    -467.98639822 Ry
     estimated scf accuracy    <          6.2E-09 Ry

     iteration # 30     ecut=    33.07 Ry     beta=0.60
     Davidson diagonalization with overlap
     ethr =  1.27E-11,  avg # of iterations =  6.1

     total cpu time spent up to now is    17892.3 secs

     total energy              =    -467.98639822 Ry
     Harris-Foulkes estimate   =    -467.98639822 Ry
     estimated scf accuracy    <          1.7E-09 Ry

     iteration # 31     ecut=    33.07 Ry     beta=0.60
     Davidson diagonalization with overlap
     ethr =  3.52E-12,  avg # of iterations =  2.4

     total cpu time spent up to now is    17907.1 secs

     total energy              =    -467.98639822 Ry
     Harris-Foulkes estimate   =    -467.98639822 Ry
     estimated scf accuracy    <          6.2E-10 Ry

     iteration # 32     ecut=    33.07 Ry     beta=0.60
     Davidson diagonalization with overlap
     ethr =  1.26E-12,  avg # of iterations =  6.5

     total cpu time spent up to now is    17932.1 secs

     total energy              =    -467.98639822 Ry
     Harris-Foulkes estimate   =    -467.98639822 Ry
     estimated scf accuracy    <          7.4E-10 Ry

     iteration # 33     ecut=    33.07 Ry     beta=0.60
     Davidson diagonalization with overlap
     ethr =  1.26E-12,  avg # of iterations =  1.0

     total cpu time spent up to now is    17946.2 secs

     total energy              =    -467.98639822 Ry
     Harris-Foulkes estimate   =    -467.98639822 Ry
     estimated scf accuracy    <          4.1E-10 Ry

     iteration # 34     ecut=    33.07 Ry     beta=0.60
     Davidson diagonalization with overlap
     ethr =  8.40E-13,  avg # of iterations =  5.1

     total cpu time spent up to now is    17966.5 secs

     total energy              =    -467.98639822 Ry
     Harris-Foulkes estimate   =    -467.98639822 Ry
     estimated scf accuracy    <          2.2E-11 Ry

     iteration # 35     ecut=    33.07 Ry     beta=0.60
     Davidson diagonalization with overlap
     c_bands:  1 eigenvalues not converged
     ethr =  1.00E-13,  avg # of iterations =  4.9

     total cpu time spent up to now is    17984.4 secs

     End of self-consistent calculation

     Number of k-points >= 100: set verbosity='high' to print the bands.

     the Fermi energy is    13.7852 ev

!    total energy              =    -467.98639822 Ry
     Harris-Foulkes estimate   =    -467.98639822 Ry
     estimated scf accuracy    <          1.2E-12 Ry

     The total energy is the sum of the following terms:

     one-electron contribution =    -152.51848909 Ry
     hartree contribution      =      92.41257974 Ry
     xc contribution           =     -61.86583947 Ry
     ewald contribution        =    -345.62603286 Ry
     smearing contrib. (-TS)   =      -0.38861655 Ry

     convergence has been achieved in  35 iterations

     Forces acting on atoms (Ry/au):

     atom    1 type  2   force =     0.00000680   -0.00000393    0.00004737
     atom    2 type  2   force =    -0.00000800    0.00000462    0.00000000
     atom    3 type  2   force =     0.00000680   -0.00000393   -0.00004737
     atom    4 type  1   force =    -0.00000561    0.00000324    0.00000000

     Total force =     0.000069     Total SCF correction =     0.000001


     entering subroutine stress ...

          total   stress  (Ry/bohr**3)                   (kbar)     P=   -0.90
  -0.00000493  -0.00000371   0.00000000         -0.73     -0.55      0.00
  -0.00000371  -0.00000922  -0.00000000         -0.55     -1.36     -0.00
   0.00000000  -0.00000000  -0.00000429          0.00     -0.00     -0.63


     init_run     :     16.79s CPU     17.40s WALL (       2 calls)
     electrons    :  17218.67s CPU  17658.66s WALL (      46 calls)
     update_pot   :     44.96s CPU     45.21s WALL (      44 calls)
     forces       :     91.64s CPU     93.11s WALL (      46 calls)
     stress       :    165.38s CPU    168.87s WALL (      46 calls)

     Called by init_run:
     wfcinit      :     14.87s CPU     15.42s WALL (       2 calls)
     potinit      :      0.57s CPU      0.58s WALL (       2 calls)

     Called by electrons:
     c_bands      :  15161.70s CPU  15515.21s WALL (     786 calls)
     sum_band     :   1934.55s CPU   2006.37s WALL (     786 calls)
     v_of_rho     :     33.87s CPU     34.72s WALL (     792 calls)
     newd         :     89.14s CPU    103.46s WALL (     792 calls)
     mix_rho      :      2.94s CPU      3.07s WALL (     786 calls)

     Called by c_bands:
     init_us_2    :    100.92s CPU    102.55s WALL (  359856 calls)
     cegterg      :  14935.90s CPU  15287.36s WALL (  169776 calls)

     Called by sum_band:
     sum_band:bec :     10.67s CPU     10.98s WALL (  169776 calls)
     addusdens    :     77.35s CPU     93.40s WALL (     786 calls)

     Called by *egterg:
     h_psi        :   9804.92s CPU  10093.75s WALL (  992567 calls)
     s_psi        :    567.58s CPU    576.57s WALL (  992567 calls)
     g_psi        :     12.87s CPU     13.01s WALL (  822359 calls)
     cdiaghg      :   2206.16s CPU   2231.51s WALL (  973991 calls)

     Called by h_psi:
     h_psi:pot    :   9766.98s CPU  10054.97s WALL (  992567 calls)
     h_psi:calbec :    796.83s CPU    821.63s WALL (  992567 calls)
     vloc_psi     :   8391.75s CPU   8641.89s WALL (  992567 calls)
     add_vuspsi   :    574.79s CPU    588.20s WALL (  992567 calls)

     General routines
     calbec       :   1108.59s CPU   1142.14s WALL ( 1212023 calls)
     fft          :     18.44s CPU     19.26s WALL (   13842 calls)
     ffts         :      0.69s CPU      0.72s WALL (    1578 calls)
     fftw         :   8867.10s CPU   9134.17s WALL (34308142 calls)
     interpolate  :      3.55s CPU      3.73s WALL (    1578 calls)

     Parallel routines
     fft_scatter  :   1321.40s CPU   1365.86s WALL (34323562 calls)

     PWSCF        :     4h52m CPU        4h59m WALL


   This run was terminated on:  15:47:40  11Mar2018            

=------------------------------------------------------------------------------=
   JOB DONE.
=------------------------------------------------------------------------------=
