
     Program PWSCF v.6.3MaX starts on 28Jan2020 at 15: 8:57 

     This program is part of the open-source Quantum ESPRESSO suite
     for quantum simulation of materials; please cite
         "P. Giannozzi et al., J. Phys.:Condens. Matter 21 395502 (2009);
         "P. Giannozzi et al., J. Phys.:Condens. Matter 29 465901 (2017);
          URL http://www.quantum-espresso.org", 
     in publications or presentations arising from this work. More details at
     http://www.quantum-espresso.org/quote

     Parallel version (MPI), running on     4 processors

     MPI processes distributed on     1 nodes
     R & G space division:  proc/nbgrp/npool/nimage =       4
     Waiting for input...
     Reading input from standard input

     Current dimensions of program PWSCF are:
     Max number of different atomic species (ntypx) = 10
     Max number of k-points (npk) =  40000
     Max angular momentum in pseudopotentials (lmaxx) =  3
     Message from routine iosys:
     minimal I/O required, wf_collect reset to FALSE

     Subspace diagonalization in iterative solution of the eigenvalue problem:
     a serial algorithm will be used

 
     Parallelization info
     --------------------
     sticks:   dense  smooth     PW     G-vecs:    dense   smooth      PW
     Min         538     213     65                27719     7004    1154
     Max         539     214     66                27721     7007    1156
     Sum        2155     855    261               110881    28023    4619
 


     bravais-lattice index     =            0
     lattice parameter (alat)  =       1.8897  a.u.
     unit-cell volume          =     586.6735 (a.u.)^3
     number of atoms/cell      =            4
     number of atomic types    =            2
     number of electrons       =        49.00
     number of Kohn-Sham states=           30
     kinetic-energy cutoff     =      50.0000  Ry
     charge density cutoff     =     500.0000  Ry
     convergence threshold     =      1.0E-10
     mixing beta               =       0.6000
     number of iterations used =            8  plain     mixing
     Exchange-correlation      = SLA PW PBE PBE ( 1  4  3  4 0 0)
     nstep                     =           50


     celldm(1)=   1.889726  celldm(2)=   0.000000  celldm(3)=   0.000000
     celldm(4)=   0.000000  celldm(5)=   0.000000  celldm(6)=   0.000000

     crystal axes: (cart. coord. in units of alat)
               a(1) = (   1.758031   1.758031  -1.758031 )  
               a(2) = (  -3.516063   3.516063   0.000000 )  
               a(3) = (   1.758031   1.758031   5.274095 )  

     reciprocal axes: (cart. coord. in units 2 pi/alat)
               b(1) = (  0.213307  0.213307 -0.142205 )  
               b(2) = ( -0.142205  0.142205  0.000000 )  
               b(3) = (  0.071102  0.071102  0.142205 )  


     PseudoPot. # 1 for Nb read from file:
     ./Nb.pbe-nsp-van.UPF
     MD5 check sum: 0a22fc7fb0ba19a08ca5db297a5d2854
     Pseudo is Ultrasoft + core correction, Zval = 13.0
     Generated by new atomic code, or converted to UPF format
     Using radial grid of  887 points,  6 beta functions with: 
                l(1) =   0
                l(2) =   0
                l(3) =   1
                l(4) =   1
                l(5) =   2
                l(6) =   2
     Q(r) pseudized with  6 coefficients,  rinner =    1.000   1.000   1.000
                                                       1.000   1.000

     PseudoPot. # 2 for Ti read from file:
     ./Ti.pbe-sp-van_ak.UPF
     MD5 check sum: f98fea3e8887528921fefa5636a534ca
     Pseudo is Ultrasoft, Zval = 12.0
     Generated by new atomic code, or converted to UPF format
     Using radial grid of  851 points,  6 beta functions with: 
                l(1) =   0
                l(2) =   0
                l(3) =   1
                l(4) =   1
                l(5) =   2
                l(6) =   2
     Q(r) pseudized with  8 coefficients,  rinner =    1.000   1.000   1.000
                                                       1.000   1.000

     atomic species   valence    mass     pseudopotential
        Nb            13.00    92.90638     Nb( 1.00)
        Ti            12.00    47.86700     Ti( 1.00)

      2 Sym. Ops. (no inversion) found
          (note:  2 additional sym.ops. were found but ignored
           their fractional translations are incommensurate with FFT grid)


   Cartesian axes

     site n.     atom                  positions (alat units)
         1           Ti  tau(   1) = (  -1.7580316   5.2740949   1.7580316  )
         2           Ti  tau(   2) = (   0.0000000   3.5160633   3.5160633  )
         3           Ti  tau(   3) = (   0.0000000   7.0321265   3.5160633  )
         4           Nb  tau(   4) = (   0.0000000   3.5160633   0.0000000  )

     number of k points=   576  Marzari-Vanderbilt smearing, width (Ry)=  0.0200

     Number of k-points >= 100: set verbosity='high' to print them.

     Dense  grid:   110881 G-vectors     FFT dimensions: (  45,  72,  80)

     Smooth grid:    28023 G-vectors     FFT dimensions: (  25,  45,  50)

     Estimated max dynamical RAM per process >     335.92 MB

     Estimated total dynamical RAM >       1.31 GB

     Initial potential from superposition of free atoms

     starting charge   45.99713, renormalised to   49.00000
     Starting wfcs are   43 randomized atomic wfcs

     total cpu time spent up to now is       15.6 secs

     Self-consistent Calculation

     iteration #  1     ecut=    50.00 Ry     beta= 0.60
     Davidson diagonalization with overlap
     ethr =  1.00E-02,  avg # of iterations =  3.8

     total cpu time spent up to now is       54.8 secs

     total energy              =    -463.79686268 Ry
     Harris-Foulkes estimate   =    -469.40957110 Ry
     estimated scf accuracy    <       7.24277082 Ry

     iteration #  2     ecut=    50.00 Ry     beta= 0.60
     Davidson diagonalization with overlap
     ethr =  1.00E-02,  avg # of iterations =  5.0

     total cpu time spent up to now is      103.7 secs

     total energy              =    -463.48878228 Ry
     Harris-Foulkes estimate   =    -477.39932465 Ry
     estimated scf accuracy    <      48.94608014 Ry

     iteration #  3     ecut=    50.00 Ry     beta= 0.60
     Davidson diagonalization with overlap
     ethr =  1.00E-02,  avg # of iterations =  4.8

     total cpu time spent up to now is      146.8 secs

     total energy              =    -467.37253438 Ry
     Harris-Foulkes estimate   =    -467.91973714 Ry
     estimated scf accuracy    <       2.36566460 Ry

     iteration #  4     ecut=    50.00 Ry     beta= 0.60
     Davidson diagonalization with overlap
     ethr =  4.83E-03,  avg # of iterations =  5.6

     total cpu time spent up to now is      189.7 secs

     total energy              =    -467.22529363 Ry
     Harris-Foulkes estimate   =    -468.25350969 Ry
     estimated scf accuracy    <      10.02064743 Ry

     iteration #  5     ecut=    50.00 Ry     beta= 0.60
     Davidson diagonalization with overlap
     ethr =  4.83E-03,  avg # of iterations =  2.5

     total cpu time spent up to now is      217.6 secs

     total energy              =    -467.74098000 Ry
     Harris-Foulkes estimate   =    -467.79015193 Ry
     estimated scf accuracy    <       0.34607835 Ry

     iteration #  6     ecut=    50.00 Ry     beta= 0.60
     Davidson diagonalization with overlap
     ethr =  7.06E-04,  avg # of iterations =  6.1

     total cpu time spent up to now is      259.7 secs

     total energy              =    -467.79256891 Ry
     Harris-Foulkes estimate   =    -467.79359916 Ry
     estimated scf accuracy    <       0.10722436 Ry

     iteration #  7     ecut=    50.00 Ry     beta= 0.60
     Davidson diagonalization with overlap
     ethr =  2.19E-04,  avg # of iterations =  4.2

     total cpu time spent up to now is      294.1 secs

     total energy              =    -467.80110220 Ry
     Harris-Foulkes estimate   =    -467.81539084 Ry
     estimated scf accuracy    <       0.32876741 Ry

     iteration #  8     ecut=    50.00 Ry     beta= 0.60
     Davidson diagonalization with overlap
     ethr =  2.19E-04,  avg # of iterations =  1.0

     total cpu time spent up to now is      319.5 secs

     total energy              =    -467.77559890 Ry
     Harris-Foulkes estimate   =    -467.80604436 Ry
     estimated scf accuracy    <       0.22262478 Ry

     iteration #  9     ecut=    50.00 Ry     beta= 0.60
     Davidson diagonalization with overlap
     ethr =  2.19E-04,  avg # of iterations =  1.7

     total cpu time spent up to now is      345.9 secs

     total energy              =    -467.78141959 Ry
     Harris-Foulkes estimate   =    -467.78435266 Ry
     estimated scf accuracy    <       0.02778250 Ry

     iteration # 10     ecut=    50.00 Ry     beta= 0.60
     Davidson diagonalization with overlap
     ethr =  5.67E-05,  avg # of iterations =  6.4

     total cpu time spent up to now is      388.3 secs

     total energy              =    -467.78520491 Ry
     Harris-Foulkes estimate   =    -467.78585023 Ry
     estimated scf accuracy    <       0.00516329 Ry

     iteration # 11     ecut=    50.00 Ry     beta= 0.60
     Davidson diagonalization with overlap
     c_bands:  1 eigenvalues not converged
     c_bands:  1 eigenvalues not converged
     c_bands:  1 eigenvalues not converged
     c_bands:  1 eigenvalues not converged
     c_bands:  1 eigenvalues not converged
     c_bands:  2 eigenvalues not converged
     c_bands:  2 eigenvalues not converged
     c_bands:  1 eigenvalues not converged
     c_bands:  1 eigenvalues not converged
     c_bands:  2 eigenvalues not converged
     c_bands:  2 eigenvalues not converged
     c_bands:  1 eigenvalues not converged
     ethr =  1.05E-05,  avg # of iterations =  5.6

     total cpu time spent up to now is      424.9 secs

     total energy              =    -467.78524139 Ry
     Harris-Foulkes estimate   =    -467.78554334 Ry
     estimated scf accuracy    <       0.00200842 Ry

     iteration # 12     ecut=    50.00 Ry     beta= 0.60
     Davidson diagonalization with overlap
     c_bands:  1 eigenvalues not converged
     c_bands:  1 eigenvalues not converged
     c_bands:  1 eigenvalues not converged
     c_bands:  1 eigenvalues not converged
     c_bands:  1 eigenvalues not converged
     c_bands:  1 eigenvalues not converged
     c_bands:  1 eigenvalues not converged
     c_bands:  1 eigenvalues not converged
     c_bands:  1 eigenvalues not converged
     c_bands:  1 eigenvalues not converged
     c_bands:  1 eigenvalues not converged
     c_bands:  1 eigenvalues not converged
     c_bands:  1 eigenvalues not converged
     ethr =  4.10E-06,  avg # of iterations =  5.2

     total cpu time spent up to now is      459.0 secs

     total energy              =    -467.78537597 Ry
     Harris-Foulkes estimate   =    -467.78539283 Ry
     estimated scf accuracy    <       0.00007766 Ry

     iteration # 13     ecut=    50.00 Ry     beta= 0.60
     Davidson diagonalization with overlap
     c_bands:  1 eigenvalues not converged
     ethr =  1.58E-07,  avg # of iterations =  6.8

     total cpu time spent up to now is      509.8 secs

     total energy              =    -467.78542291 Ry
     Harris-Foulkes estimate   =    -467.78545059 Ry
     estimated scf accuracy    <       0.00021076 Ry

     iteration # 14     ecut=    50.00 Ry     beta= 0.60
     Davidson diagonalization with overlap
     ethr =  1.58E-07,  avg # of iterations =  3.7

     total cpu time spent up to now is      540.5 secs

     total energy              =    -467.78543532 Ry
     Harris-Foulkes estimate   =    -467.78543611 Ry
     estimated scf accuracy    <       0.00000256 Ry

     iteration # 15     ecut=    50.00 Ry     beta= 0.60
     Davidson diagonalization with overlap
     ethr =  5.22E-09,  avg # of iterations =  5.6

     total cpu time spent up to now is      585.8 secs

     total energy              =    -467.78543796 Ry
     Harris-Foulkes estimate   =    -467.78543872 Ry
     estimated scf accuracy    <       0.00000818 Ry

     iteration # 16     ecut=    50.00 Ry     beta= 0.60
     Davidson diagonalization with overlap
     ethr =  5.22E-09,  avg # of iterations =  3.4

     total cpu time spent up to now is      617.3 secs

     total energy              =    -467.78543787 Ry
     Harris-Foulkes estimate   =    -467.78543852 Ry
     estimated scf accuracy    <       0.00000741 Ry

     iteration # 17     ecut=    50.00 Ry     beta= 0.60
     Davidson diagonalization with overlap
     ethr =  5.22E-09,  avg # of iterations =  1.3

     total cpu time spent up to now is      643.2 secs

     total energy              =    -467.78543805 Ry
     Harris-Foulkes estimate   =    -467.78543817 Ry
     estimated scf accuracy    <       0.00000103 Ry

     iteration # 18     ecut=    50.00 Ry     beta= 0.60
     Davidson diagonalization with overlap
     ethr =  2.10E-09,  avg # of iterations =  3.9

     total cpu time spent up to now is      676.5 secs

     total energy              =    -467.78543817 Ry
     Harris-Foulkes estimate   =    -467.78543819 Ry
     estimated scf accuracy    <       0.00000010 Ry

     iteration # 19     ecut=    50.00 Ry     beta= 0.60
     Davidson diagonalization with overlap
     ethr =  1.96E-10,  avg # of iterations =  4.3

     total cpu time spent up to now is      712.5 secs

     total energy              =    -467.78543819 Ry
     Harris-Foulkes estimate   =    -467.78543819 Ry
     estimated scf accuracy    <       0.00000002 Ry

     iteration # 20     ecut=    50.00 Ry     beta= 0.60
     Davidson diagonalization with overlap
     ethr =  4.41E-11,  avg # of iterations =  2.1

     total cpu time spent up to now is      740.1 secs

     total energy              =    -467.78543819 Ry
     Harris-Foulkes estimate   =    -467.78543819 Ry
     estimated scf accuracy    <          2.0E-09 Ry

     iteration # 21     ecut=    50.00 Ry     beta= 0.60
     Davidson diagonalization with overlap
     ethr =  4.14E-12,  avg # of iterations =  4.9

     total cpu time spent up to now is      781.4 secs

     total energy              =    -467.78543819 Ry
     Harris-Foulkes estimate   =    -467.78543819 Ry
     estimated scf accuracy    <          2.3E-09 Ry

     iteration # 22     ecut=    50.00 Ry     beta= 0.60
     Davidson diagonalization with overlap
     ethr =  4.14E-12,  avg # of iterations =  1.0

     total cpu time spent up to now is      806.7 secs

     total energy              =    -467.78543819 Ry
     Harris-Foulkes estimate   =    -467.78543819 Ry
     estimated scf accuracy    <          2.4E-10 Ry

     iteration # 23     ecut=    50.00 Ry     beta= 0.60
     Davidson diagonalization with overlap
     ethr =  4.85E-13,  avg # of iterations =  4.5

     total cpu time spent up to now is      845.5 secs

     total energy              =    -467.78543819 Ry
     Harris-Foulkes estimate   =    -467.78543819 Ry
     estimated scf accuracy    <          2.8E-10 Ry

     iteration # 24     ecut=    50.00 Ry     beta= 0.60
     Davidson diagonalization with overlap
     ethr =  4.85E-13,  avg # of iterations =  1.0

     total cpu time spent up to now is      870.8 secs

     End of self-consistent calculation

     Number of k-points >= 100: set verbosity='high' to print the bands.

     the Fermi energy is    11.0607 ev

!    total energy              =    -467.78543819 Ry
     Harris-Foulkes estimate   =    -467.78543819 Ry
     estimated scf accuracy    <          3.6E-11 Ry

     The total energy is the sum of the following terms:

     one-electron contribution =    -177.29488697 Ry
     hartree contribution      =      99.81218032 Ry
     xc contribution           =     -61.37506843 Ry
     ewald contribution        =    -328.92682956 Ry
     smearing contrib. (-TS)   =      -0.00083355 Ry

     convergence has been achieved in  24 iterations

     Forces acting on atoms (cartesian axes, Ry/au):

     atom    1 type  2   force =    -0.00085173   -0.00085173   -0.01060242
     atom    2 type  2   force =    -0.00000752   -0.00000752    0.00000591
     atom    3 type  2   force =     0.00085572    0.00085572    0.01059905
     atom    4 type  1   force =     0.00000353    0.00000353   -0.00000253

     Total force =     0.015089     Total SCF correction =     0.000007


     Computing stress (Cartesian axis) and pressure

          total   stress  (Ry/bohr**3)                   (kbar)     P= -184.07
  -0.00125112  -0.00000364   0.00000808       -184.05     -0.54      1.19
  -0.00000364  -0.00125112   0.00000808         -0.54   -184.05      1.19
   0.00000808   0.00000808  -0.00125154          1.19      1.19   -184.11


     BFGS Geometry Optimization

     number of scf cycles    =   1
     number of bfgs steps    =   0

     enthalpy new            =    -467.7854381915 Ry

     new trust radius        =       0.1515756510 bohr
     new conv_thr            =            1.0E-10 Ry

     new unit-cell volume =    533.32158 a.u.^3 (    79.03010 Ang^3 )
     density =      4.96937 g/cm^3

CELL_PARAMETERS (alat=  1.88972599)
   1.702528230   1.702528230  -1.702315084
  -3.406407593   3.406407593   0.000000000
   1.703949137   1.703949137   5.109787066

ATOMIC_POSITIONS (angstrom)
Ti      -1.703606619   5.109208568   1.698300794
Ti       0.000386257   3.406793851   3.406764556
Ti       0.000509528   6.813324715   3.412905449
Nb      -0.000318529   3.406089065   0.000709157


     NEW-OLD atomic charge density approx. for the potential
     extrapolated charge   44.39858, renormalised to   49.00000

     total cpu time spent up to now is      885.8 secs

     Self-consistent Calculation

     iteration #  1     ecut=    50.00 Ry     beta= 0.60
     Davidson diagonalization with overlap
     c_bands:  1 eigenvalues not converged
     c_bands:  3 eigenvalues not converged
     c_bands:  1 eigenvalues not converged
     c_bands:  1 eigenvalues not converged
     c_bands:  1 eigenvalues not converged
     c_bands:  4 eigenvalues not converged
     c_bands:  1 eigenvalues not converged
     c_bands:  2 eigenvalues not converged
     c_bands:  1 eigenvalues not converged
     c_bands:  1 eigenvalues not converged
     c_bands:  1 eigenvalues not converged
     c_bands:  2 eigenvalues not converged
     c_bands:  1 eigenvalues not converged
     c_bands:  1 eigenvalues not converged
     c_bands:  1 eigenvalues not converged
     c_bands:  1 eigenvalues not converged
     c_bands:  2 eigenvalues not converged
     c_bands:  1 eigenvalues not converged
     c_bands:  1 eigenvalues not converged
     c_bands:  1 eigenvalues not converged
     c_bands:  1 eigenvalues not converged
     c_bands:  1 eigenvalues not converged
     c_bands:  1 eigenvalues not converged
     c_bands:  1 eigenvalues not converged
     c_bands:  1 eigenvalues not converged
     c_bands:  3 eigenvalues not converged
     c_bands:  2 eigenvalues not converged
     c_bands:  1 eigenvalues not converged
     c_bands:  1 eigenvalues not converged
     c_bands:  1 eigenvalues not converged
     c_bands:  3 eigenvalues not converged
     c_bands:  1 eigenvalues not converged
     c_bands:  2 eigenvalues not converged
     c_bands:  1 eigenvalues not converged
     c_bands:  1 eigenvalues not converged
     c_bands:  1 eigenvalues not converged
     c_bands:  1 eigenvalues not converged
     c_bands:  1 eigenvalues not converged
     c_bands:  1 eigenvalues not converged
     c_bands:  1 eigenvalues not converged
     c_bands:  1 eigenvalues not converged
     c_bands:  1 eigenvalues not converged
     c_bands:  1 eigenvalues not converged
     c_bands:  2 eigenvalues not converged
     c_bands:  1 eigenvalues not converged
     c_bands:  1 eigenvalues not converged
     c_bands:  1 eigenvalues not converged
     c_bands:  1 eigenvalues not converged
     c_bands:  2 eigenvalues not converged
     c_bands:  1 eigenvalues not converged
     c_bands:  1 eigenvalues not converged
     c_bands:  1 eigenvalues not converged
     c_bands:  1 eigenvalues not converged
     c_bands:  1 eigenvalues not converged
     c_bands:  1 eigenvalues not converged
     c_bands:  1 eigenvalues not converged
     c_bands:  1 eigenvalues not converged
     c_bands:  2 eigenvalues not converged
     c_bands:  2 eigenvalues not converged
     c_bands:  1 eigenvalues not converged
     c_bands:  1 eigenvalues not converged
     c_bands:  1 eigenvalues not converged
     ethr =  1.00E-06,  avg # of iterations = 15.3

     total cpu time spent up to now is      994.8 secs

     total energy              =    -455.58754486 Ry
     Harris-Foulkes estimate   =    -479.91932974 Ry
     estimated scf accuracy    <      13.05919445 Ry

     iteration #  2     ecut=    50.00 Ry     beta= 0.60
     Davidson diagonalization with overlap
     ethr =  1.00E-02,  avg # of iterations =  5.4

     total cpu time spent up to now is     1048.8 secs

     total energy              =    -465.79666883 Ry
     Harris-Foulkes estimate   =    -485.92087087 Ry
     estimated scf accuracy    <      65.93715947 Ry

     iteration #  3     ecut=    50.00 Ry     beta= 0.60
     Davidson diagonalization with overlap
     ethr =  1.00E-02,  avg # of iterations =  4.3

     total cpu time spent up to now is     1091.3 secs

     total energy              =    -468.67467499 Ry
     Harris-Foulkes estimate   =    -470.57089180 Ry
     estimated scf accuracy    <       8.01666062 Ry

     iteration #  4     ecut=    50.00 Ry     beta= 0.60
     Davidson diagonalization with overlap
     ethr =  1.00E-02,  avg # of iterations =  1.5

     total cpu time spent up to now is     1117.8 secs

     total energy              =    -468.22758288 Ry
     Harris-Foulkes estimate   =    -468.97342452 Ry
     estimated scf accuracy    <       6.74803139 Ry

     iteration #  5     ecut=    50.00 Ry     beta= 0.60
     Davidson diagonalization with overlap
     ethr =  1.00E-02,  avg # of iterations =  1.2

     total cpu time spent up to now is     1143.5 secs

     total energy              =    -467.68759630 Ry
     Harris-Foulkes estimate   =    -468.36031740 Ry
     estimated scf accuracy    <       3.63800999 Ry

     iteration #  6     ecut=    50.00 Ry     beta= 0.60
     Davidson diagonalization with overlap
     ethr =  7.42E-03,  avg # of iterations =  2.2

     total cpu time spent up to now is     1171.0 secs

     total energy              =    -467.95436457 Ry
     Harris-Foulkes estimate   =    -467.84442861 Ry
     estimated scf accuracy    <       0.92282358 Ry

     iteration #  7     ecut=    50.00 Ry     beta= 0.60
     Davidson diagonalization with overlap
     ethr =  1.88E-03,  avg # of iterations =  3.2

     total cpu time spent up to now is     1201.7 secs

     total energy              =    -467.85542199 Ry
     Harris-Foulkes estimate   =    -468.02599462 Ry
     estimated scf accuracy    <       1.44888087 Ry

     iteration #  8     ecut=    50.00 Ry     beta= 0.60
     Davidson diagonalization with overlap
     ethr =  1.88E-03,  avg # of iterations =  1.6

     total cpu time spent up to now is     1228.1 secs

     total energy              =    -467.86243536 Ry
     Harris-Foulkes estimate   =    -467.88646125 Ry
     estimated scf accuracy    <       0.59779601 Ry

     iteration #  9     ecut=    50.00 Ry     beta= 0.60
     Davidson diagonalization with overlap
     ethr =  1.22E-03,  avg # of iterations =  2.5

     total cpu time spent up to now is     1256.1 secs

     total energy              =    -467.89053760 Ry
     Harris-Foulkes estimate   =    -467.87806476 Ry
     estimated scf accuracy    <       0.42333569 Ry

     iteration # 10     ecut=    50.00 Ry     beta= 0.60
     Davidson diagonalization with overlap
     ethr =  8.64E-04,  avg # of iterations =  1.7

     total cpu time spent up to now is     1282.6 secs

     total energy              =    -467.76439125 Ry
     Harris-Foulkes estimate   =    -467.89601503 Ry
     estimated scf accuracy    <       0.45548774 Ry

     iteration # 11     ecut=    50.00 Ry     beta= 0.60
     Davidson diagonalization with overlap
     ethr =  8.64E-04,  avg # of iterations =  5.3

     total cpu time spent up to now is     1322.4 secs

     total energy              =    -467.83589141 Ry
     Harris-Foulkes estimate   =    -467.84434054 Ry
     estimated scf accuracy    <       0.06625657 Ry

     iteration # 12     ecut=    50.00 Ry     beta= 0.60
     Davidson diagonalization with overlap
     ethr =  1.35E-04,  avg # of iterations =  4.6

     total cpu time spent up to now is     1355.7 secs

     total energy              =    -467.84185021 Ry
     Harris-Foulkes estimate   =    -467.84249157 Ry
     estimated scf accuracy    <       0.00650340 Ry

     iteration # 13     ecut=    50.00 Ry     beta= 0.60
     Davidson diagonalization with overlap
     c_bands:  1 eigenvalues not converged
     ethr =  1.33E-05,  avg # of iterations =  7.8

     total cpu time spent up to now is     1407.1 secs

     total energy              =    -467.84244955 Ry
     Harris-Foulkes estimate   =    -467.84382278 Ry
     estimated scf accuracy    <       0.00484838 Ry

     iteration # 14     ecut=    50.00 Ry     beta= 0.60
     Davidson diagonalization with overlap
     ethr =  9.89E-06,  avg # of iterations =  2.9

     total cpu time spent up to now is     1436.2 secs

     total energy              =    -467.84282087 Ry
     Harris-Foulkes estimate   =    -467.84296764 Ry
     estimated scf accuracy    <       0.00245475 Ry

     iteration # 15     ecut=    50.00 Ry     beta= 0.60
     Davidson diagonalization with overlap
     ethr =  5.01E-06,  avg # of iterations =  2.6

     total cpu time spent up to now is     1464.9 secs

     total energy              =    -467.84266047 Ry
     Harris-Foulkes estimate   =    -467.84315251 Ry
     estimated scf accuracy    <       0.00162867 Ry

     iteration # 16     ecut=    50.00 Ry     beta= 0.60
     Davidson diagonalization with overlap
     ethr =  3.32E-06,  avg # of iterations =  3.8

     total cpu time spent up to now is     1499.9 secs

     total energy              =    -467.84288929 Ry
     Harris-Foulkes estimate   =    -467.84293956 Ry
     estimated scf accuracy    <       0.00078223 Ry

     iteration # 17     ecut=    50.00 Ry     beta= 0.60
     Davidson diagonalization with overlap
     c_bands:  1 eigenvalues not converged
     c_bands:  1 eigenvalues not converged
     c_bands:  1 eigenvalues not converged
     ethr =  1.60E-06,  avg # of iterations =  2.0

     total cpu time spent up to now is     1527.0 secs

     total energy              =    -467.84286736 Ry
     Harris-Foulkes estimate   =    -467.84290820 Ry
     estimated scf accuracy    <       0.00035286 Ry

     iteration # 18     ecut=    50.00 Ry     beta= 0.60
     Davidson diagonalization with overlap
     ethr =  7.20E-07,  avg # of iterations =  2.8

     total cpu time spent up to now is     1556.3 secs

     total energy              =    -467.84285257 Ry
     Harris-Foulkes estimate   =    -467.84289729 Ry
     estimated scf accuracy    <       0.00023662 Ry

     iteration # 19     ecut=    50.00 Ry     beta= 0.60
     Davidson diagonalization with overlap
     ethr =  4.83E-07,  avg # of iterations =  2.7

     total cpu time spent up to now is     1585.9 secs

     total energy              =    -467.84286895 Ry
     Harris-Foulkes estimate   =    -467.84287386 Ry
     estimated scf accuracy    <       0.00003684 Ry

     iteration # 20     ecut=    50.00 Ry     beta= 0.60
     Davidson diagonalization with overlap
     c_bands:  1 eigenvalues not converged
     c_bands:  1 eigenvalues not converged
     ethr =  7.52E-08,  avg # of iterations =  3.6

     total cpu time spent up to now is     1619.0 secs

     total energy              =    -467.84287468 Ry
     Harris-Foulkes estimate   =    -467.84287559 Ry
     estimated scf accuracy    <       0.00000788 Ry

     iteration # 21     ecut=    50.00 Ry     beta= 0.60
     Davidson diagonalization with overlap
     ethr =  1.61E-08,  avg # of iterations =  3.0

     total cpu time spent up to now is     1649.4 secs

     total energy              =    -467.84287532 Ry
     Harris-Foulkes estimate   =    -467.84287554 Ry
     estimated scf accuracy    <       0.00000099 Ry

     iteration # 22     ecut=    50.00 Ry     beta= 0.60
     Davidson diagonalization with overlap
     c_bands:  1 eigenvalues not converged
     ethr =  2.03E-09,  avg # of iterations =  4.9

     total cpu time spent up to now is     1689.7 secs

     total energy              =    -467.84287549 Ry
     Harris-Foulkes estimate   =    -467.84287574 Ry
     estimated scf accuracy    <       0.00000229 Ry

     iteration # 23     ecut=    50.00 Ry     beta= 0.60
     Davidson diagonalization with overlap
     ethr =  2.03E-09,  avg # of iterations =  1.3

     total cpu time spent up to now is     1715.5 secs

     total energy              =    -467.84287557 Ry
     Harris-Foulkes estimate   =    -467.84287559 Ry
     estimated scf accuracy    <       0.00000020 Ry

     iteration # 24     ecut=    50.00 Ry     beta= 0.60
     Davidson diagonalization with overlap
     ethr =  4.07E-10,  avg # of iterations =  4.0

     total cpu time spent up to now is     1751.8 secs

     total energy              =    -467.84287561 Ry
     Harris-Foulkes estimate   =    -467.84287561 Ry
     estimated scf accuracy    <       0.00000004 Ry

     iteration # 25     ecut=    50.00 Ry     beta= 0.60
     Davidson diagonalization with overlap
     ethr =  8.08E-11,  avg # of iterations =  1.6

     total cpu time spent up to now is     1778.1 secs

     total energy              =    -467.84287561 Ry
     Harris-Foulkes estimate   =    -467.84287561 Ry
     estimated scf accuracy    <       0.00000002 Ry

     iteration # 26     ecut=    50.00 Ry     beta= 0.60
     Davidson diagonalization with overlap
     ethr =  4.02E-11,  avg # of iterations =  1.1

     total cpu time spent up to now is     1803.6 secs

     total energy              =    -467.84287561 Ry
     Harris-Foulkes estimate   =    -467.84287561 Ry
     estimated scf accuracy    <          8.1E-09 Ry

     iteration # 27     ecut=    50.00 Ry     beta= 0.60
     Davidson diagonalization with overlap
     ethr =  1.66E-11,  avg # of iterations =  3.8

     total cpu time spent up to now is     1836.2 secs

     total energy              =    -467.84287561 Ry
     Harris-Foulkes estimate   =    -467.84287561 Ry
     estimated scf accuracy    <          7.2E-10 Ry

     iteration # 28     ecut=    50.00 Ry     beta= 0.60
     Davidson diagonalization with overlap
     ethr =  1.47E-12,  avg # of iterations =  4.6

     total cpu time spent up to now is     1873.6 secs

     total energy              =    -467.84287561 Ry
     Harris-Foulkes estimate   =    -467.84287561 Ry
     estimated scf accuracy    <          3.8E-10 Ry

     iteration # 29     ecut=    50.00 Ry     beta= 0.60
     Davidson diagonalization with overlap
     ethr =  7.79E-13,  avg # of iterations =  1.6

     total cpu time spent up to now is     1899.8 secs

     End of self-consistent calculation

     Number of k-points >= 100: set verbosity='high' to print the bands.

     the Fermi energy is    12.4431 ev

!    total energy              =    -467.84287561 Ry
     Harris-Foulkes estimate   =    -467.84287561 Ry
     estimated scf accuracy    <          2.1E-11 Ry

     The total energy is the sum of the following terms:

     one-electron contribution =    -161.37523288 Ry
     hartree contribution      =      94.70904227 Ry
     xc contribution           =     -61.64182710 Ry
     ewald contribution        =    -339.53428496 Ry
     smearing contrib. (-TS)   =      -0.00057293 Ry

     convergence has been achieved in  29 iterations

     Forces acting on atoms (cartesian axes, Ry/au):

     atom    1 type  2   force =     0.00063006    0.00063006   -0.00937097
     atom    2 type  2   force =    -0.00000579   -0.00000579    0.00000448
     atom    3 type  2   force =    -0.00062569   -0.00062569    0.00936856
     atom    4 type  1   force =     0.00000142    0.00000142   -0.00000208

     Total force =     0.013310     Total SCF correction =     0.000003


     Computing stress (Cartesian axis) and pressure

          total   stress  (Ry/bohr**3)                   (kbar)     P= -126.39
  -0.00086076   0.00000144   0.00000508       -126.62      0.21      0.75
   0.00000144  -0.00086076   0.00000508          0.21   -126.62      0.75
   0.00000508   0.00000508  -0.00085605          0.75      0.75   -125.93


     number of scf cycles    =   2
     number of bfgs steps    =   1

     enthalpy old            =    -467.7854381915 Ry
     enthalpy new            =    -467.8428756132 Ry

     CASE: enthalpy_new < enthalpy_old

     new trust radius        =       0.2237818951 bohr
     new conv_thr            =            1.0E-10 Ry

     new unit-cell volume =    459.62603 a.u.^3 (    68.10955 Ang^3 )
     density =      5.76615 g/cm^3

CELL_PARAMETERS (alat=  1.88972599)
   1.619641693   1.619641693  -1.619244938
  -3.241124776   3.241124776   0.000000000
   1.623079318   1.623079318   4.864609864

ATOMIC_POSITIONS (angstrom)
Ti      -1.619499501   4.862750051   1.607218067
Ti       0.001647501   3.242772277   3.243653955
Ti       0.001338209   6.483587761   3.260825042
Nb      -0.000058009   3.241066767   0.001715251


     NEW-OLD atomic charge density approx. for the potential
     extrapolated charge   41.62491, renormalised to   49.00000

     total cpu time spent up to now is     1915.6 secs

     Self-consistent Calculation

     iteration #  1     ecut=    50.00 Ry     beta= 0.60
     Davidson diagonalization with overlap
     c_bands:  1 eigenvalues not converged
     c_bands:  1 eigenvalues not converged
     c_bands:  1 eigenvalues not converged
     c_bands:  1 eigenvalues not converged
     c_bands:  2 eigenvalues not converged
     c_bands:  1 eigenvalues not converged
     c_bands:  1 eigenvalues not converged
     c_bands:  1 eigenvalues not converged
     c_bands:  1 eigenvalues not converged
     ethr =  1.00E-06,  avg # of iterations = 15.8

     total cpu time spent up to now is     2030.5 secs

     total energy              =    -445.43227934 Ry
     Harris-Foulkes estimate   =    -485.52079699 Ry
     estimated scf accuracy    <      23.91225587 Ry

     iteration #  2     ecut=    50.00 Ry     beta= 0.60
     Davidson diagonalization with overlap
     ethr =  1.00E-02,  avg # of iterations =  7.0

     total cpu time spent up to now is     2093.7 secs

     total energy              =    -464.99299296 Ry
     Harris-Foulkes estimate   =    -495.44054797 Ry
     estimated scf accuracy    <      90.56284714 Ry

     iteration #  3     ecut=    50.00 Ry     beta= 0.60
     Davidson diagonalization with overlap
     ethr =  1.00E-02,  avg # of iterations =  4.7

     total cpu time spent up to now is     2143.8 secs

     total energy              =    -469.25208459 Ry
     Harris-Foulkes estimate   =    -472.06774949 Ry
     estimated scf accuracy    <      11.52821686 Ry

     iteration #  4     ecut=    50.00 Ry     beta= 0.60
     Davidson diagonalization with overlap
     ethr =  1.00E-02,  avg # of iterations =  1.9

     total cpu time spent up to now is     2171.0 secs

     total energy              =    -468.41581712 Ry
     Harris-Foulkes estimate   =    -469.79457234 Ry
     estimated scf accuracy    <       9.59271164 Ry

     iteration #  5     ecut=    50.00 Ry     beta= 0.60
     Davidson diagonalization with overlap
     ethr =  1.00E-02,  avg # of iterations =  1.3

     total cpu time spent up to now is     2197.0 secs

     total energy              =    -467.86038492 Ry
     Harris-Foulkes estimate   =    -468.65932592 Ry
     estimated scf accuracy    <       4.31351380 Ry

     iteration #  6     ecut=    50.00 Ry     beta= 0.60
     Davidson diagonalization with overlap
     ethr =  8.80E-03,  avg # of iterations =  1.7

     total cpu time spent up to now is     2223.6 secs

     total energy              =    -468.14027158 Ry
     Harris-Foulkes estimate   =    -468.01651856 Ry
     estimated scf accuracy    <       1.45497549 Ry

     iteration #  7     ecut=    50.00 Ry     beta= 0.60
     Davidson diagonalization with overlap
     ethr =  2.97E-03,  avg # of iterations =  1.9

     total cpu time spent up to now is     2250.5 secs

     total energy              =    -467.71428173 Ry
     Harris-Foulkes estimate   =    -468.19999741 Ry
     estimated scf accuracy    <       2.26246242 Ry

     iteration #  8     ecut=    50.00 Ry     beta= 0.60
     Davidson diagonalization with overlap
     ethr =  2.97E-03,  avg # of iterations =  3.3

     total cpu time spent up to now is     2281.8 secs

     total energy              =    -467.88123436 Ry
     Harris-Foulkes estimate   =    -467.87420300 Ry
     estimated scf accuracy    <       0.22501590 Ry

     iteration #  9     ecut=    50.00 Ry     beta= 0.60
     Davidson diagonalization with overlap
     ethr =  4.59E-04,  avg # of iterations =  6.1

     total cpu time spent up to now is     2323.3 secs

     total energy              =    -468.03655801 Ry
     Harris-Foulkes estimate   =    -467.91489483 Ry
     estimated scf accuracy    <       0.18381694 Ry

     iteration # 10     ecut=    50.00 Ry     beta= 0.60
     Davidson diagonalization with overlap
     ethr =  3.75E-04,  avg # of iterations =  4.6

     total cpu time spent up to now is     2360.6 secs

     total energy              =    -467.66777068 Ry
     Harris-Foulkes estimate   =    -468.09587087 Ry
     estimated scf accuracy    <       1.19602768 Ry

     iteration # 11     ecut=    50.00 Ry     beta= 0.60
     Davidson diagonalization with overlap
     ethr =  3.75E-04,  avg # of iterations =  5.0

     total cpu time spent up to now is     2409.6 secs

     total energy              =    -467.84110698 Ry
     Harris-Foulkes estimate   =    -467.89476765 Ry
     estimated scf accuracy    <       0.27458773 Ry

     iteration # 12     ecut=    50.00 Ry     beta= 0.60
     Davidson diagonalization with overlap
     ethr =  3.75E-04,  avg # of iterations =  2.7

     total cpu time spent up to now is     2438.4 secs

     total energy              =    -467.86691229 Ry
     Harris-Foulkes estimate   =    -467.87125214 Ry
     estimated scf accuracy    <       0.02474702 Ry

     iteration # 13     ecut=    50.00 Ry     beta= 0.60
     Davidson diagonalization with overlap
     ethr =  5.05E-05,  avg # of iterations =  5.0

     total cpu time spent up to now is     2478.8 secs

     total energy              =    -467.87359338 Ry
     Harris-Foulkes estimate   =    -467.87469470 Ry
     estimated scf accuracy    <       0.01374611 Ry

     iteration # 14     ecut=    50.00 Ry     beta= 0.60
     Davidson diagonalization with overlap
     ethr =  2.81E-05,  avg # of iterations =  1.2

     total cpu time spent up to now is     2504.5 secs

     total energy              =    -467.87307456 Ry
     Harris-Foulkes estimate   =    -467.87466984 Ry
     estimated scf accuracy    <       0.01290735 Ry

     iteration # 15     ecut=    50.00 Ry     beta= 0.60
     Davidson diagonalization with overlap
     ethr =  2.63E-05,  avg # of iterations =  1.4

     total cpu time spent up to now is     2530.5 secs

     total energy              =    -467.87343719 Ry
     Harris-Foulkes estimate   =    -467.87359191 Ry
     estimated scf accuracy    <       0.00340637 Ry

     iteration # 16     ecut=    50.00 Ry     beta= 0.60
     Davidson diagonalization with overlap
     c_bands:  1 eigenvalues not converged
     c_bands:  1 eigenvalues not converged
     c_bands:  1 eigenvalues not converged
     ethr =  6.95E-06,  avg # of iterations =  3.9

     total cpu time spent up to now is     2562.2 secs

     total energy              =    -467.87321920 Ry
     Harris-Foulkes estimate   =    -467.87362660 Ry
     estimated scf accuracy    <       0.00224072 Ry

     iteration # 17     ecut=    50.00 Ry     beta= 0.60
     Davidson diagonalization with overlap
     c_bands:  1 eigenvalues not converged
     c_bands:  1 eigenvalues not converged
     c_bands:  1 eigenvalues not converged
     c_bands:  1 eigenvalues not converged
     c_bands:  1 eigenvalues not converged
     ethr =  4.57E-06,  avg # of iterations =  4.8

     total cpu time spent up to now is     2597.3 secs

     total energy              =    -467.87347607 Ry
     Harris-Foulkes estimate   =    -467.87357523 Ry
     estimated scf accuracy    <       0.00052206 Ry

     iteration # 18     ecut=    50.00 Ry     beta= 0.60
     Davidson diagonalization with overlap
     c_bands:  1 eigenvalues not converged
     c_bands:  1 eigenvalues not converged
     c_bands:  1 eigenvalues not converged
     c_bands:  1 eigenvalues not converged
     c_bands:  1 eigenvalues not converged
     c_bands:  1 eigenvalues not converged
     c_bands:  1 eigenvalues not converged
     c_bands:  1 eigenvalues not converged
     ethr =  1.07E-06,  avg # of iterations =  3.9

     total cpu time spent up to now is     2629.3 secs

     total energy              =    -467.87351731 Ry
     Harris-Foulkes estimate   =    -467.87352621 Ry
     estimated scf accuracy    <       0.00004679 Ry

     iteration # 19     ecut=    50.00 Ry     beta= 0.60
     Davidson diagonalization with overlap
     ethr =  9.55E-08,  avg # of iterations =  4.6

     total cpu time spent up to now is     2668.0 secs

     total energy              =    -467.87353385 Ry
     Harris-Foulkes estimate   =    -467.87353593 Ry
     estimated scf accuracy    <       0.00002199 Ry

     iteration # 20     ecut=    50.00 Ry     beta= 0.60
     Davidson diagonalization with overlap
     ethr =  4.49E-08,  avg # of iterations =  1.0

     total cpu time spent up to now is     2693.3 secs

     total energy              =    -467.87353347 Ry
     Harris-Foulkes estimate   =    -467.87353441 Ry
     estimated scf accuracy    <       0.00000803 Ry

     iteration # 21     ecut=    50.00 Ry     beta= 0.60
     Davidson diagonalization with overlap
     ethr =  1.64E-08,  avg # of iterations =  3.1

     total cpu time spent up to now is     2724.1 secs

     total energy              =    -467.87353413 Ry
     Harris-Foulkes estimate   =    -467.87353416 Ry
     estimated scf accuracy    <       0.00000031 Ry

     iteration # 22     ecut=    50.00 Ry     beta= 0.60
     Davidson diagonalization with overlap
     ethr =  6.36E-10,  avg # of iterations =  4.9

     total cpu time spent up to now is     2763.3 secs

     total energy              =    -467.87353423 Ry
     Harris-Foulkes estimate   =    -467.87353425 Ry
     estimated scf accuracy    <       0.00000006 Ry

     iteration # 23     ecut=    50.00 Ry     beta= 0.60
     Davidson diagonalization with overlap
     ethr =  1.22E-10,  avg # of iterations =  4.3

     total cpu time spent up to now is     2801.7 secs

     total energy              =    -467.87353424 Ry
     Harris-Foulkes estimate   =    -467.87353427 Ry
     estimated scf accuracy    <       0.00000022 Ry

     iteration # 24     ecut=    50.00 Ry     beta= 0.60
     Davidson diagonalization with overlap
     ethr =  1.22E-10,  avg # of iterations =  3.1

     total cpu time spent up to now is     2832.5 secs

     total energy              =    -467.87353424 Ry
     Harris-Foulkes estimate   =    -467.87353425 Ry
     estimated scf accuracy    <       0.00000002 Ry

     iteration # 25     ecut=    50.00 Ry     beta= 0.60
     Davidson diagonalization with overlap
     ethr =  3.08E-11,  avg # of iterations =  4.0

     total cpu time spent up to now is     2867.7 secs

     total energy              =    -467.87353425 Ry
     Harris-Foulkes estimate   =    -467.87353425 Ry
     estimated scf accuracy    <          8.7E-10 Ry

     iteration # 26     ecut=    50.00 Ry     beta= 0.60
     Davidson diagonalization with overlap
     ethr =  1.77E-12,  avg # of iterations =  4.3

     total cpu time spent up to now is     2902.9 secs

     total energy              =    -467.87353425 Ry
     Harris-Foulkes estimate   =    -467.87353425 Ry
     estimated scf accuracy    <          3.7E-10 Ry

     iteration # 27     ecut=    50.00 Ry     beta= 0.60
     Davidson diagonalization with overlap
     ethr =  7.54E-13,  avg # of iterations =  1.5

     total cpu time spent up to now is     2929.3 secs

     total energy              =    -467.87353425 Ry
     Harris-Foulkes estimate   =    -467.87353425 Ry
     estimated scf accuracy    <          1.2E-10 Ry

     iteration # 28     ecut=    50.00 Ry     beta= 0.60
     Davidson diagonalization with overlap
     ethr =  2.38E-13,  avg # of iterations =  3.8

     total cpu time spent up to now is     2964.4 secs

     End of self-consistent calculation

     Number of k-points >= 100: set verbosity='high' to print the bands.

     the Fermi energy is    14.8550 ev

!    total energy              =    -467.87353425 Ry
     Harris-Foulkes estimate   =    -467.87353425 Ry
     estimated scf accuracy    <          2.5E-11 Ry

     The total energy is the sum of the following terms:

     one-electron contribution =    -135.93727223 Ry
     hartree contribution      =      86.95052287 Ry
     xc contribution           =     -62.13101048 Ry
     ewald contribution        =    -356.75536421 Ry
     smearing contrib. (-TS)   =      -0.00041019 Ry

     convergence has been achieved in  28 iterations

     Forces acting on atoms (cartesian axes, Ry/au):

     atom    1 type  2   force =     0.00426842    0.00426842   -0.00509228
     atom    2 type  2   force =    -0.00000226   -0.00000226    0.00000136
     atom    3 type  2   force =    -0.00426519   -0.00426519    0.00509136
     atom    4 type  1   force =    -0.00000097   -0.00000097   -0.00000044

     Total force =     0.011166     Total SCF correction =     0.000005


     Computing stress (Cartesian axis) and pressure

          total   stress  (Ry/bohr**3)                   (kbar)     P=   22.66
   0.00015008   0.00001356  -0.00000442         22.08      1.99     -0.65
   0.00001356   0.00015008  -0.00000442          1.99     22.08     -0.65
  -0.00000442  -0.00000442   0.00016199         -0.65     -0.65     23.83


     number of scf cycles    =   3
     number of bfgs steps    =   2

     enthalpy old            =    -467.8428756132 Ry
     enthalpy new            =    -467.8735342474 Ry

     CASE: enthalpy_new < enthalpy_old

     new trust radius        =       0.0303605944 bohr
     new conv_thr            =            1.0E-10 Ry

     new unit-cell volume =    469.25749 a.u.^3 (    69.53678 Ang^3 )
     density =      5.64780 g/cm^3

CELL_PARAMETERS (alat=  1.88972599)
   1.631378793   1.631378793  -1.631086749
  -3.262522703   3.262522703   0.000000000
   1.634081360   1.634081360   4.898665095

ATOMIC_POSITIONS (angstrom)
Ti      -1.627911019   4.897134387   1.617018507
Ti       0.002133875   3.264656578   3.266235137
Ti       0.001063527   6.526108934   3.284344542
Nb       0.000795889   3.263318593   0.001347679


     NEW-OLD atomic charge density approx. for the potential
     extrapolated charge   49.94409, renormalised to   49.00000

     total cpu time spent up to now is     2980.1 secs

     Self-consistent Calculation

     iteration #  1     ecut=    50.00 Ry     beta= 0.60
     Davidson diagonalization with overlap
     c_bands:  1 eigenvalues not converged
     c_bands:  1 eigenvalues not converged
     c_bands:  1 eigenvalues not converged
     c_bands:  1 eigenvalues not converged
     c_bands:  1 eigenvalues not converged
     c_bands:  1 eigenvalues not converged
     ethr =  1.00E-06,  avg # of iterations = 11.3

     total cpu time spent up to now is     3061.2 secs

     total energy              =    -467.74152437 Ry
     Harris-Foulkes estimate   =    -465.96137039 Ry
     estimated scf accuracy    <       0.11347455 Ry

     iteration #  2     ecut=    50.00 Ry     beta= 0.60
     Davidson diagonalization with overlap
     ethr =  2.32E-04,  avg # of iterations =  5.0

     total cpu time spent up to now is     3115.2 secs

     total energy              =    -467.72397181 Ry
     Harris-Foulkes estimate   =    -468.06744933 Ry
     estimated scf accuracy    <       1.91728258 Ry

     iteration #  3     ecut=    50.00 Ry     beta= 0.60
     Davidson diagonalization with overlap
     ethr =  2.32E-04,  avg # of iterations =  4.8

     total cpu time spent up to now is     3160.4 secs

     total energy              =    -467.85573685 Ry
     Harris-Foulkes estimate   =    -467.91706614 Ry
     estimated scf accuracy    <       0.25865915 Ry

     iteration #  4     ecut=    50.00 Ry     beta= 0.60
     Davidson diagonalization with overlap
     ethr =  2.32E-04,  avg # of iterations =  3.4

     total cpu time spent up to now is     3194.1 secs

     total energy              =    -467.87661224 Ry
     Harris-Foulkes estimate   =    -467.88520082 Ry
     estimated scf accuracy    <       0.09457828 Ry

     iteration #  5     ecut=    50.00 Ry     beta= 0.60
     Davidson diagonalization with overlap
     ethr =  1.93E-04,  avg # of iterations =  1.0

     total cpu time spent up to now is     3220.0 secs

     total energy              =    -467.87748391 Ry
     Harris-Foulkes estimate   =    -467.88078083 Ry
     estimated scf accuracy    <       0.03086311 Ry

     iteration #  6     ecut=    50.00 Ry     beta= 0.60
     Davidson diagonalization with overlap
     ethr =  6.30E-05,  avg # of iterations =  1.1

     total cpu time spent up to now is     3246.0 secs

     total energy              =    -467.87509682 Ry
     Harris-Foulkes estimate   =    -467.87804546 Ry
     estimated scf accuracy    <       0.02043470 Ry

     iteration #  7     ecut=    50.00 Ry     beta= 0.60
     Davidson diagonalization with overlap
     ethr =  4.17E-05,  avg # of iterations =  2.0

     total cpu time spent up to now is     3273.7 secs

     total energy              =    -467.87429027 Ry
     Harris-Foulkes estimate   =    -467.87573725 Ry
     estimated scf accuracy    <       0.00970776 Ry

     iteration #  8     ecut=    50.00 Ry     beta= 0.60
     Davidson diagonalization with overlap
     c_bands:  1 eigenvalues not converged
     ethr =  1.98E-05,  avg # of iterations =  3.2

     total cpu time spent up to now is     3303.9 secs

     total energy              =    -467.87444934 Ry
     Harris-Foulkes estimate   =    -467.87473136 Ry
     estimated scf accuracy    <       0.00392106 Ry

     iteration #  9     ecut=    50.00 Ry     beta= 0.60
     Davidson diagonalization with overlap
     c_bands:  1 eigenvalues not converged
     c_bands:  1 eigenvalues not converged
     c_bands:  2 eigenvalues not converged
     ethr =  8.00E-06,  avg # of iterations =  4.0

     total cpu time spent up to now is     3334.9 secs

     total energy              =    -467.87449179 Ry
     Harris-Foulkes estimate   =    -467.87457426 Ry
     estimated scf accuracy    <       0.00253643 Ry

     iteration # 10     ecut=    50.00 Ry     beta= 0.60
     Davidson diagonalization with overlap
     c_bands:  1 eigenvalues not converged
     c_bands:  1 eigenvalues not converged
     ethr =  5.18E-06,  avg # of iterations =  1.8

     total cpu time spent up to now is     3362.0 secs

     total energy              =    -467.87388629 Ry
     Harris-Foulkes estimate   =    -467.87453438 Ry
     estimated scf accuracy    <       0.00205255 Ry

     iteration # 11     ecut=    50.00 Ry     beta= 0.60
     Davidson diagonalization with overlap
     ethr =  4.19E-06,  avg # of iterations =  3.9

     total cpu time spent up to now is     3398.2 secs

     total energy              =    -467.87420999 Ry
     Harris-Foulkes estimate   =    -467.87421084 Ry
     estimated scf accuracy    <       0.00000515 Ry

     iteration # 12     ecut=    50.00 Ry     beta= 0.60
     Davidson diagonalization with overlap
     c_bands:  1 eigenvalues not converged
     c_bands:  1 eigenvalues not converged
     c_bands:  1 eigenvalues not converged
     c_bands:  1 eigenvalues not converged
     c_bands:  1 eigenvalues not converged
     c_bands:  1 eigenvalues not converged
     ethr =  1.05E-08,  avg # of iterations =  5.8

     total cpu time spent up to now is     3454.4 secs

     total energy              =    -467.87423284 Ry
     Harris-Foulkes estimate   =    -467.87423405 Ry
     estimated scf accuracy    <       0.00001449 Ry

     iteration # 13     ecut=    50.00 Ry     beta= 0.60
     Davidson diagonalization with overlap
     c_bands:  1 eigenvalues not converged
     ethr =  1.05E-08,  avg # of iterations =  1.4

     total cpu time spent up to now is     3480.8 secs

     total energy              =    -467.87423172 Ry
     Harris-Foulkes estimate   =    -467.87423318 Ry
     estimated scf accuracy    <       0.00000637 Ry

     iteration # 14     ecut=    50.00 Ry     beta= 0.60
     Davidson diagonalization with overlap
     ethr =  1.05E-08,  avg # of iterations =  4.3

     total cpu time spent up to now is     3519.7 secs

     total energy              =    -467.87423165 Ry
     Harris-Foulkes estimate   =    -467.87423481 Ry
     estimated scf accuracy    <       0.00002848 Ry

     iteration # 15     ecut=    50.00 Ry     beta= 0.60
     Davidson diagonalization with overlap
     ethr =  1.05E-08,  avg # of iterations =  3.5

     total cpu time spent up to now is     3552.6 secs

     total energy              =    -467.87423265 Ry
     Harris-Foulkes estimate   =    -467.87423281 Ry
     estimated scf accuracy    <       0.00000148 Ry

     iteration # 16     ecut=    50.00 Ry     beta= 0.60
     Davidson diagonalization with overlap
     ethr =  3.02E-09,  avg # of iterations =  3.1

     total cpu time spent up to now is     3583.1 secs

     total energy              =    -467.87423277 Ry
     Harris-Foulkes estimate   =    -467.87423277 Ry
     estimated scf accuracy    <       0.00000014 Ry

     iteration # 17     ecut=    50.00 Ry     beta= 0.60
     Davidson diagonalization with overlap
     ethr =  2.80E-10,  avg # of iterations =  4.6

     total cpu time spent up to now is     3621.8 secs

     total energy              =    -467.87423280 Ry
     Harris-Foulkes estimate   =    -467.87423280 Ry
     estimated scf accuracy    <       0.00000003 Ry

     iteration # 18     ecut=    50.00 Ry     beta= 0.60
     Davidson diagonalization with overlap
     ethr =  5.47E-11,  avg # of iterations =  3.7

     total cpu time spent up to now is     3655.0 secs

     total energy              =    -467.87423280 Ry
     Harris-Foulkes estimate   =    -467.87423280 Ry
     estimated scf accuracy    <       0.00000001 Ry

     iteration # 19     ecut=    50.00 Ry     beta= 0.60
     Davidson diagonalization with overlap
     ethr =  2.20E-11,  avg # of iterations =  1.7

     total cpu time spent up to now is     3682.1 secs

     total energy              =    -467.87423280 Ry
     Harris-Foulkes estimate   =    -467.87423280 Ry
     estimated scf accuracy    <          4.2E-09 Ry

     iteration # 20     ecut=    50.00 Ry     beta= 0.60
     Davidson diagonalization with overlap
     ethr =  8.50E-12,  avg # of iterations =  2.6

     total cpu time spent up to now is     3710.8 secs

     total energy              =    -467.87423280 Ry
     Harris-Foulkes estimate   =    -467.87423280 Ry
     estimated scf accuracy    <          2.4E-09 Ry

     iteration # 21     ecut=    50.00 Ry     beta= 0.60
     Davidson diagonalization with overlap
     ethr =  4.92E-12,  avg # of iterations =  3.2

     total cpu time spent up to now is     3742.4 secs

     End of self-consistent calculation

     Number of k-points >= 100: set verbosity='high' to print the bands.

     the Fermi energy is    14.4978 ev

!    total energy              =    -467.87423280 Ry
     Harris-Foulkes estimate   =    -467.87423280 Ry
     estimated scf accuracy    <          8.2E-11 Ry

     The total energy is the sum of the following terms:

     one-electron contribution =    -139.54012210 Ry
     hartree contribution      =      88.02241221 Ry
     xc contribution           =     -62.05747837 Ry
     ewald contribution        =    -354.29869266 Ry
     smearing contrib. (-TS)   =      -0.00035189 Ry

     convergence has been achieved in  21 iterations

     Forces acting on atoms (cartesian axes, Ry/au):

     atom    1 type  2   force =     0.00363078    0.00363078   -0.00603354
     atom    2 type  2   force =    -0.00000270   -0.00000270    0.00000121
     atom    3 type  2   force =    -0.00362659   -0.00362659    0.00603291
     atom    4 type  1   force =    -0.00000149   -0.00000149   -0.00000059

     Total force =     0.011201     Total SCF correction =     0.000009


     Computing stress (Cartesian axis) and pressure

          total   stress  (Ry/bohr**3)                   (kbar)     P=   -3.27
  -0.00002605   0.00001137  -0.00000222         -3.83      1.67     -0.33
   0.00001137  -0.00002605  -0.00000222          1.67     -3.83     -0.33
  -0.00000222  -0.00000222  -0.00001468         -0.33     -0.33     -2.16


     number of scf cycles    =   4
     number of bfgs steps    =   3

     enthalpy old            =    -467.8735342474 Ry
     enthalpy new            =    -467.8742328031 Ry

     CASE: enthalpy_new < enthalpy_old

     new trust radius        =       0.0069696365 bohr
     new conv_thr            =            1.0E-10 Ry

     new unit-cell volume =    468.46296 a.u.^3 (    69.41905 Ang^3 )
     density =      5.65738 g/cm^3

CELL_PARAMETERS (alat=  1.88972599)
   1.630839948   1.630839948  -1.630632791
  -3.259506650   3.259506650   0.000000000
   1.633191271   1.633191271   4.896600578

ATOMIC_POSITIONS (angstrom)
Ti      -1.623917866   4.895095434   1.613413680
Ti       0.002838360   3.262345010   3.264800836
Ti       0.000960996   6.519974295   3.285533213
Nb       0.001676610   3.261183259   0.001171737


     NEW-OLD atomic charge density approx. for the potential
     extrapolated charge   48.92199, renormalised to   49.00000

     total cpu time spent up to now is     3758.3 secs

     Self-consistent Calculation

     iteration #  1     ecut=    50.00 Ry     beta= 0.60
     Davidson diagonalization with overlap
     ethr =  1.00E-06,  avg # of iterations =  4.0

     total cpu time spent up to now is     3810.4 secs

     total energy              =    -467.87339077 Ry
     Harris-Foulkes estimate   =    -468.03430458 Ry
     estimated scf accuracy    <       0.00085669 Ry

     iteration #  2     ecut=    50.00 Ry     beta= 0.60
     Davidson diagonalization with overlap
     c_bands:  1 eigenvalues not converged
     ethr =  1.75E-06,  avg # of iterations =  5.2

     total cpu time spent up to now is     3864.7 secs

     total energy              =    -467.87335983 Ry
     Harris-Foulkes estimate   =    -467.87557350 Ry
     estimated scf accuracy    <       0.01168406 Ry

     iteration #  3     ecut=    50.00 Ry     beta= 0.60
     Davidson diagonalization with overlap
     ethr =  1.75E-06,  avg # of iterations =  5.6

     total cpu time spent up to now is     3912.0 secs

     total energy              =    -467.87403927 Ry
     Harris-Foulkes estimate   =    -467.87484099 Ry
     estimated scf accuracy    <       0.00482891 Ry

     iteration #  4     ecut=    50.00 Ry     beta= 0.60
     Davidson diagonalization with overlap
     ethr =  1.75E-06,  avg # of iterations =  6.2

     total cpu time spent up to now is     3955.6 secs

     total energy              =    -467.87428786 Ry
     Harris-Foulkes estimate   =    -467.87452423 Ry
     estimated scf accuracy    <       0.00174539 Ry

     iteration #  5     ecut=    50.00 Ry     beta= 0.60
     Davidson diagonalization with overlap
     ethr =  1.75E-06,  avg # of iterations =  2.2

     total cpu time spent up to now is     3983.9 secs

     total energy              =    -467.87438144 Ry
     Harris-Foulkes estimate   =    -467.87440125 Ry
     estimated scf accuracy    <       0.00022303 Ry

     iteration #  6     ecut=    50.00 Ry     beta= 0.60
     Davidson diagonalization with overlap
     ethr =  4.55E-07,  avg # of iterations =  3.8

     total cpu time spent up to now is     4016.7 secs

     total energy              =    -467.87435816 Ry
     Harris-Foulkes estimate   =    -467.87440016 Ry
     estimated scf accuracy    <       0.00020497 Ry

     iteration #  7     ecut=    50.00 Ry     beta= 0.60
     Davidson diagonalization with overlap
     ethr =  4.18E-07,  avg # of iterations =  1.1

     total cpu time spent up to now is     4042.8 secs

     total energy              =    -467.87435108 Ry
     Harris-Foulkes estimate   =    -467.87436525 Ry
     estimated scf accuracy    <       0.00006698 Ry

     iteration #  8     ecut=    50.00 Ry     beta= 0.60
     Davidson diagonalization with overlap
     ethr =  1.37E-07,  avg # of iterations =  2.9

     total cpu time spent up to now is     4074.8 secs

     total energy              =    -467.87435742 Ry
     Harris-Foulkes estimate   =    -467.87435972 Ry
     estimated scf accuracy    <       0.00000540 Ry

     iteration #  9     ecut=    50.00 Ry     beta= 0.60
     Davidson diagonalization with overlap
     ethr =  1.10E-08,  avg # of iterations =  4.5

     total cpu time spent up to now is     4115.6 secs

     total energy              =    -467.87435989 Ry
     Harris-Foulkes estimate   =    -467.87436002 Ry
     estimated scf accuracy    <       0.00000501 Ry

     iteration # 10     ecut=    50.00 Ry     beta= 0.60
     Davidson diagonalization with overlap
     ethr =  1.02E-08,  avg # of iterations =  1.0

     total cpu time spent up to now is     4141.4 secs

     total energy              =    -467.87435985 Ry
     Harris-Foulkes estimate   =    -467.87435995 Ry
     estimated scf accuracy    <       0.00000403 Ry

     iteration # 11     ecut=    50.00 Ry     beta= 0.60
     Davidson diagonalization with overlap
     ethr =  8.22E-09,  avg # of iterations =  1.0

     total cpu time spent up to now is     4167.0 secs

     total energy              =    -467.87435945 Ry
     Harris-Foulkes estimate   =    -467.87435987 Ry
     estimated scf accuracy    <       0.00000314 Ry

     iteration # 12     ecut=    50.00 Ry     beta= 0.60
     Davidson diagonalization with overlap
     ethr =  6.41E-09,  avg # of iterations =  1.0

     total cpu time spent up to now is     4192.7 secs

     total energy              =    -467.87435950 Ry
     Harris-Foulkes estimate   =    -467.87435957 Ry
     estimated scf accuracy    <       0.00000055 Ry

     iteration # 13     ecut=    50.00 Ry     beta= 0.60
     Davidson diagonalization with overlap
     ethr =  1.12E-09,  avg # of iterations =  4.0

     total cpu time spent up to now is     4230.2 secs

     total energy              =    -467.87435962 Ry
     Harris-Foulkes estimate   =    -467.87435964 Ry
     estimated scf accuracy    <       0.00000024 Ry

     iteration # 14     ecut=    50.00 Ry     beta= 0.60
     Davidson diagonalization with overlap
     ethr =  4.87E-10,  avg # of iterations =  1.0

     total cpu time spent up to now is     4256.0 secs

     total energy              =    -467.87435961 Ry
     Harris-Foulkes estimate   =    -467.87435962 Ry
     estimated scf accuracy    <       0.00000007 Ry

     iteration # 15     ecut=    50.00 Ry     beta= 0.60
     Davidson diagonalization with overlap
     ethr =  1.51E-10,  avg # of iterations =  3.5

     total cpu time spent up to now is     4290.3 secs

     total energy              =    -467.87435962 Ry
     Harris-Foulkes estimate   =    -467.87435962 Ry
     estimated scf accuracy    <          8.5E-09 Ry

     iteration # 16     ecut=    50.00 Ry     beta= 0.60
     Davidson diagonalization with overlap
     ethr =  1.73E-11,  avg # of iterations =  3.1

     total cpu time spent up to now is     4323.0 secs

     total energy              =    -467.87435962 Ry
     Harris-Foulkes estimate   =    -467.87435962 Ry
     estimated scf accuracy    <          2.1E-09 Ry

     iteration # 17     ecut=    50.00 Ry     beta= 0.60
     Davidson diagonalization with overlap
     ethr =  4.37E-12,  avg # of iterations =  4.0

     total cpu time spent up to now is     4360.5 secs

     total energy              =    -467.87435962 Ry
     Harris-Foulkes estimate   =    -467.87435962 Ry
     estimated scf accuracy    <          3.6E-09 Ry

     iteration # 18     ecut=    50.00 Ry     beta= 0.60
     Davidson diagonalization with overlap
     ethr =  4.37E-12,  avg # of iterations =  1.8

     total cpu time spent up to now is     4387.6 secs

     total energy              =    -467.87435962 Ry
     Harris-Foulkes estimate   =    -467.87435962 Ry
     estimated scf accuracy    <          3.8E-10 Ry

     iteration # 19     ecut=    50.00 Ry     beta= 0.60
     Davidson diagonalization with overlap
     ethr =  7.81E-13,  avg # of iterations =  4.0

     total cpu time spent up to now is     4426.0 secs

     total energy              =    -467.87435962 Ry
     Harris-Foulkes estimate   =    -467.87435962 Ry
     estimated scf accuracy    <          4.2E-10 Ry

     iteration # 20     ecut=    50.00 Ry     beta= 0.60
     Davidson diagonalization with overlap
     ethr =  7.81E-13,  avg # of iterations =  1.0

     total cpu time spent up to now is     4451.8 secs

     total energy              =    -467.87435962 Ry
     Harris-Foulkes estimate   =    -467.87435962 Ry
     estimated scf accuracy    <          1.5E-10 Ry

     iteration # 21     ecut=    50.00 Ry     beta= 0.60
     Davidson diagonalization with overlap
     ethr =  3.07E-13,  avg # of iterations =  2.9

     total cpu time spent up to now is     4482.1 secs

     End of self-consistent calculation

     Number of k-points >= 100: set verbosity='high' to print the bands.

     the Fermi energy is    14.5259 ev

!    total energy              =    -467.87435962 Ry
     Harris-Foulkes estimate   =    -467.87435962 Ry
     estimated scf accuracy    <          6.8E-12 Ry

     The total energy is the sum of the following terms:

     one-electron contribution =    -139.25638982 Ry
     hartree contribution      =      87.93954930 Ry
     xc contribution           =     -62.06359554 Ry
     ewald contribution        =    -354.49360169 Ry
     smearing contrib. (-TS)   =      -0.00032187 Ry

     convergence has been achieved in  21 iterations

     Forces acting on atoms (cartesian axes, Ry/au):

     atom    1 type  2   force =     0.00365799    0.00365799   -0.00605033
     atom    2 type  2   force =    -0.00000264   -0.00000264    0.00000147
     atom    3 type  2   force =    -0.00365376   -0.00365376    0.00604905
     atom    4 type  1   force =    -0.00000159   -0.00000159   -0.00000019

     Total force =     0.011254     Total SCF correction =     0.000005


     Computing stress (Cartesian axis) and pressure

          total   stress  (Ry/bohr**3)                   (kbar)     P=   -1.22
  -0.00001211   0.00001127  -0.00000217         -1.78      1.66     -0.32
   0.00001127  -0.00001211  -0.00000217          1.66     -1.78     -0.32
  -0.00000217  -0.00000217  -0.00000057         -0.32     -0.32     -0.08


     number of scf cycles    =   5
     number of bfgs steps    =   4

     enthalpy old            =    -467.8742328031 Ry
     enthalpy new            =    -467.8743596189 Ry

     CASE: enthalpy_new < enthalpy_old


     WARNING: bfgs curvature condition failed, Theta= 0.870
     new trust radius        =       0.0104512138 bohr
     new conv_thr            =            1.0E-10 Ry

     new unit-cell volume =    467.83747 a.u.^3 (    69.32636 Ang^3 )
     density =      5.66494 g/cm^3

CELL_PARAMETERS (alat=  1.88972599)
   1.630686193   1.630686193  -1.630613168
  -3.256293830   3.256293830   0.000000000
   1.632507367   1.632507367   4.895481158

ATOMIC_POSITIONS (angstrom)
Ti      -1.618571798   4.894015861   1.608675341
Ti       0.003891538   3.260185368   3.263967137
Ti       0.000786963   6.513374622   3.288621187
Nb       0.002995708   3.259289538   0.000906311


     NEW-OLD atomic charge density approx. for the potential
     extrapolated charge   48.93850, renormalised to   49.00000

     total cpu time spent up to now is     4497.8 secs

     Self-consistent Calculation

     iteration #  1     ecut=    50.00 Ry     beta= 0.60
     Davidson diagonalization with overlap
     ethr =  1.00E-06,  avg # of iterations =  4.1

     total cpu time spent up to now is     4551.8 secs

     total energy              =    -467.87390376 Ry
     Harris-Foulkes estimate   =    -468.00043131 Ry
     estimated scf accuracy    <       0.00059590 Ry

     iteration #  2     ecut=    50.00 Ry     beta= 0.60
     Davidson diagonalization with overlap
     c_bands:  1 eigenvalues not converged
     c_bands:  1 eigenvalues not converged
     ethr =  1.22E-06,  avg # of iterations =  5.3

     total cpu time spent up to now is     4606.0 secs

     total energy              =    -467.87359436 Ry
     Harris-Foulkes estimate   =    -467.87546951 Ry
     estimated scf accuracy    <       0.01161861 Ry

     iteration #  3     ecut=    50.00 Ry     beta= 0.60
     Davidson diagonalization with overlap
     ethr =  1.22E-06,  avg # of iterations =  5.5

     total cpu time spent up to now is     4651.9 secs

     total energy              =    -467.87434010 Ry
     Harris-Foulkes estimate   =    -467.87488834 Ry
     estimated scf accuracy    <       0.00373780 Ry

     iteration #  4     ecut=    50.00 Ry     beta= 0.60
     Davidson diagonalization with overlap
     ethr =  1.22E-06,  avg # of iterations =  4.9

     total cpu time spent up to now is     4689.3 secs

     total energy              =    -467.87451959 Ry
     Harris-Foulkes estimate   =    -467.87459171 Ry
     estimated scf accuracy    <       0.00038077 Ry

     iteration #  5     ecut=    50.00 Ry     beta= 0.60
     Davidson diagonalization with overlap
     ethr =  7.77E-07,  avg # of iterations =  2.2

     total cpu time spent up to now is     4717.3 secs

     total energy              =    -467.87454849 Ry
     Harris-Foulkes estimate   =    -467.87456260 Ry
     estimated scf accuracy    <       0.00012300 Ry

     iteration #  6     ecut=    50.00 Ry     beta= 0.60
     Davidson diagonalization with overlap
     ethr =  2.51E-07,  avg # of iterations =  2.4

     total cpu time spent up to now is     4745.6 secs

     total energy              =    -467.87452093 Ry
     Harris-Foulkes estimate   =    -467.87455350 Ry
     estimated scf accuracy    <       0.00008907 Ry

     iteration #  7     ecut=    50.00 Ry     beta= 0.60
     Davidson diagonalization with overlap
     ethr =  1.82E-07,  avg # of iterations =  3.0

     total cpu time spent up to now is     4777.9 secs

     total energy              =    -467.87453255 Ry
     Harris-Foulkes estimate   =    -467.87453314 Ry
     estimated scf accuracy    <       0.00000229 Ry

     iteration #  8     ecut=    50.00 Ry     beta= 0.60
     Davidson diagonalization with overlap
     ethr =  4.66E-09,  avg # of iterations =  4.6

     total cpu time spent up to now is     4823.9 secs

     total energy              =    -467.87453386 Ry
     Harris-Foulkes estimate   =    -467.87453427 Ry
     estimated scf accuracy    <       0.00000420 Ry

     iteration #  9     ecut=    50.00 Ry     beta= 0.60
     Davidson diagonalization with overlap
     ethr =  4.66E-09,  avg # of iterations =  1.0

     total cpu time spent up to now is     4849.3 secs

     total energy              =    -467.87453398 Ry
     Harris-Foulkes estimate   =    -467.87453404 Ry
     estimated scf accuracy    <       0.00000039 Ry

     iteration # 10     ecut=    50.00 Ry     beta= 0.60
     Davidson diagonalization with overlap
     ethr =  7.93E-10,  avg # of iterations =  4.2

     total cpu time spent up to now is     4885.5 secs

     total energy              =    -467.87453402 Ry
     Harris-Foulkes estimate   =    -467.87453406 Ry
     estimated scf accuracy    <       0.00000021 Ry

     iteration # 11     ecut=    50.00 Ry     beta= 0.60
     Davidson diagonalization with overlap
     ethr =  4.38E-10,  avg # of iterations =  1.1

     total cpu time spent up to now is     4911.2 secs

     total energy              =    -467.87453402 Ry
     Harris-Foulkes estimate   =    -467.87453403 Ry
     estimated scf accuracy    <       0.00000005 Ry

     iteration # 12     ecut=    50.00 Ry     beta= 0.60
     Davidson diagonalization with overlap
     ethr =  1.10E-10,  avg # of iterations =  4.1

     total cpu time spent up to now is     4947.8 secs

     total energy              =    -467.87453403 Ry
     Harris-Foulkes estimate   =    -467.87453404 Ry
     estimated scf accuracy    <       0.00000005 Ry

     iteration # 13     ecut=    50.00 Ry     beta= 0.60
     Davidson diagonalization with overlap
     ethr =  9.43E-11,  avg # of iterations =  1.0

     total cpu time spent up to now is     4973.4 secs

     total energy              =    -467.87453403 Ry
     Harris-Foulkes estimate   =    -467.87453403 Ry
     estimated scf accuracy    <       0.00000001 Ry

     iteration # 14     ecut=    50.00 Ry     beta= 0.60
     Davidson diagonalization with overlap
     ethr =  2.78E-11,  avg # of iterations =  3.1

     total cpu time spent up to now is     5004.2 secs

     total energy              =    -467.87453403 Ry
     Harris-Foulkes estimate   =    -467.87453403 Ry
     estimated scf accuracy    <          3.9E-09 Ry

     iteration # 15     ecut=    50.00 Ry     beta= 0.60
     Davidson diagonalization with overlap
     ethr =  8.05E-12,  avg # of iterations =  2.9

     total cpu time spent up to now is     5034.1 secs

     total energy              =    -467.87453403 Ry
     Harris-Foulkes estimate   =    -467.87453403 Ry
     estimated scf accuracy    <          1.1E-09 Ry

     iteration # 16     ecut=    50.00 Ry     beta= 0.60
     Davidson diagonalization with overlap
     ethr =  2.20E-12,  avg # of iterations =  3.7

     total cpu time spent up to now is     5068.3 secs

     total energy              =    -467.87453403 Ry
     Harris-Foulkes estimate   =    -467.87453403 Ry
     estimated scf accuracy    <          2.6E-10 Ry

     iteration # 17     ecut=    50.00 Ry     beta= 0.60
     Davidson diagonalization with overlap
     ethr =  5.35E-13,  avg # of iterations =  2.1

     total cpu time spent up to now is     5096.1 secs

     total energy              =    -467.87453403 Ry
     Harris-Foulkes estimate   =    -467.87453403 Ry
     estimated scf accuracy    <          1.0E-10 Ry

     iteration # 18     ecut=    50.00 Ry     beta= 0.60
     Davidson diagonalization with overlap
     ethr =  2.05E-13,  avg # of iterations =  3.2

     total cpu time spent up to now is     5126.9 secs

     End of self-consistent calculation

     Number of k-points >= 100: set verbosity='high' to print the bands.

     the Fermi energy is    14.5475 ev

!    total energy              =    -467.87453403 Ry
     Harris-Foulkes estimate   =    -467.87453403 Ry
     estimated scf accuracy    <          3.3E-12 Ry

     The total energy is the sum of the following terms:

     one-electron contribution =    -139.04069276 Ry
     hartree contribution      =      87.87818091 Ry
     xc contribution           =     -62.06856621 Ry
     ewald contribution        =    -354.64318171 Ry
     smearing contrib. (-TS)   =      -0.00027427 Ry

     convergence has been achieved in  18 iterations

     Forces acting on atoms (cartesian axes, Ry/au):

     atom    1 type  2   force =     0.00366672    0.00366672   -0.00609792
     atom    2 type  2   force =    -0.00000266   -0.00000266    0.00000126
     atom    3 type  2   force =    -0.00366230   -0.00366230    0.00609702
     atom    4 type  1   force =    -0.00000176   -0.00000176   -0.00000036

     Total force =     0.011317     Total SCF correction =     0.000003


     Computing stress (Cartesian axis) and pressure

          total   stress  (Ry/bohr**3)                   (kbar)     P=    0.46
  -0.00000079   0.00001093  -0.00000210         -0.12      1.61     -0.31
   0.00001093  -0.00000079  -0.00000210          1.61     -0.12     -0.31
  -0.00000210  -0.00000210   0.00001096         -0.31     -0.31      1.61


     number of scf cycles    =   6
     number of bfgs steps    =   5

     enthalpy old            =    -467.8743596189 Ry
     enthalpy new            =    -467.8745340322 Ry

     CASE: enthalpy_new < enthalpy_old

     new trust radius        =       0.0156758590 bohr
     new conv_thr            =            1.0E-10 Ry

     new unit-cell volume =    467.26022 a.u.^3 (    69.24082 Ang^3 )
     density =      5.67194 g/cm^3

CELL_PARAMETERS (alat=  1.88972599)
   1.630861680   1.630861680  -1.631003872
  -3.252330243   3.252330243   0.000000000
   1.631891575   1.631891575   4.895070309

ATOMIC_POSITIONS (angstrom)
Ti      -1.610997034   4.893663452   1.601986728
Ti       0.005452557   3.257782800   3.263562638
Ti       0.000483310   6.505143796   3.294106707
Nb       0.004953576   3.257283819   0.000510021


     NEW-OLD atomic charge density approx. for the potential
     extrapolated charge   48.94318, renormalised to   49.00000

     total cpu time spent up to now is     5142.6 secs

     Self-consistent Calculation

     iteration #  1     ecut=    50.00 Ry     beta= 0.60
     Davidson diagonalization with overlap
     ethr =  1.00E-06,  avg # of iterations =  4.6

     total cpu time spent up to now is     5198.1 secs

     total energy              =    -467.87413415 Ry
     Harris-Foulkes estimate   =    -467.99100367 Ry
     estimated scf accuracy    <       0.00070273 Ry

     iteration #  2     ecut=    50.00 Ry     beta= 0.60
     Davidson diagonalization with overlap
     c_bands:  1 eigenvalues not converged
     c_bands:  1 eigenvalues not converged
     c_bands:  1 eigenvalues not converged
     c_bands:  1 eigenvalues not converged
     c_bands:  1 eigenvalues not converged
     c_bands:  1 eigenvalues not converged
     c_bands:  1 eigenvalues not converged
     c_bands:  1 eigenvalues not converged
     c_bands:  1 eigenvalues not converged
     c_bands:  1 eigenvalues not converged
     ethr =  1.43E-06,  avg # of iterations =  5.7

     total cpu time spent up to now is     5251.4 secs

     total energy              =    -467.87319480 Ry
     Harris-Foulkes estimate   =    -467.87623576 Ry
     estimated scf accuracy    <       0.02258060 Ry

     iteration #  3     ecut=    50.00 Ry     beta= 0.60
     Davidson diagonalization with overlap
     ethr =  1.43E-06,  avg # of iterations =  5.9

     total cpu time spent up to now is     5299.3 secs

     total energy              =    -467.87467076 Ry
     Harris-Foulkes estimate   =    -467.87508436 Ry
     estimated scf accuracy    <       0.00266627 Ry

     iteration #  4     ecut=    50.00 Ry     beta= 0.60
     Davidson diagonalization with overlap
     ethr =  1.43E-06,  avg # of iterations =  3.4

     total cpu time spent up to now is     5330.7 secs

     total energy              =    -467.87478908 Ry
     Harris-Foulkes estimate   =    -467.87480585 Ry
     estimated scf accuracy    <       0.00012795 Ry

     iteration #  5     ecut=    50.00 Ry     beta= 0.60
     Davidson diagonalization with overlap
     ethr =  2.61E-07,  avg # of iterations =  3.9

     total cpu time spent up to now is     5363.8 secs

     total energy              =    -467.87478917 Ry
     Harris-Foulkes estimate   =    -467.87480458 Ry
     estimated scf accuracy    <       0.00006348 Ry

     iteration #  6     ecut=    50.00 Ry     beta= 0.60
     Davidson diagonalization with overlap
[...]

     Dense  grid:    88689 G-vectors     FFT dimensions: (  40,  64,  75)

     Smooth grid:    22429 G-vectors     FFT dimensions: (  25,  40,  48)

     Estimated max dynamical RAM per process >     269.63 MB

     Estimated total dynamical RAM >       1.05 GB

     Initial potential from superposition of free atoms

     starting charge   45.99713, renormalised to   49.00000
     Starting wfcs are   43 randomized atomic wfcs

     total cpu time spent up to now is    19166.8 secs

     Self-consistent Calculation

     iteration #  1     ecut=    50.00 Ry     beta= 0.60
     Davidson diagonalization with overlap
     c_bands:  2 eigenvalues not converged
     c_bands:  1 eigenvalues not converged
     c_bands:  1 eigenvalues not converged
     c_bands:  2 eigenvalues not converged
     c_bands:  1 eigenvalues not converged
     c_bands:  1 eigenvalues not converged
     c_bands:  1 eigenvalues not converged
     c_bands:  1 eigenvalues not converged
     c_bands:  1 eigenvalues not converged
     c_bands:  2 eigenvalues not converged
     c_bands:  1 eigenvalues not converged
     c_bands:  1 eigenvalues not converged
     c_bands:  1 eigenvalues not converged
     c_bands:  1 eigenvalues not converged
     c_bands:  1 eigenvalues not converged
     c_bands:  1 eigenvalues not converged
     c_bands:  1 eigenvalues not converged
     c_bands:  1 eigenvalues not converged
     c_bands:  1 eigenvalues not converged
     c_bands:  1 eigenvalues not converged
     c_bands:  1 eigenvalues not converged
     c_bands:  1 eigenvalues not converged
     c_bands:  1 eigenvalues not converged
     c_bands:  1 eigenvalues not converged
     c_bands:  2 eigenvalues not converged
     c_bands:  1 eigenvalues not converged
     c_bands:  1 eigenvalues not converged
     c_bands:  1 eigenvalues not converged
     c_bands:  1 eigenvalues not converged
     c_bands:  1 eigenvalues not converged
     c_bands:  1 eigenvalues not converged
     c_bands:  1 eigenvalues not converged
     c_bands:  2 eigenvalues not converged
     c_bands:  1 eigenvalues not converged
     c_bands:  1 eigenvalues not converged
     c_bands:  1 eigenvalues not converged
     c_bands:  1 eigenvalues not converged
     c_bands:  1 eigenvalues not converged
     c_bands:  1 eigenvalues not converged
     c_bands:  1 eigenvalues not converged
     c_bands:  1 eigenvalues not converged
     c_bands:  2 eigenvalues not converged
     c_bands:  1 eigenvalues not converged
     c_bands:  1 eigenvalues not converged
     c_bands:  1 eigenvalues not converged
     c_bands:  1 eigenvalues not converged
     c_bands:  1 eigenvalues not converged
     c_bands:  1 eigenvalues not converged
     c_bands:  1 eigenvalues not converged
     c_bands:  2 eigenvalues not converged
     c_bands:  1 eigenvalues not converged
     c_bands:  1 eigenvalues not converged
     c_bands:  2 eigenvalues not converged
     c_bands:  1 eigenvalues not converged
     c_bands:  1 eigenvalues not converged
     c_bands:  1 eigenvalues not converged
     c_bands:  2 eigenvalues not converged
     c_bands:  1 eigenvalues not converged
     c_bands:  1 eigenvalues not converged
     c_bands:  1 eigenvalues not converged
     c_bands:  1 eigenvalues not converged
     c_bands:  2 eigenvalues not converged
     c_bands:  1 eigenvalues not converged
     c_bands:  1 eigenvalues not converged
     c_bands:  1 eigenvalues not converged
     c_bands:  1 eigenvalues not converged
     c_bands:  1 eigenvalues not converged
     c_bands:  1 eigenvalues not converged
     c_bands:  1 eigenvalues not converged
     c_bands:  1 eigenvalues not converged
     c_bands:  1 eigenvalues not converged
     c_bands:  1 eigenvalues not converged
     c_bands:  1 eigenvalues not converged
     c_bands:  1 eigenvalues not converged
     c_bands:  1 eigenvalues not converged
     c_bands:  1 eigenvalues not converged
     c_bands:  1 eigenvalues not converged
     c_bands:  1 eigenvalues not converged
     c_bands:  1 eigenvalues not converged
     c_bands:  1 eigenvalues not converged
     c_bands:  1 eigenvalues not converged
     c_bands:  1 eigenvalues not converged
     c_bands:  1 eigenvalues not converged
     c_bands:  1 eigenvalues not converged
     c_bands:  1 eigenvalues not converged
     c_bands:  1 eigenvalues not converged
     c_bands:  1 eigenvalues not converged
     c_bands:  2 eigenvalues not converged
     c_bands:  1 eigenvalues not converged
     c_bands:  1 eigenvalues not converged
     c_bands:  1 eigenvalues not converged
     c_bands:  2 eigenvalues not converged
     c_bands:  2 eigenvalues not converged
     c_bands:  1 eigenvalues not converged
     c_bands:  1 eigenvalues not converged
     c_bands:  2 eigenvalues not converged
     c_bands:  2 eigenvalues not converged
     c_bands:  1 eigenvalues not converged
     c_bands:  2 eigenvalues not converged
     c_bands:  1 eigenvalues not converged
     c_bands:  1 eigenvalues not converged
     c_bands:  1 eigenvalues not converged
     c_bands:  1 eigenvalues not converged
     c_bands:  1 eigenvalues not converged
     c_bands:  1 eigenvalues not converged
     c_bands:  1 eigenvalues not converged
     c_bands:  1 eigenvalues not converged
     c_bands:  1 eigenvalues not converged
     c_bands:  1 eigenvalues not converged
     c_bands:  1 eigenvalues not converged
     c_bands:  1 eigenvalues not converged
     c_bands:  1 eigenvalues not converged
     c_bands:  1 eigenvalues not converged
     c_bands:  1 eigenvalues not converged
     c_bands:  2 eigenvalues not converged
     c_bands:  2 eigenvalues not converged
     c_bands:  2 eigenvalues not converged
     c_bands:  2 eigenvalues not converged
     c_bands:  2 eigenvalues not converged
     c_bands:  1 eigenvalues not converged
     c_bands:  1 eigenvalues not converged
     c_bands:  1 eigenvalues not converged
     c_bands:  1 eigenvalues not converged
     c_bands:  1 eigenvalues not converged
     c_bands:  2 eigenvalues not converged
     c_bands:  1 eigenvalues not converged
     c_bands:  1 eigenvalues not converged
     c_bands:  2 eigenvalues not converged
     c_bands:  2 eigenvalues not converged
     c_bands:  2 eigenvalues not converged
     c_bands:  1 eigenvalues not converged
     c_bands:  1 eigenvalues not converged
     c_bands:  1 eigenvalues not converged
     c_bands:  1 eigenvalues not converged
     c_bands:  1 eigenvalues not converged
     c_bands:  1 eigenvalues not converged
     c_bands:  1 eigenvalues not converged
     c_bands:  1 eigenvalues not converged
     c_bands:  1 eigenvalues not converged
     c_bands:  1 eigenvalues not converged
     c_bands:  1 eigenvalues not converged
     c_bands:  1 eigenvalues not converged
     c_bands:  1 eigenvalues not converged
     c_bands:  1 eigenvalues not converged
     c_bands:  1 eigenvalues not converged
     c_bands:  1 eigenvalues not converged
     c_bands:  1 eigenvalues not converged
     c_bands:  1 eigenvalues not converged
     c_bands:  1 eigenvalues not converged
     c_bands:  2 eigenvalues not converged
     c_bands:  2 eigenvalues not converged
     c_bands:  2 eigenvalues not converged
     c_bands:  1 eigenvalues not converged
     c_bands:  2 eigenvalues not converged
     c_bands:  1 eigenvalues not converged
     c_bands:  1 eigenvalues not converged
     c_bands:  1 eigenvalues not converged
     c_bands:  1 eigenvalues not converged
     c_bands:  1 eigenvalues not converged
     c_bands:  1 eigenvalues not converged
     c_bands:  1 eigenvalues not converged
     c_bands:  3 eigenvalues not converged
     c_bands:  1 eigenvalues not converged
     c_bands:  1 eigenvalues not converged
     c_bands:  1 eigenvalues not converged
     c_bands:  1 eigenvalues not converged
     c_bands:  1 eigenvalues not converged
     c_bands:  1 eigenvalues not converged
     c_bands:  1 eigenvalues not converged
     c_bands:  1 eigenvalues not converged
     ethr =  1.00E-06,  avg # of iterations = 15.6

     total cpu time spent up to now is    19252.2 secs

     total energy              =    -464.52504245 Ry
     Harris-Foulkes estimate   =    -469.24942529 Ry
     estimated scf accuracy    <       6.12281707 Ry

     iteration #  2     ecut=    50.00 Ry     beta= 0.60
     Davidson diagonalization with overlap
     ethr =  1.00E-02,  avg # of iterations =  4.7

     total cpu time spent up to now is    19289.2 secs

     total energy              =    -463.79364155 Ry
     Harris-Foulkes estimate   =    -475.27446606 Ry
     estimated scf accuracy    <      40.13086613 Ry

     iteration #  3     ecut=    50.00 Ry     beta= 0.60
     Davidson diagonalization with overlap
     ethr =  1.00E-02,  avg # of iterations =  4.6

     total cpu time spent up to now is    19322.3 secs

     total energy              =    -467.67042864 Ry
     Harris-Foulkes estimate   =    -467.90682557 Ry
     estimated scf accuracy    <       0.63706462 Ry

     iteration #  4     ecut=    50.00 Ry     beta= 0.60
     Davidson diagonalization with overlap
     ethr =  1.30E-03,  avg # of iterations =  5.8

     total cpu time spent up to now is    19361.9 secs

     total energy              =    -467.49441144 Ry
     Harris-Foulkes estimate   =    -468.22171204 Ry
     estimated scf accuracy    <       6.36474673 Ry

     iteration #  5     ecut=    50.00 Ry     beta= 0.60
     Davidson diagonalization with overlap
     ethr =  1.30E-03,  avg # of iterations =  5.3

     total cpu time spent up to now is    19391.2 secs

     total energy              =    -467.85350549 Ry
     Harris-Foulkes estimate   =    -467.88199186 Ry
     estimated scf accuracy    <       0.11900057 Ry

     iteration #  6     ecut=    50.00 Ry     beta= 0.60
     Davidson diagonalization with overlap
     ethr =  2.43E-04,  avg # of iterations =  6.2

     total cpu time spent up to now is    19427.3 secs

     total energy              =    -467.87277349 Ry
     Harris-Foulkes estimate   =    -467.88050759 Ry
     estimated scf accuracy    <       0.03724349 Ry

     iteration #  7     ecut=    50.00 Ry     beta= 0.60
     Davidson diagonalization with overlap
     ethr =  7.60E-05,  avg # of iterations =  3.8

     total cpu time spent up to now is    19453.9 secs

     total energy              =    -467.87751058 Ry
     Harris-Foulkes estimate   =    -467.87982150 Ry
     estimated scf accuracy    <       0.01895537 Ry

     iteration #  8     ecut=    50.00 Ry     beta= 0.60
     Davidson diagonalization with overlap
     ethr =  3.87E-05,  avg # of iterations =  2.4

     total cpu time spent up to now is    19476.1 secs

     total energy              =    -467.87630658 Ry
     Harris-Foulkes estimate   =    -467.87920641 Ry
     estimated scf accuracy    <       0.01703416 Ry

     iteration #  9     ecut=    50.00 Ry     beta= 0.60
     Davidson diagonalization with overlap
     ethr =  3.48E-05,  avg # of iterations =  2.1

     total cpu time spent up to now is    19498.0 secs

     total energy              =    -467.87770184 Ry
     Harris-Foulkes estimate   =    -467.87801415 Ry
     estimated scf accuracy    <       0.00073749 Ry

     iteration # 10     ecut=    50.00 Ry     beta= 0.60
     Davidson diagonalization with overlap
     ethr =  1.51E-06,  avg # of iterations =  6.0

     total cpu time spent up to now is    19539.1 secs

     total energy              =    -467.87807222 Ry
     Harris-Foulkes estimate   =    -467.87811863 Ry
     estimated scf accuracy    <       0.00049166 Ry

     iteration # 11     ecut=    50.00 Ry     beta= 0.60
     Davidson diagonalization with overlap
     ethr =  1.00E-06,  avg # of iterations =  1.0

     total cpu time spent up to now is    19559.0 secs

     total energy              =    -467.87807950 Ry
     Harris-Foulkes estimate   =    -467.87808622 Ry
     estimated scf accuracy    <       0.00008931 Ry

     iteration # 12     ecut=    50.00 Ry     beta= 0.60
     Davidson diagonalization with overlap
     ethr =  1.82E-07,  avg # of iterations =  3.5

     total cpu time spent up to now is    19583.9 secs

     total energy              =    -467.87808459 Ry
     Harris-Foulkes estimate   =    -467.87808611 Ry
     estimated scf accuracy    <       0.00000984 Ry

     iteration # 13     ecut=    50.00 Ry     beta= 0.60
     Davidson diagonalization with overlap
     ethr =  2.01E-08,  avg # of iterations =  4.4

     total cpu time spent up to now is    19613.8 secs

     total energy              =    -467.87808725 Ry
     Harris-Foulkes estimate   =    -467.87808747 Ry
     estimated scf accuracy    <       0.00000139 Ry

     iteration # 14     ecut=    50.00 Ry     beta= 0.60
     Davidson diagonalization with overlap
     ethr =  2.84E-09,  avg # of iterations =  2.7

     total cpu time spent up to now is    19638.0 secs

     total energy              =    -467.87808735 Ry
     Harris-Foulkes estimate   =    -467.87808739 Ry
     estimated scf accuracy    <       0.00000028 Ry

     iteration # 15     ecut=    50.00 Ry     beta= 0.60
     Davidson diagonalization with overlap
     ethr =  5.81E-10,  avg # of iterations =  3.6

     total cpu time spent up to now is    19665.1 secs

     total energy              =    -467.87808740 Ry
     Harris-Foulkes estimate   =    -467.87808740 Ry
     estimated scf accuracy    <       0.00000001 Ry

     iteration # 16     ecut=    50.00 Ry     beta= 0.60
     Davidson diagonalization with overlap
     ethr =  2.20E-11,  avg # of iterations =  4.5

     total cpu time spent up to now is    19700.4 secs

     total energy              =    -467.87808740 Ry
     Harris-Foulkes estimate   =    -467.87808740 Ry
     estimated scf accuracy    <          3.3E-09 Ry

     iteration # 17     ecut=    50.00 Ry     beta= 0.60
     Davidson diagonalization with overlap
     ethr =  6.82E-12,  avg # of iterations =  1.7

     total cpu time spent up to now is    19721.4 secs

     total energy              =    -467.87808740 Ry
     Harris-Foulkes estimate   =    -467.87808740 Ry
     estimated scf accuracy    <          6.7E-10 Ry

     iteration # 18     ecut=    50.00 Ry     beta= 0.60
     Davidson diagonalization with overlap
     ethr =  1.36E-12,  avg # of iterations =  3.9

     total cpu time spent up to now is    19750.4 secs

     total energy              =    -467.87808740 Ry
     Harris-Foulkes estimate   =    -467.87808740 Ry
     estimated scf accuracy    <          1.5E-10 Ry

     iteration # 19     ecut=    50.00 Ry     beta= 0.60
     Davidson diagonalization with overlap
     ethr =  3.04E-13,  avg # of iterations =  2.6

     total cpu time spent up to now is    19773.1 secs

     total energy              =    -467.87808740 Ry
     Harris-Foulkes estimate   =    -467.87808740 Ry
     estimated scf accuracy    <          1.2E-10 Ry

     iteration # 20     ecut=    50.00 Ry     beta= 0.60
     Davidson diagonalization with overlap
     ethr =  2.45E-13,  avg # of iterations =  3.1

     total cpu time spent up to now is    19798.8 secs

     total energy              =    -467.87808740 Ry
     Harris-Foulkes estimate   =    -467.87808740 Ry
     estimated scf accuracy    <          8.9E-11 Ry

     iteration # 21     ecut=    50.00 Ry     beta= 0.60
     Davidson diagonalization with overlap
     ethr =  1.81E-13,  avg # of iterations =  1.0

     total cpu time spent up to now is    19818.8 secs

     total energy              =    -467.87808740 Ry
     Harris-Foulkes estimate   =    -467.87808740 Ry
     estimated scf accuracy    <          7.3E-12 Ry

     iteration # 22     ecut=    50.00 Ry     beta= 0.60
     Davidson diagonalization with overlap
     ethr =  1.00E-13,  avg # of iterations =  1.3

     total cpu time spent up to now is    19839.2 secs

     End of self-consistent calculation

     Number of k-points >= 100: set verbosity='high' to print the bands.

     the Fermi energy is    14.4493 ev

!    total energy              =    -467.87808740 Ry
     Harris-Foulkes estimate   =    -467.87808740 Ry
     estimated scf accuracy    <          2.0E-13 Ry

     The total energy is the sum of the following terms:

     one-electron contribution =    -140.67806772 Ry
     hartree contribution      =      88.53073048 Ry
     xc contribution           =     -62.06806630 Ry
     ewald contribution        =    -353.66406716 Ry
     smearing contrib. (-TS)   =       0.00138330 Ry

     convergence has been achieved in  22 iterations

     Forces acting on atoms (cartesian axes, Ry/au):

     atom    1 type  2   force =     0.00000688    0.00000688    0.00001265
     atom    2 type  2   force =    -0.00000162   -0.00000162   -0.00000968
     atom    3 type  2   force =    -0.00000369   -0.00000369   -0.00000223
     atom    4 type  1   force =    -0.00000157   -0.00000157   -0.00000075

     Total force =     0.000020     Total SCF correction =     0.000001


     Computing stress (Cartesian axis) and pressure

          total   stress  (Ry/bohr**3)                   (kbar)     P=   -0.28
  -0.00000121   0.00000014   0.00000048         -0.18      0.02      0.07
   0.00000014  -0.00000121   0.00000048          0.02     -0.18      0.07
   0.00000048   0.00000048  -0.00000329          0.07      0.07     -0.48

 
     init_run     :     25.58s CPU     26.30s WALL (       2 calls)
     electrons    :  18912.12s CPU  19326.65s WALL (      32 calls)
     update_pot   :     41.26s CPU     41.36s WALL (      30 calls)
     forces       :    115.08s CPU    118.02s WALL (      32 calls)
     stress       :    319.94s CPU    328.35s WALL (      32 calls)

     Called by init_run:
     wfcinit      :     23.17s CPU     23.75s WALL (       2 calls)
     potinit      :      0.68s CPU      0.69s WALL (       2 calls)
     hinit0       :      1.37s CPU      1.39s WALL (       2 calls)

     Called by electrons:
     c_bands      :  16335.99s CPU  16616.39s WALL (     555 calls)
     sum_band     :   2454.44s CPU   2544.30s WALL (     555 calls)
     v_of_rho     :     18.97s CPU     19.05s WALL (     576 calls)
     newd         :    105.73s CPU    151.75s WALL (     576 calls)
     mix_rho      :      2.56s CPU      2.57s WALL (     555 calls)

     Called by c_bands:
     init_us_2    :    345.97s CPU    347.64s WALL (  677376 calls)
     cegterg      :  14571.81s CPU  14840.24s WALL (  319680 calls)

     Called by sum_band:
     sum_band:bec :      6.48s CPU      6.21s WALL (  319680 calls)
     addusdens    :    117.75s CPU    158.28s WALL (     555 calls)

     Called by *egterg:
     h_psi        :   9814.91s CPU  10061.01s WALL ( 1390327 calls)
     s_psi        :    471.98s CPU    470.51s WALL ( 1390327 calls)
     g_psi        :    110.71s CPU    111.76s WALL ( 1069495 calls)
     cdiaghg      :   2437.42s CPU   2446.22s WALL ( 1365559 calls)

     Called by h_psi:
     h_psi:pot    :   9779.01s CPU  10023.14s WALL ( 1390327 calls)
     h_psi:calbec :    502.01s CPU    506.27s WALL ( 1390327 calls)
     vloc_psi     :   8800.91s CPU   9033.58s WALL ( 1390327 calls)
     add_vuspsi   :    470.94s CPU    475.99s WALL ( 1390327 calls)

     General routines
     calbec       :    726.59s CPU    731.99s WALL ( 1802167 calls)
     fft          :     12.46s CPU     12.55s WALL (    8297 calls)
     ffts         :      0.37s CPU      0.38s WALL (    1131 calls)
     fftw         :   9674.32s CPU   9875.79s WALL (59919082 calls)
     interpolate  :      1.03s CPU      1.04s WALL (     576 calls)
 
     Parallel routines
     fft_scatt_xy :   1812.42s CPU   1840.12s WALL (59928510 calls)
     fft_scatt_yz :   2472.80s CPU   2381.14s WALL (59928510 calls)
 
     PWSCF        :     5h23m CPU       23h 5m WALL

      30h
 
   This run was terminated on:  20:39:47  28Jan2020            

=------------------------------------------------------------------------------=
   JOB DONE.
=------------------------------------------------------------------------------=
