
     Program PWSCF v.6.3MaX starts on  5Feb2020 at  9:23: 2 

     This program is part of the open-source Quantum ESPRESSO suite
     for quantum simulation of materials; please cite
         "P. Giannozzi et al., J. Phys.:Condens. Matter 21 395502 (2009);
         "P. Giannozzi et al., J. Phys.:Condens. Matter 29 465901 (2017);
          URL http://www.quantum-espresso.org", 
     in publications or presentations arising from this work. More details at
     http://www.quantum-espresso.org/quote

     Parallel version (MPI), running on     4 processors

     MPI processes distributed on     1 nodes
     R & G space division:  proc/nbgrp/npool/nimage =       4
     Waiting for input...
     Reading input from standard input

     Current dimensions of program PWSCF are:
     Max number of different atomic species (ntypx) = 10
     Max number of k-points (npk) =  40000
     Max angular momentum in pseudopotentials (lmaxx) =  3
     Message from routine iosys:
     minimal I/O required, wf_collect reset to FALSE

     Subspace diagonalization in iterative solution of the eigenvalue problem:
     a serial algorithm will be used

 
     Parallelization info
     --------------------
     sticks:   dense  smooth     PW     G-vecs:    dense   smooth      PW
     Min         761     303     87                41551    10499    1613
     Max         763     304     88                41553    10504    1618
     Sum        3049    1213    349               166209    42003    6459
 


     bravais-lattice index     =            0
     lattice parameter (alat)  =       1.8897  a.u.
     unit-cell volume          =     880.0102 (a.u.)^3
     number of atoms/cell      =            6
     number of atomic types    =            2
     number of electrons       =        74.00
     number of Kohn-Sham states=           44
     kinetic-energy cutoff     =      50.0000  Ry
     charge density cutoff     =     500.0000  Ry
     convergence threshold     =      1.0E-10
     mixing beta               =       0.6000
     number of iterations used =            8  plain     mixing
     Exchange-correlation      = SLA PW PBE PBE ( 1  4  3  4 0 0)
     nstep                     =           50


     celldm(1)=   1.889726  celldm(2)=   0.000000  celldm(3)=   0.000000
     celldm(4)=   0.000000  celldm(5)=   0.000000  celldm(6)=   0.000000

     crystal axes: (cart. coord. in units of alat)
               a(1) = (   0.000000   3.516063   3.516063 )  
               a(2) = (  -3.516063   0.000000  -3.516063 )  
               a(3) = (  -3.516063  -3.516063   3.516063 )  

     reciprocal axes: (cart. coord. in units 2 pi/alat)
               b(1) = ( -0.094803  0.189606  0.094803 )  
               b(2) = ( -0.189606  0.094803 -0.094803 )  
               b(3) = ( -0.094803 -0.094803  0.094803 )  


     PseudoPot. # 1 for Nb read from file:
     ./Nb.pbe-nsp-van.UPF
     MD5 check sum: 0a22fc7fb0ba19a08ca5db297a5d2854
     Pseudo is Ultrasoft + core correction, Zval = 13.0
     Generated by new atomic code, or converted to UPF format
     Using radial grid of  887 points,  6 beta functions with: 
                l(1) =   0
                l(2) =   0
                l(3) =   1
                l(4) =   1
                l(5) =   2
                l(6) =   2
     Q(r) pseudized with  6 coefficients,  rinner =    1.000   1.000   1.000
                                                       1.000   1.000

     PseudoPot. # 2 for Ti read from file:
     ./Ti.pbe-sp-van_ak.UPF
     MD5 check sum: f98fea3e8887528921fefa5636a534ca
     Pseudo is Ultrasoft, Zval = 12.0
     Generated by new atomic code, or converted to UPF format
     Using radial grid of  851 points,  6 beta functions with: 
                l(1) =   0
                l(2) =   0
                l(3) =   1
                l(4) =   1
                l(5) =   2
                l(6) =   2
     Q(r) pseudized with  8 coefficients,  rinner =    1.000   1.000   1.000
                                                       1.000   1.000

     atomic species   valence    mass     pseudopotential
        Nb            13.00    92.90638     Nb( 1.00)
        Ti            12.00    47.86700     Ti( 1.00)

      6 Sym. Ops. (no inversion) found
          (note:  6 additional sym.ops. were found but ignored
           their fractional translations are incommensurate with FFT grid)


   Cartesian axes

     site n.     atom                  positions (alat units)
         1           Ti  tau(   1) = (  -3.5160633   0.0000000   3.5160633  )
         2           Ti  tau(   2) = (  -1.7580316   1.7580316   1.7580316  )
         3           Ti  tau(   3) = (  -3.5160633   0.0000000   0.0000000  )
         4           Ti  tau(   4) = (  -5.2740949   1.7580316   1.7580316  )
         5           Nb  tau(   5) = (  -5.2740949  -1.7580316   1.7580316  )
         6           Nb  tau(   6) = (  -7.0321265   0.0000000   3.5160633  )

     number of k points=   162  Marzari-Vanderbilt smearing, width (Ry)=  0.0200

     Number of k-points >= 100: set verbosity='high' to print them.

     Dense  grid:   166209 G-vectors     FFT dimensions: (  72,  72,  81)

     Smooth grid:    42003 G-vectors     FFT dimensions: (  45,  45,  54)

     Estimated max dynamical RAM per process >     302.22 MB

     Estimated total dynamical RAM >       1.18 GB

     Initial potential from superposition of free atoms

     starting charge   69.99436, renormalised to   74.00000
     Starting wfcs are   66 randomized atomic wfcs

     total cpu time spent up to now is       13.6 secs

     Self-consistent Calculation

     iteration #  1     ecut=    50.00 Ry     beta= 0.60
     Davidson diagonalization with overlap
     ethr =  1.00E-02,  avg # of iterations =  3.6

     total cpu time spent up to now is       42.0 secs

     total energy              =    -690.26393279 Ry
     Harris-Foulkes estimate   =    -705.28213727 Ry
     estimated scf accuracy    <      18.94700700 Ry

     iteration #  2     ecut=    50.00 Ry     beta= 0.60
     Davidson diagonalization with overlap
     ethr =  1.00E-02,  avg # of iterations =  5.4

     total cpu time spent up to now is       85.2 secs

     total energy              =    -698.06461642 Ry
     Harris-Foulkes estimate   =    -728.41986407 Ry
     estimated scf accuracy    <      95.77607701 Ry

     iteration #  3     ecut=    50.00 Ry     beta= 0.60
     Davidson diagonalization with overlap
     ethr =  1.00E-02,  avg # of iterations =  5.7

     total cpu time spent up to now is      123.4 secs

     total energy              =    -702.36903377 Ry
     Harris-Foulkes estimate   =    -705.45132573 Ry
     estimated scf accuracy    <      27.72495825 Ry

     iteration #  4     ecut=    50.00 Ry     beta= 0.60
     Davidson diagonalization with overlap
     ethr =  1.00E-02,  avg # of iterations =  2.5

     total cpu time spent up to now is      144.8 secs

     total energy              =    -703.43270430 Ry
     Harris-Foulkes estimate   =    -703.33942051 Ry
     estimated scf accuracy    <       9.23252918 Ry

     iteration #  5     ecut=    50.00 Ry     beta= 0.60
     Davidson diagonalization with overlap
     ethr =  1.00E-02,  avg # of iterations =  1.0

     total cpu time spent up to now is      164.6 secs

     total energy              =    -703.89502098 Ry
     Harris-Foulkes estimate   =    -703.48287473 Ry
     estimated scf accuracy    <       9.41412749 Ry

     iteration #  6     ecut=    50.00 Ry     beta= 0.60
     Davidson diagonalization with overlap
     ethr =  1.00E-02,  avg # of iterations =  1.0

     total cpu time spent up to now is      184.4 secs

     total energy              =    -700.96773349 Ry
     Harris-Foulkes estimate   =    -703.93465407 Ry
     estimated scf accuracy    <      10.23953474 Ry

     iteration #  7     ecut=    50.00 Ry     beta= 0.60
     Davidson diagonalization with overlap
     ethr =  1.00E-02,  avg # of iterations =  6.0

     total cpu time spent up to now is      217.8 secs

     total energy              =    -702.90488376 Ry
     Harris-Foulkes estimate   =    -702.96453270 Ry
     estimated scf accuracy    <      10.17556374 Ry

     iteration #  8     ecut=    50.00 Ry     beta= 0.60
     Davidson diagonalization with overlap
     ethr =  1.00E-02,  avg # of iterations =  1.0

     total cpu time spent up to now is      237.6 secs

     total energy              =    -702.77512911 Ry
     Harris-Foulkes estimate   =    -702.98639470 Ry
     estimated scf accuracy    <      10.93532220 Ry

     iteration #  9     ecut=    50.00 Ry     beta= 0.60
     Davidson diagonalization with overlap
     ethr =  1.00E-02,  avg # of iterations =  1.0

     total cpu time spent up to now is      257.4 secs

     total energy              =    -702.32426313 Ry
     Harris-Foulkes estimate   =    -702.81053419 Ry
     estimated scf accuracy    <       8.50028094 Ry

     iteration # 10     ecut=    50.00 Ry     beta= 0.60
     Davidson diagonalization with overlap
     ethr =  1.00E-02,  avg # of iterations =  1.0

     total cpu time spent up to now is      277.2 secs

     total energy              =    -702.52370202 Ry
     Harris-Foulkes estimate   =    -702.44870534 Ry
     estimated scf accuracy    <       2.49875194 Ry

     iteration # 11     ecut=    50.00 Ry     beta= 0.60
     Davidson diagonalization with overlap
     ethr =  3.38E-03,  avg # of iterations =  1.1

     total cpu time spent up to now is      297.1 secs

     total energy              =    -702.08288427 Ry
     Harris-Foulkes estimate   =    -702.59378660 Ry
     estimated scf accuracy    <       5.13070835 Ry

     iteration # 12     ecut=    50.00 Ry     beta= 0.60
     Davidson diagonalization with overlap
     ethr =  3.38E-03,  avg # of iterations =  1.9

     total cpu time spent up to now is      317.8 secs

     total energy              =    -702.26572083 Ry
     Harris-Foulkes estimate   =    -702.28213404 Ry
     estimated scf accuracy    <       0.29192622 Ry

     iteration # 13     ecut=    50.00 Ry     beta= 0.60
     Davidson diagonalization with overlap
     ethr =  3.94E-04,  avg # of iterations =  5.9

     total cpu time spent up to now is      353.3 secs

     total energy              =    -702.33628562 Ry
     Harris-Foulkes estimate   =    -702.38997952 Ry
     estimated scf accuracy    <       0.76750132 Ry

     iteration # 14     ecut=    50.00 Ry     beta= 0.60
     Davidson diagonalization with overlap
     ethr =  3.94E-04,  avg # of iterations =  4.8

     total cpu time spent up to now is      383.1 secs

     total energy              =    -702.31315631 Ry
     Harris-Foulkes estimate   =    -702.43144222 Ry
     estimated scf accuracy    <       2.07217328 Ry

     iteration # 15     ecut=    50.00 Ry     beta= 0.60
     Davidson diagonalization with overlap
     ethr =  3.94E-04,  avg # of iterations =  5.3

     total cpu time spent up to now is      411.5 secs

     total energy              =    -702.33427475 Ry
     Harris-Foulkes estimate   =    -702.41725916 Ry
     estimated scf accuracy    <       1.51507401 Ry

     iteration # 16     ecut=    50.00 Ry     beta= 0.60
     Davidson diagonalization with overlap
     ethr =  3.94E-04,  avg # of iterations =  1.5

     total cpu time spent up to now is      431.7 secs

     total energy              =    -702.31863074 Ry
     Harris-Foulkes estimate   =    -702.35243926 Ry
     estimated scf accuracy    <       0.88858117 Ry

     iteration # 17     ecut=    50.00 Ry     beta= 0.60
     Davidson diagonalization with overlap
     ethr =  3.94E-04,  avg # of iterations =  2.0

     total cpu time spent up to now is      452.4 secs

     total energy              =    -702.30279283 Ry
     Harris-Foulkes estimate   =    -702.32854303 Ry
     estimated scf accuracy    <       0.42243066 Ry

     iteration # 18     ecut=    50.00 Ry     beta= 0.60
     Davidson diagonalization with overlap
     ethr =  3.94E-04,  avg # of iterations =  2.9

     total cpu time spent up to now is      474.3 secs

     total energy              =    -702.31547992 Ry
     Harris-Foulkes estimate   =    -702.31376474 Ry
     estimated scf accuracy    <       0.13698549 Ry

     iteration # 19     ecut=    50.00 Ry     beta= 0.60
     Davidson diagonalization with overlap
     ethr =  1.85E-04,  avg # of iterations =  3.8

     total cpu time spent up to now is      497.9 secs

     total energy              =    -702.32067876 Ry
     Harris-Foulkes estimate   =    -702.32268967 Ry
     estimated scf accuracy    <       0.10629632 Ry

     iteration # 20     ecut=    50.00 Ry     beta= 0.60
     Davidson diagonalization with overlap
     ethr =  1.44E-04,  avg # of iterations =  1.1

     total cpu time spent up to now is      517.8 secs

     total energy              =    -702.31570824 Ry
     Harris-Foulkes estimate   =    -702.32260990 Ry
     estimated scf accuracy    <       0.06989761 Ry

     iteration # 21     ecut=    50.00 Ry     beta= 0.60
     Davidson diagonalization with overlap
     ethr =  9.45E-05,  avg # of iterations =  6.3

     total cpu time spent up to now is      546.7 secs

     total energy              =    -702.32180909 Ry
     Harris-Foulkes estimate   =    -702.32355186 Ry
     estimated scf accuracy    <       0.01504410 Ry

     iteration # 22     ecut=    50.00 Ry     beta= 0.60
     Davidson diagonalization with overlap
     ethr =  2.03E-05,  avg # of iterations =  6.3

     total cpu time spent up to now is      575.8 secs

     total energy              =    -702.32302501 Ry
     Harris-Foulkes estimate   =    -702.32323359 Ry
     estimated scf accuracy    <       0.00286776 Ry

     iteration # 23     ecut=    50.00 Ry     beta= 0.60
     Davidson diagonalization with overlap
     c_bands:  1 eigenvalues not converged
     c_bands:  1 eigenvalues not converged
     c_bands:  1 eigenvalues not converged
     c_bands:  1 eigenvalues not converged
     c_bands:  1 eigenvalues not converged
     c_bands:  1 eigenvalues not converged
     c_bands:  1 eigenvalues not converged
     c_bands:  1 eigenvalues not converged
     c_bands:  1 eigenvalues not converged
     c_bands:  1 eigenvalues not converged
     ethr =  3.88E-06,  avg # of iterations =  7.6

     total cpu time spent up to now is      607.6 secs

     total energy              =    -702.32327270 Ry
     Harris-Foulkes estimate   =    -702.32329183 Ry
     estimated scf accuracy    <       0.00040016 Ry

     iteration # 24     ecut=    50.00 Ry     beta= 0.60
     Davidson diagonalization with overlap
     c_bands:  1 eigenvalues not converged
     ethr =  5.41E-07,  avg # of iterations =  4.3

     total cpu time spent up to now is      632.9 secs

     total energy              =    -702.32328550 Ry
     Harris-Foulkes estimate   =    -702.32330793 Ry
     estimated scf accuracy    <       0.00020851 Ry

     iteration # 25     ecut=    50.00 Ry     beta= 0.60
     Davidson diagonalization with overlap
     ethr =  2.82E-07,  avg # of iterations =  2.2

     total cpu time spent up to now is      653.7 secs

     total energy              =    -702.32328610 Ry
     Harris-Foulkes estimate   =    -702.32329438 Ry
     estimated scf accuracy    <       0.00004207 Ry

     iteration # 26     ecut=    50.00 Ry     beta= 0.60
     Davidson diagonalization with overlap
     ethr =  5.69E-08,  avg # of iterations =  5.4

     total cpu time spent up to now is      685.2 secs

     total energy              =    -702.32329445 Ry
     Harris-Foulkes estimate   =    -702.32330141 Ry
     estimated scf accuracy    <       0.00005438 Ry

     iteration # 27     ecut=    50.00 Ry     beta= 0.60
     Davidson diagonalization with overlap
     ethr =  5.69E-08,  avg # of iterations =  1.1

     total cpu time spent up to now is      704.7 secs

     total energy              =    -702.32329662 Ry
     Harris-Foulkes estimate   =    -702.32329683 Ry
     estimated scf accuracy    <       0.00000545 Ry

     iteration # 28     ecut=    50.00 Ry     beta= 0.60
     Davidson diagonalization with overlap
     ethr =  7.37E-09,  avg # of iterations =  5.0

     total cpu time spent up to now is      735.1 secs

     total energy              =    -702.32329818 Ry
     Harris-Foulkes estimate   =    -702.32329848 Ry
     estimated scf accuracy    <       0.00000253 Ry

     iteration # 29     ecut=    50.00 Ry     beta= 0.60
     Davidson diagonalization with overlap
     ethr =  3.42E-09,  avg # of iterations =  1.0

     total cpu time spent up to now is      754.6 secs

     total energy              =    -702.32329811 Ry
     Harris-Foulkes estimate   =    -702.32329826 Ry
     estimated scf accuracy    <       0.00000080 Ry

     iteration # 30     ecut=    50.00 Ry     beta= 0.60
     Davidson diagonalization with overlap
     ethr =  1.09E-09,  avg # of iterations =  4.3

     total cpu time spent up to now is      782.9 secs

     total energy              =    -702.32329829 Ry
     Harris-Foulkes estimate   =    -702.32329834 Ry
     estimated scf accuracy    <       0.00000053 Ry

     iteration # 31     ecut=    50.00 Ry     beta= 0.60
     Davidson diagonalization with overlap
     ethr =  7.15E-10,  avg # of iterations =  1.0

     total cpu time spent up to now is      802.3 secs

     total energy              =    -702.32329829 Ry
     Harris-Foulkes estimate   =    -702.32329830 Ry
     estimated scf accuracy    <       0.00000022 Ry

     iteration # 32     ecut=    50.00 Ry     beta= 0.60
     Davidson diagonalization with overlap
     ethr =  2.95E-10,  avg # of iterations =  3.8

     total cpu time spent up to now is      826.1 secs

     total energy              =    -702.32329829 Ry
     Harris-Foulkes estimate   =    -702.32329830 Ry
     estimated scf accuracy    <       0.00000005 Ry

     iteration # 33     ecut=    50.00 Ry     beta= 0.60
     Davidson diagonalization with overlap
     ethr =  6.11E-11,  avg # of iterations =  4.9

     total cpu time spent up to now is      855.5 secs

     total energy              =    -702.32329831 Ry
     Harris-Foulkes estimate   =    -702.32329831 Ry
     estimated scf accuracy    <       0.00000002 Ry

     iteration # 34     ecut=    50.00 Ry     beta= 0.60
     Davidson diagonalization with overlap
     ethr =  2.68E-11,  avg # of iterations =  3.4

     total cpu time spent up to now is      877.8 secs

     total energy              =    -702.32329831 Ry
     Harris-Foulkes estimate   =    -702.32329831 Ry
     estimated scf accuracy    <       0.00000003 Ry

     iteration # 35     ecut=    50.00 Ry     beta= 0.60
     Davidson diagonalization with overlap
     ethr =  2.68E-11,  avg # of iterations =  1.0

     total cpu time spent up to now is      897.3 secs

     total energy              =    -702.32329831 Ry
     Harris-Foulkes estimate   =    -702.32329831 Ry
     estimated scf accuracy    <       0.00000002 Ry

     iteration # 36     ecut=    50.00 Ry     beta= 0.60
     Davidson diagonalization with overlap
     ethr =  2.56E-11,  avg # of iterations =  1.0

     total cpu time spent up to now is      916.7 secs

     total energy              =    -702.32329831 Ry
     Harris-Foulkes estimate   =    -702.32329831 Ry
     estimated scf accuracy    <       0.00000001 Ry

     iteration # 37     ecut=    50.00 Ry     beta= 0.60
     Davidson diagonalization with overlap
     ethr =  1.44E-11,  avg # of iterations =  1.0

     total cpu time spent up to now is      936.1 secs

     total energy              =    -702.32329831 Ry
     Harris-Foulkes estimate   =    -702.32329831 Ry
     estimated scf accuracy    <       0.00000001 Ry

     iteration # 38     ecut=    50.00 Ry     beta= 0.60
     Davidson diagonalization with overlap
     ethr =  1.44E-11,  avg # of iterations =  2.4

     total cpu time spent up to now is      957.0 secs

     total energy              =    -702.32329831 Ry
     Harris-Foulkes estimate   =    -702.32329831 Ry
     estimated scf accuracy    <          3.9E-09 Ry

     iteration # 39     ecut=    50.00 Ry     beta= 0.60
     Davidson diagonalization with overlap
     ethr =  5.32E-12,  avg # of iterations =  4.3

     total cpu time spent up to now is      985.4 secs

     total energy              =    -702.32329831 Ry
     Harris-Foulkes estimate   =    -702.32329831 Ry
     estimated scf accuracy    <          1.6E-09 Ry

     iteration # 40     ecut=    50.00 Ry     beta= 0.60
     Davidson diagonalization with overlap
     ethr =  2.21E-12,  avg # of iterations =  1.3

     total cpu time spent up to now is     1005.1 secs

     total energy              =    -702.32329831 Ry
     Harris-Foulkes estimate   =    -702.32329831 Ry
     estimated scf accuracy    <          7.1E-10 Ry

     iteration # 41     ecut=    50.00 Ry     beta= 0.60
     Davidson diagonalization with overlap
     ethr =  9.60E-13,  avg # of iterations =  3.4

     total cpu time spent up to now is     1027.6 secs

     total energy              =    -702.32329831 Ry
     Harris-Foulkes estimate   =    -702.32329831 Ry
     estimated scf accuracy    <          3.7E-10 Ry

     iteration # 42     ecut=    50.00 Ry     beta= 0.60
     Davidson diagonalization with overlap
     ethr =  5.01E-13,  avg # of iterations =  4.3

     total cpu time spent up to now is     1054.8 secs

     End of self-consistent calculation

     Number of k-points >= 100: set verbosity='high' to print the bands.

     the Fermi energy is    11.4338 ev

!    total energy              =    -702.32329831 Ry
     Harris-Foulkes estimate   =    -702.32329831 Ry
     estimated scf accuracy    <          4.2E-11 Ry

     The total energy is the sum of the following terms:

     one-electron contribution =    -252.75560653 Ry
     hartree contribution      =     144.58385258 Ry
     xc contribution           =     -93.99474400 Ry
     ewald contribution        =    -500.15442323 Ry
     smearing contrib. (-TS)   =      -0.00237713 Ry

     convergence has been achieved in  42 iterations

     Forces acting on atoms (cartesian axes, Ry/au):

     atom    1 type  2   force =    -0.00407966   -0.00407966    0.00407966
     atom    2 type  2   force =     0.00407722    0.00407722   -0.00407722
     atom    3 type  2   force =    -0.00100788   -0.00100788    0.00100788
     atom    4 type  2   force =     0.00100856    0.00100856   -0.00100856
     atom    5 type  1   force =    -0.00554752   -0.00554752    0.00554752
     atom    6 type  1   force =     0.00554928    0.00554928   -0.00554928

     Total force =     0.017047     Total SCF correction =     0.000002


     Computing stress (Cartesian axis) and pressure

          total   stress  (Ry/bohr**3)                   (kbar)     P= -188.89
  -0.00128402   0.00000311  -0.00000311       -188.89      0.46     -0.46
   0.00000311  -0.00128402  -0.00000311          0.46   -188.89     -0.46
  -0.00000311  -0.00000311  -0.00128402         -0.46     -0.46   -188.89


     BFGS Geometry Optimization

     number of scf cycles    =   1
     number of bfgs steps    =   0

     enthalpy new            =    -702.3232983062 Ry

     new trust radius        =       0.1904538393 bohr
     new conv_thr            =            1.0E-10 Ry

     new unit-cell volume =    797.95489 a.u.^3 (   118.24471 Ang^3 )
     density =      5.29824 g/cm^3

CELL_PARAMETERS (alat=  1.88972599)
  -0.000000000   3.402921514   3.402921514
  -3.402921514  -0.000000000  -3.402921514
  -3.403742633  -3.403742633   3.403742633

ATOMIC_POSITIONS (angstrom)
Ti      -3.405558824  -0.002637310   3.405558824
Ti      -1.699508960   1.703412554   1.699508960
Ti      -3.403711530  -0.000790016   0.000790016
Ti      -5.104276175   1.701566853   1.701354661
Nb      -5.107908380  -1.704986866   1.704986866
Nb      -6.803821401   0.002021627   3.400899887


     NEW-OLD atomic charge density approx. for the potential
     extrapolated charge   66.80234, renormalised to   74.00000

     total cpu time spent up to now is     1070.3 secs

     Self-consistent Calculation

     iteration #  1     ecut=    50.00 Ry     beta= 0.60
     Davidson diagonalization with overlap
     c_bands:  2 eigenvalues not converged
     c_bands:  3 eigenvalues not converged
     c_bands:  1 eigenvalues not converged
     c_bands:  1 eigenvalues not converged
     c_bands:  1 eigenvalues not converged
     c_bands:  3 eigenvalues not converged
     c_bands:  2 eigenvalues not converged
     c_bands:  1 eigenvalues not converged
     c_bands:  1 eigenvalues not converged
     c_bands:  1 eigenvalues not converged
     c_bands:  2 eigenvalues not converged
     c_bands:  1 eigenvalues not converged
     c_bands:  1 eigenvalues not converged
     c_bands:  2 eigenvalues not converged
     c_bands:  1 eigenvalues not converged
     c_bands:  1 eigenvalues not converged
     c_bands:  1 eigenvalues not converged
     c_bands:  2 eigenvalues not converged
     c_bands:  2 eigenvalues not converged
     c_bands:  1 eigenvalues not converged
     c_bands:  2 eigenvalues not converged
     c_bands:  1 eigenvalues not converged
     ethr =  1.00E-06,  avg # of iterations = 16.9

     total cpu time spent up to now is     1158.7 secs

     total energy              =    -678.13206649 Ry
     Harris-Foulkes estimate   =    -720.15258441 Ry
     estimated scf accuracy    <      26.51518158 Ry

     iteration #  2     ecut=    50.00 Ry     beta= 0.60
     Davidson diagonalization with overlap
     ethr =  1.00E-02,  avg # of iterations =  6.0

     total cpu time spent up to now is     1202.0 secs

     total energy              =    -699.66768819 Ry
     Harris-Foulkes estimate   =    -738.23919206 Ry
     estimated scf accuracy    <     120.92628333 Ry

     iteration #  3     ecut=    50.00 Ry     beta= 0.60
     Davidson diagonalization with overlap
     ethr =  1.00E-02,  avg # of iterations =  5.3

     total cpu time spent up to now is     1240.6 secs

     total energy              =    -704.51563082 Ry
     Harris-Foulkes estimate   =    -708.12176451 Ry
     estimated scf accuracy    <      15.43763533 Ry

     iteration #  4     ecut=    50.00 Ry     beta= 0.60
     Davidson diagonalization with overlap
     ethr =  1.00E-02,  avg # of iterations =  1.5

     total cpu time spent up to now is     1260.9 secs

     total energy              =    -702.99095018 Ry
     Harris-Foulkes estimate   =    -705.05928806 Ry
     estimated scf accuracy    <      14.25951135 Ry

     iteration #  5     ecut=    50.00 Ry     beta= 0.60
     Davidson diagonalization with overlap
     ethr =  1.00E-02,  avg # of iterations =  1.4

     total cpu time spent up to now is     1281.2 secs

     total energy              =    -702.12530784 Ry
     Harris-Foulkes estimate   =    -703.35202113 Ry
     estimated scf accuracy    <       5.95178793 Ry

     iteration #  6     ecut=    50.00 Ry     beta= 0.60
     Davidson diagonalization with overlap
     ethr =  8.04E-03,  avg # of iterations =  2.6

     total cpu time spent up to now is     1303.1 secs

     total energy              =    -702.43054669 Ry
     Harris-Foulkes estimate   =    -702.38487239 Ry
     estimated scf accuracy    <       1.86148106 Ry

     iteration #  7     ecut=    50.00 Ry     beta= 0.60
     Davidson diagonalization with overlap
     ethr =  2.52E-03,  avg # of iterations =  4.5

     total cpu time spent up to now is     1329.4 secs

     total energy              =    -702.77179309 Ry
     Harris-Foulkes estimate   =    -702.61491217 Ry
     estimated scf accuracy    <       1.42273826 Ry

     iteration #  8     ecut=    50.00 Ry     beta= 0.60
     Davidson diagonalization with overlap
     ethr =  1.92E-03,  avg # of iterations =  1.3

     total cpu time spent up to now is     1349.7 secs

     total energy              =    -702.69851444 Ry
     Harris-Foulkes estimate   =    -702.81612581 Ry
     estimated scf accuracy    <       2.28232038 Ry

     iteration #  9     ecut=    50.00 Ry     beta= 0.60
     Davidson diagonalization with overlap
     ethr =  1.92E-03,  avg # of iterations =  1.1

     total cpu time spent up to now is     1369.7 secs

     total energy              =    -702.52619225 Ry
     Harris-Foulkes estimate   =    -702.70917577 Ry
     estimated scf accuracy    <       1.91434047 Ry

     iteration # 10     ecut=    50.00 Ry     beta= 0.60
     Davidson diagonalization with overlap
     ethr =  1.92E-03,  avg # of iterations =  1.0

     total cpu time spent up to now is     1389.7 secs

     total energy              =    -702.10529935 Ry
     Harris-Foulkes estimate   =    -702.54285020 Ry
     estimated scf accuracy    <       1.17681431 Ry

     iteration # 11     ecut=    50.00 Ry     beta= 0.60
     Davidson diagonalization with overlap
     ethr =  1.59E-03,  avg # of iterations =  5.3

     total cpu time spent up to now is     1421.9 secs

     total energy              =    -702.36652344 Ry
     Harris-Foulkes estimate   =    -702.54613675 Ry
     estimated scf accuracy    <       2.09986935 Ry

     iteration # 12     ecut=    50.00 Ry     beta= 0.60
     Davidson diagonalization with overlap
     ethr =  1.59E-03,  avg # of iterations =  1.1

     total cpu time spent up to now is     1441.9 secs

     total energy              =    -702.42621426 Ry
     Harris-Foulkes estimate   =    -702.41154708 Ry
     estimated scf accuracy    <       0.61398341 Ry

     iteration # 13     ecut=    50.00 Ry     beta= 0.60
     Davidson diagonalization with overlap
     ethr =  8.30E-04,  avg # of iterations =  1.1

     total cpu time spent up to now is     1462.1 secs

     total energy              =    -702.42494417 Ry
     Harris-Foulkes estimate   =    -702.43258144 Ry
     estimated scf accuracy    <       0.73581718 Ry

     iteration # 14     ecut=    50.00 Ry     beta= 0.60
     Davidson diagonalization with overlap
     ethr =  8.30E-04,  avg # of iterations =  1.0

     total cpu time spent up to now is     1482.1 secs

     total energy              =    -702.45373423 Ry
     Harris-Foulkes estimate   =    -702.43668566 Ry
     estimated scf accuracy    <       0.79932685 Ry

     iteration # 15     ecut=    50.00 Ry     beta= 0.60
     Davidson diagonalization with overlap
     ethr =  8.30E-04,  avg # of iterations =  1.0

     total cpu time spent up to now is     1502.1 secs

     total energy              =    -702.46843808 Ry
     Harris-Foulkes estimate   =    -702.45988994 Ry
     estimated scf accuracy    <       1.02997284 Ry

     iteration # 16     ecut=    50.00 Ry     beta= 0.60
     Davidson diagonalization with overlap
     ethr =  8.30E-04,  avg # of iterations =  1.0

     total cpu time spent up to now is     1522.0 secs

     total energy              =    -702.46564479 Ry
     Harris-Foulkes estimate   =    -702.46990608 Ry
     estimated scf accuracy    <       1.08512585 Ry

     iteration # 17     ecut=    50.00 Ry     beta= 0.60
     Davidson diagonalization with overlap
     ethr =  8.30E-04,  avg # of iterations =  1.0

     total cpu time spent up to now is     1542.0 secs

     total energy              =    -702.44305407 Ry
     Harris-Foulkes estimate   =    -702.46663765 Ry
     estimated scf accuracy    <       0.99591214 Ry

     iteration # 18     ecut=    50.00 Ry     beta= 0.60
     Davidson diagonalization with overlap
     ethr =  8.30E-04,  avg # of iterations =  1.0

     total cpu time spent up to now is     1562.0 secs

     total energy              =    -702.34921317 Ry
     Harris-Foulkes estimate   =    -702.44589883 Ry
     estimated scf accuracy    <       0.67913520 Ry

     iteration # 19     ecut=    50.00 Ry     beta= 0.60
     Davidson diagonalization with overlap
     ethr =  8.30E-04,  avg # of iterations =  2.1

     total cpu time spent up to now is     1583.2 secs

     total energy              =    -702.39032880 Ry
     Harris-Foulkes estimate   =    -702.39440884 Ry
     estimated scf accuracy    <       0.02975930 Ry

     iteration # 20     ecut=    50.00 Ry     beta= 0.60
     Davidson diagonalization with overlap
     ethr =  4.02E-05,  avg # of iterations =  6.8

     total cpu time spent up to now is     1621.8 secs

     total energy              =    -702.41129626 Ry
     Harris-Foulkes estimate   =    -702.41732545 Ry
     estimated scf accuracy    <       0.05320677 Ry

     iteration # 21     ecut=    50.00 Ry     beta= 0.60
     Davidson diagonalization with overlap
     ethr =  4.02E-05,  avg # of iterations =  1.0

     total cpu time spent up to now is     1644.4 secs

     total energy              =    -702.41059499 Ry
     Harris-Foulkes estimate   =    -702.41265278 Ry
     estimated scf accuracy    <       0.02110420 Ry

     iteration # 22     ecut=    50.00 Ry     beta= 0.60
     Davidson diagonalization with overlap
     ethr =  2.85E-05,  avg # of iterations =  3.7

     total cpu time spent up to now is     1677.1 secs

     total energy              =    -702.41215336 Ry
     Harris-Foulkes estimate   =    -702.41289545 Ry
     estimated scf accuracy    <       0.00334259 Ry

     iteration # 23     ecut=    50.00 Ry     beta= 0.60
     Davidson diagonalization with overlap
     c_bands:  1 eigenvalues not converged
     c_bands:  1 eigenvalues not converged
     c_bands:  1 eigenvalues not converged
     ethr =  4.52E-06,  avg # of iterations =  6.0

     total cpu time spent up to now is     1717.4 secs

     total energy              =    -702.41265693 Ry
     Harris-Foulkes estimate   =    -702.41279060 Ry
     estimated scf accuracy    <       0.00055631 Ry

     iteration # 24     ecut=    50.00 Ry     beta= 0.60
     Davidson diagonalization with overlap
     ethr =  7.52E-07,  avg # of iterations =  4.5

     total cpu time spent up to now is     1752.5 secs

     total energy              =    -702.41274704 Ry
     Harris-Foulkes estimate   =    -702.41275696 Ry
     estimated scf accuracy    <       0.00016949 Ry

     iteration # 25     ecut=    50.00 Ry     beta= 0.60
     Davidson diagonalization with overlap
     ethr =  2.29E-07,  avg # of iterations =  1.6

     total cpu time spent up to now is     1777.6 secs

     total energy              =    -702.41274409 Ry
     Harris-Foulkes estimate   =    -702.41275404 Ry
     estimated scf accuracy    <       0.00011640 Ry

     iteration # 26     ecut=    50.00 Ry     beta= 0.60
     Davidson diagonalization with overlap
     ethr =  1.57E-07,  avg # of iterations =  1.1

     total cpu time spent up to now is     1801.9 secs

     total energy              =    -702.41274496 Ry
     Harris-Foulkes estimate   =    -702.41274836 Ry
     estimated scf accuracy    <       0.00004217 Ry

     iteration # 27     ecut=    50.00 Ry     beta= 0.60
     Davidson diagonalization with overlap
     c_bands:  1 eigenvalues not converged
     ethr =  5.70E-08,  avg # of iterations =  3.0

     total cpu time spent up to now is     1829.1 secs

     total energy              =    -702.41274531 Ry
     Harris-Foulkes estimate   =    -702.41274678 Ry
     estimated scf accuracy    <       0.00001742 Ry

     iteration # 28     ecut=    50.00 Ry     beta= 0.60
     Davidson diagonalization with overlap
     ethr =  2.35E-08,  avg # of iterations =  3.8

     total cpu time spent up to now is     1860.5 secs

     total energy              =    -702.41274687 Ry
     Harris-Foulkes estimate   =    -702.41274712 Ry
     estimated scf accuracy    <       0.00000097 Ry

     iteration # 29     ecut=    50.00 Ry     beta= 0.60
     Davidson diagonalization with overlap
     ethr =  1.31E-09,  avg # of iterations =  5.2

     total cpu time spent up to now is     1901.2 secs

     total energy              =    -702.41274722 Ry
     Harris-Foulkes estimate   =    -702.41274735 Ry
     estimated scf accuracy    <       0.00000087 Ry

     iteration # 30     ecut=    50.00 Ry     beta= 0.60
     Davidson diagonalization with overlap
     ethr =  1.18E-09,  avg # of iterations =  2.1

     total cpu time spent up to now is     1926.6 secs

     total energy              =    -702.41274726 Ry
     Harris-Foulkes estimate   =    -702.41274731 Ry
     estimated scf accuracy    <       0.00000047 Ry

     iteration # 31     ecut=    50.00 Ry     beta= 0.60
     Davidson diagonalization with overlap
     ethr =  6.29E-10,  avg # of iterations =  1.3

     total cpu time spent up to now is     1950.6 secs

     total energy              =    -702.41274725 Ry
     Harris-Foulkes estimate   =    -702.41274729 Ry
     estimated scf accuracy    <       0.00000024 Ry

     iteration # 32     ecut=    50.00 Ry     beta= 0.60
     Davidson diagonalization with overlap
     ethr =  3.20E-10,  avg # of iterations =  3.6

     total cpu time spent up to now is     1986.5 secs

     total energy              =    -702.41274728 Ry
     Harris-Foulkes estimate   =    -702.41274729 Ry
     estimated scf accuracy    <       0.00000008 Ry

     iteration # 33     ecut=    50.00 Ry     beta= 0.60
     Davidson diagonalization with overlap
     ethr =  1.07E-10,  avg # of iterations =  1.6

     total cpu time spent up to now is     2010.1 secs

     total energy              =    -702.41274728 Ry
     Harris-Foulkes estimate   =    -702.41274729 Ry
     estimated scf accuracy    <       0.00000003 Ry

     iteration # 34     ecut=    50.00 Ry     beta= 0.60
     Davidson diagonalization with overlap
     ethr =  4.04E-11,  avg # of iterations =  3.8

     total cpu time spent up to now is     2043.6 secs

     total energy              =    -702.41274728 Ry
     Harris-Foulkes estimate   =    -702.41274729 Ry
     estimated scf accuracy    <       0.00000001 Ry

     iteration # 35     ecut=    50.00 Ry     beta= 0.60
     Davidson diagonalization with overlap
     ethr =  1.77E-11,  avg # of iterations =  1.9

     total cpu time spent up to now is     2068.7 secs

     total energy              =    -702.41274729 Ry
     Harris-Foulkes estimate   =    -702.41274729 Ry
     estimated scf accuracy    <          1.9E-09 Ry

     iteration # 36     ecut=    50.00 Ry     beta= 0.60
     Davidson diagonalization with overlap
     c_bands:  1 eigenvalues not converged
     ethr =  2.54E-12,  avg # of iterations =  4.8

     total cpu time spent up to now is     2105.8 secs

     total energy              =    -702.41274729 Ry
     Harris-Foulkes estimate   =    -702.41274729 Ry
     estimated scf accuracy    <          1.0E-09 Ry

     iteration # 37     ecut=    50.00 Ry     beta= 0.60
     Davidson diagonalization with overlap
     ethr =  1.40E-12,  avg # of iterations =  1.0

     total cpu time spent up to now is     2129.9 secs

     total energy              =    -702.41274729 Ry
     Harris-Foulkes estimate   =    -702.41274729 Ry
     estimated scf accuracy    <          4.6E-10 Ry

     iteration # 38     ecut=    50.00 Ry     beta= 0.60
     Davidson diagonalization with overlap
     ethr =  6.22E-13,  avg # of iterations =  1.0

     total cpu time spent up to now is     2154.3 secs

     total energy              =    -702.41274729 Ry
     Harris-Foulkes estimate   =    -702.41274729 Ry
     estimated scf accuracy    <          4.0E-10 Ry

     iteration # 39     ecut=    50.00 Ry     beta= 0.60
     Davidson diagonalization with overlap
     ethr =  5.41E-13,  avg # of iterations =  1.5

     total cpu time spent up to now is     2178.3 secs

     total energy              =    -702.41274729 Ry
     Harris-Foulkes estimate   =    -702.41274729 Ry
     estimated scf accuracy    <          1.0E-10 Ry

     iteration # 40     ecut=    50.00 Ry     beta= 0.60
     Davidson diagonalization with overlap
     ethr =  1.37E-13,  avg # of iterations =  4.4

     total cpu time spent up to now is     2214.5 secs

     End of self-consistent calculation

     Number of k-points >= 100: set verbosity='high' to print the bands.

     the Fermi energy is    12.8972 ev

!    total energy              =    -702.41274729 Ry
     Harris-Foulkes estimate   =    -702.41274729 Ry
     estimated scf accuracy    <          3.6E-11 Ry

     The total energy is the sum of the following terms:

     one-electron contribution =    -228.03524178 Ry
     hartree contribution      =     136.76575129 Ry
     xc contribution           =     -94.42230985 Ry
     ewald contribution        =    -516.71841906 Ry
     smearing contrib. (-TS)   =      -0.00252788 Ry

     convergence has been achieved in  40 iterations

     Forces acting on atoms (cartesian axes, Ry/au):

     atom    1 type  2   force =    -0.00135560   -0.00135560    0.00135560
     atom    2 type  2   force =     0.00136435    0.00136435   -0.00136435
     atom    3 type  2   force =    -0.00266102   -0.00266102    0.00266102
     atom    4 type  2   force =     0.00265878    0.00265878   -0.00265878
     atom    5 type  1   force =    -0.00377431   -0.00377431    0.00377431
     atom    6 type  1   force =     0.00376780    0.00376780   -0.00376780

     Total force =     0.011784     Total SCF correction =     0.000007


     Computing stress (Cartesian axis) and pressure

          total   stress  (Ry/bohr**3)                   (kbar)     P= -125.23
  -0.00085131   0.00000125  -0.00000125       -125.23      0.18     -0.18
   0.00000125  -0.00085131  -0.00000125          0.18   -125.23     -0.18
  -0.00000125  -0.00000125  -0.00085131         -0.18     -0.18   -125.23


     number of scf cycles    =   2
     number of bfgs steps    =   1

     enthalpy old            =    -702.3232983062 Ry
     enthalpy new            =    -702.4127472857 Ry

     CASE: enthalpy_new < enthalpy_old

     new trust radius        =       0.2810583166 bohr
     new conv_thr            =            1.0E-10 Ry

     new unit-cell volume =    684.69102 a.u.^3 (   101.46074 Ang^3 )
     density =      6.17470 g/cm^3

CELL_PARAMETERS (alat=  1.88972599)
  -0.000000000   3.233357596   3.233357596
  -3.233357596   0.000000000  -3.233357596
  -3.234963542  -3.234963542   3.234963542

ATOMIC_POSITIONS (angstrom)
Ti      -3.237959276  -0.004601680   3.237959276
Ti      -1.613406645   1.619950951   1.613406645
Ti      -3.237409645  -0.004052048   0.004052048
Ti      -4.847324856   1.619390337   1.613967259
Nb      -4.858371362  -1.625013766   1.625013766
Nb      -6.461330997   0.005384195   3.227973401


     NEW-OLD atomic charge density approx. for the potential
     extrapolated charge   62.42130, renormalised to   74.00000

     total cpu time spent up to now is     2236.2 secs

     Self-consistent Calculation

     iteration #  1     ecut=    50.00 Ry     beta= 0.60
     Davidson diagonalization with overlap
     ethr =  1.00E-06,  avg # of iterations = 13.0

     total cpu time spent up to now is     2336.9 secs

     total energy              =    -655.85423816 Ry
     Harris-Foulkes estimate   =    -728.31703544 Ry
     estimated scf accuracy    <      51.04897456 Ry

     iteration #  2     ecut=    50.00 Ry     beta= 0.60
     Davidson diagonalization with overlap
     ethr =  1.00E-02,  avg # of iterations =  7.1

     total cpu time spent up to now is     2406.6 secs

     total energy              =    -685.46262931 Ry
     Harris-Foulkes estimate   =    -762.89652101 Ry
     estimated scf accuracy    <     245.38680454 Ry

     iteration #  3     ecut=    50.00 Ry     beta= 0.60
     Davidson diagonalization with overlap
     ethr =  1.00E-02,  avg # of iterations =  5.1

     total cpu time spent up to now is     2460.7 secs

     total energy              =    -705.56812332 Ry
     Harris-Foulkes estimate   =    -710.08992813 Ry
     estimated scf accuracy    <      19.62779500 Ry

     iteration #  4     ecut=    50.00 Ry     beta= 0.60
     Davidson diagonalization with overlap
     ethr =  1.00E-02,  avg # of iterations =  1.6

     total cpu time spent up to now is     2485.8 secs

     total energy              =    -704.31322297 Ry
     Harris-Foulkes estimate   =    -706.25207323 Ry
     estimated scf accuracy    <      17.63857462 Ry

     iteration #  5     ecut=    50.00 Ry     beta= 0.60
     Davidson diagonalization with overlap
     ethr =  1.00E-02,  avg # of iterations =  1.2

     total cpu time spent up to now is     2509.9 secs

     total energy              =    -702.20126559 Ry
     Harris-Foulkes estimate   =    -704.64574168 Ry
     estimated scf accuracy    <       9.36556740 Ry

     iteration #  6     ecut=    50.00 Ry     beta= 0.60
     Davidson diagonalization with overlap
     ethr =  1.00E-02,  avg # of iterations =  2.2

     total cpu time spent up to now is     2538.7 secs

     total energy              =    -702.36316034 Ry
     Harris-Foulkes estimate   =    -702.63971198 Ry
     estimated scf accuracy    <       2.86713101 Ry

     iteration #  7     ecut=    50.00 Ry     beta= 0.60
     Davidson diagonalization with overlap
     ethr =  3.87E-03,  avg # of iterations =  4.4

     total cpu time spent up to now is     2572.1 secs

     total energy              =    -703.04486257 Ry
     Harris-Foulkes estimate   =    -702.67517002 Ry
     estimated scf accuracy    <       0.90835730 Ry

     iteration #  8     ecut=    50.00 Ry     beta= 0.60
     Davidson diagonalization with overlap
     ethr =  1.23E-03,  avg # of iterations =  4.1

     total cpu time spent up to now is     2607.3 secs

     total energy              =    -703.12727299 Ry
     Harris-Foulkes estimate   =    -703.30026683 Ry
     estimated scf accuracy    <       3.91999516 Ry

     iteration #  9     ecut=    50.00 Ry     beta= 0.60
     Davidson diagonalization with overlap
     ethr =  1.23E-03,  avg # of iterations =  1.0

     total cpu time spent up to now is     2631.5 secs

     total energy              =    -703.20904753 Ry
     Harris-Foulkes estimate   =    -703.13280116 Ry
     estimated scf accuracy    <       3.50759482 Ry

     iteration # 10     ecut=    50.00 Ry     beta= 0.60
     Davidson diagonalization with overlap
     ethr =  1.23E-03,  avg # of iterations =  1.0

     total cpu time spent up to now is     2655.5 secs

     total energy              =    -701.61617771 Ry
     Harris-Foulkes estimate   =    -703.21074404 Ry
     estimated scf accuracy    <       3.73613121 Ry

     iteration # 11     ecut=    50.00 Ry     beta= 0.60
     Davidson diagonalization with overlap
     ethr =  1.23E-03,  avg # of iterations =  5.4

     total cpu time spent up to now is     2705.3 secs

     total energy              =    -702.50192879 Ry
     Harris-Foulkes estimate   =    -702.76824474 Ry
     estimated scf accuracy    <       5.03341706 Ry

     iteration # 12     ecut=    50.00 Ry     beta= 0.60
     Davidson diagonalization with overlap
     ethr =  1.23E-03,  avg # of iterations =  1.0

     total cpu time spent up to now is     2730.0 secs

     total energy              =    -702.53239666 Ry
     Harris-Foulkes estimate   =    -702.54107676 Ry
     estimated scf accuracy    <       2.36630790 Ry

     iteration # 13     ecut=    50.00 Ry     beta= 0.60
     Davidson diagonalization with overlap
     ethr =  1.23E-03,  avg # of iterations =  1.0

     total cpu time spent up to now is     2754.1 secs

     total energy              =    -702.54931165 Ry
     Harris-Foulkes estimate   =    -702.54721480 Ry
     estimated scf accuracy    <       2.34580078 Ry

     iteration # 14     ecut=    50.00 Ry     beta= 0.60
     Davidson diagonalization with overlap
     ethr =  1.23E-03,  avg # of iterations =  1.0

     total cpu time spent up to now is     2779.3 secs

     total energy              =    -702.53344106 Ry
     Harris-Foulkes estimate   =    -702.55687464 Ry
     estimated scf accuracy    <       2.30145185 Ry

     iteration # 15     ecut=    50.00 Ry     beta= 0.60
     Davidson diagonalization with overlap
     ethr =  1.23E-03,  avg # of iterations =  1.0

     total cpu time spent up to now is     2803.3 secs

     total energy              =    -702.54733719 Ry
     Harris-Foulkes estimate   =    -702.54227177 Ry
     estimated scf accuracy    <       1.83854953 Ry

     iteration # 16     ecut=    50.00 Ry     beta= 0.60
     Davidson diagonalization with overlap
     ethr =  1.23E-03,  avg # of iterations =  1.0

     total cpu time spent up to now is     2827.1 secs

     total energy              =    -702.51994639 Ry
     Harris-Foulkes estimate   =    -702.55031637 Ry
     estimated scf accuracy    <       1.82638456 Ry

     iteration # 17     ecut=    50.00 Ry     beta= 0.60
     Davidson diagonalization with overlap
     ethr =  1.23E-03,  avg # of iterations =  1.0

     total cpu time spent up to now is     2851.0 secs

     total energy              =    -702.51408365 Ry
     Harris-Foulkes estimate   =    -702.52439029 Ry
     estimated scf accuracy    <       1.35542112 Ry

     iteration # 18     ecut=    50.00 Ry     beta= 0.60
     Davidson diagonalization with overlap
     ethr =  1.23E-03,  avg # of iterations =  1.0

     total cpu time spent up to now is     2875.0 secs

     total energy              =    -702.33829368 Ry
     Harris-Foulkes estimate   =    -702.51643763 Ry
     estimated scf accuracy    <       1.18437594 Ry

     iteration # 19     ecut=    50.00 Ry     beta= 0.60
     Davidson diagonalization with overlap
     ethr =  1.23E-03,  avg # of iterations =  3.0

     total cpu time spent up to now is     2903.4 secs

     total energy              =    -702.42564023 Ry
     Harris-Foulkes estimate   =    -702.42798058 Ry
     estimated scf accuracy    <       0.01300273 Ry

     iteration # 20     ecut=    50.00 Ry     beta= 0.60
     Davidson diagonalization with overlap
     ethr =  1.76E-05,  avg # of iterations =  7.0

     total cpu time spent up to now is     2957.3 secs

     total energy              =    -702.45148282 Ry
     Harris-Foulkes estimate   =    -702.45734181 Ry
     estimated scf accuracy    <       0.04592256 Ry

     iteration # 21     ecut=    50.00 Ry     beta= 0.60
     Davidson diagonalization with overlap
     ethr =  1.76E-05,  avg # of iterations =  3.1

     total cpu time spent up to now is     2985.3 secs

     total energy              =    -702.45092999 Ry
     Harris-Foulkes estimate   =    -702.45290499 Ry
     estimated scf accuracy    <       0.01241230 Ry

     iteration # 22     ecut=    50.00 Ry     beta= 0.60
     Davidson diagonalization with overlap
     ethr =  1.68E-05,  avg # of iterations =  4.0

     total cpu time spent up to now is     3017.6 secs

     total energy              =    -702.45272230 Ry
     Harris-Foulkes estimate   =    -702.45301161 Ry
     estimated scf accuracy    <       0.00188060 Ry

     iteration # 23     ecut=    50.00 Ry     beta= 0.60
     Davidson diagonalization with overlap
     c_bands:  1 eigenvalues not converged
     c_bands:  1 eigenvalues not converged
     ethr =  2.54E-06,  avg # of iterations =  6.1

     total cpu time spent up to now is     3053.7 secs

     total energy              =    -702.45289972 Ry
     Harris-Foulkes estimate   =    -702.45292998 Ry
     estimated scf accuracy    <       0.00063016 Ry

     iteration # 24     ecut=    50.00 Ry     beta= 0.60
     Davidson diagonalization with overlap
     ethr =  8.52E-07,  avg # of iterations =  1.3

     total cpu time spent up to now is     3077.9 secs

     total energy              =    -702.45288892 Ry
     Harris-Foulkes estimate   =    -702.45292182 Ry
     estimated scf accuracy    <       0.00037942 Ry

     iteration # 25     ecut=    50.00 Ry     beta= 0.60
     Davidson diagonalization with overlap
     ethr =  5.13E-07,  avg # of iterations =  1.8

     total cpu time spent up to now is     3103.2 secs

     total energy              =    -702.45289292 Ry
     Harris-Foulkes estimate   =    -702.45290267 Ry
     estimated scf accuracy    <       0.00012266 Ry

     iteration # 26     ecut=    50.00 Ry     beta= 0.60
     Davidson diagonalization with overlap
     ethr =  1.66E-07,  avg # of iterations =  3.8

     total cpu time spent up to now is     3135.0 secs

     total energy              =    -702.45290489 Ry
     Harris-Foulkes estimate   =    -702.45290806 Ry
     estimated scf accuracy    <       0.00001862 Ry

     iteration # 27     ecut=    50.00 Ry     beta= 0.60
     Davidson diagonalization with overlap
     ethr =  2.52E-08,  avg # of iterations =  3.8

     total cpu time spent up to now is     3167.1 secs

     total energy              =    -702.45290715 Ry
     Harris-Foulkes estimate   =    -702.45290753 Ry
     estimated scf accuracy    <       0.00000166 Ry

     iteration # 28     ecut=    50.00 Ry     beta= 0.60
     Davidson diagonalization with overlap
     ethr =  2.24E-09,  avg # of iterations =  4.4

     total cpu time spent up to now is     3203.6 secs

     total energy              =    -702.45290739 Ry
     Harris-Foulkes estimate   =    -702.45290782 Ry
     estimated scf accuracy    <       0.00000294 Ry

     iteration # 29     ecut=    50.00 Ry     beta= 0.60
     Davidson diagonalization with overlap
     ethr =  2.24E-09,  avg # of iterations =  2.5

     total cpu time spent up to now is     3230.6 secs

     total energy              =    -702.45290740 Ry
     Harris-Foulkes estimate   =    -702.45290752 Ry
     estimated scf accuracy    <       0.00000067 Ry

     iteration # 30     ecut=    50.00 Ry     beta= 0.60
     Davidson diagonalization with overlap
     ethr =  9.00E-10,  avg # of iterations =  4.0

     total cpu time spent up to now is     3268.6 secs

     total energy              =    -702.45290754 Ry
     Harris-Foulkes estimate   =    -702.45290758 Ry
     estimated scf accuracy    <       0.00000026 Ry

     iteration # 31     ecut=    50.00 Ry     beta= 0.60
     Davidson diagonalization with overlap
     ethr =  3.45E-10,  avg # of iterations =  1.0

     total cpu time spent up to now is     3292.8 secs

     total energy              =    -702.45290754 Ry
     Harris-Foulkes estimate   =    -702.45290755 Ry
     estimated scf accuracy    <       0.00000004 Ry

     iteration # 32     ecut=    50.00 Ry     beta= 0.60
     Davidson diagonalization with overlap
     ethr =  5.65E-11,  avg # of iterations =  4.0

     total cpu time spent up to now is     3328.7 secs

     total energy              =    -702.45290755 Ry
     Harris-Foulkes estimate   =    -702.45290756 Ry
     estimated scf accuracy    <       0.00000002 Ry

     iteration # 33     ecut=    50.00 Ry     beta= 0.60
     Davidson diagonalization with overlap
     ethr =  2.88E-11,  avg # of iterations =  1.3

     total cpu time spent up to now is     3352.9 secs

     total energy              =    -702.45290756 Ry
     Harris-Foulkes estimate   =    -702.45290756 Ry
     estimated scf accuracy    <          1.9E-09 Ry

     iteration # 34     ecut=    50.00 Ry     beta= 0.60
     Davidson diagonalization with overlap
     ethr =  2.53E-12,  avg # of iterations =  4.4

     total cpu time spent up to now is     3390.0 secs

     total energy              =    -702.45290756 Ry
     Harris-Foulkes estimate   =    -702.45290756 Ry
     estimated scf accuracy    <          4.4E-10 Ry

     iteration # 35     ecut=    50.00 Ry     beta= 0.60
     Davidson diagonalization with overlap
     ethr =  5.89E-13,  avg # of iterations =  3.4

     total cpu time spent up to now is     3418.0 secs

     total energy              =    -702.45290756 Ry
     Harris-Foulkes estimate   =    -702.45290756 Ry
     estimated scf accuracy    <          7.0E-10 Ry

     iteration # 36     ecut=    50.00 Ry     beta= 0.60
     Davidson diagonalization with overlap
     ethr =  5.89E-13,  avg # of iterations =  3.9

     total cpu time spent up to now is     3450.2 secs

     total energy              =    -702.45290756 Ry
     Harris-Foulkes estimate   =    -702.45290756 Ry
     estimated scf accuracy    <          1.5E-10 Ry

     iteration # 37     ecut=    50.00 Ry     beta= 0.60
     Davidson diagonalization with overlap
     ethr =  1.98E-13,  avg # of iterations =  1.7

     total cpu time spent up to now is     3478.8 secs

     End of self-consistent calculation

     Number of k-points >= 100: set verbosity='high' to print the bands.

     the Fermi energy is    15.4647 ev

!    total energy              =    -702.45290756 Ry
     Harris-Foulkes estimate   =    -702.45290756 Ry
     estimated scf accuracy    <          1.4E-11 Ry

     The total energy is the sum of the following terms:

     one-electron contribution =    -188.33820699 Ry
     hartree contribution      =     124.84502138 Ry
     xc contribution           =     -95.21017920 Ry
     ewald contribution        =    -543.74725819 Ry
     smearing contrib. (-TS)   =      -0.00228455 Ry

     convergence has been achieved in  37 iterations

     Forces acting on atoms (cartesian axes, Ry/au):

     atom    1 type  2   force =     0.00487311    0.00487311   -0.00487311
     atom    2 type  2   force =    -0.00487407   -0.00487407    0.00487407
     atom    3 type  2   force =    -0.00599179   -0.00599179    0.00599179
     atom    4 type  2   force =     0.00599663    0.00599663   -0.00599663
     atom    5 type  1   force =     0.00011914    0.00011914   -0.00011914
     atom    6 type  1   force =    -0.00012302   -0.00012302    0.00012302

     Total force =     0.018926     Total SCF correction =     0.000008


     Computing stress (Cartesian axis) and pressure

          total   stress  (Ry/bohr**3)                   (kbar)     P=   41.32
   0.00028091   0.00000120  -0.00000120         41.32      0.18     -0.18
   0.00000120   0.00028091  -0.00000120          0.18     41.32     -0.18
  -0.00000120  -0.00000120   0.00028091         -0.18     -0.18     41.32


     number of scf cycles    =   3
     number of bfgs steps    =   2

     enthalpy old            =    -702.4127472857 Ry
     enthalpy new            =    -702.4529075563 Ry

     CASE: enthalpy_new < enthalpy_old

     new trust radius        =       0.0621904984 bohr
     new conv_thr            =            1.0E-10 Ry

     new unit-cell volume =    709.39194 a.u.^3 (   105.12104 Ang^3 )
     density =      5.95970 g/cm^3

CELL_PARAMETERS (alat=  1.88972599)
  -0.000000000   3.271755755   3.271755755
  -3.271755755   0.000000000  -3.271755755
  -3.273457724  -3.273457724   3.273457724

ATOMIC_POSITIONS (angstrom)
Ti      -3.274554690  -0.002798935   3.274554690
Ti      -1.634490061   1.637265694   1.634490061
Ti      -3.277571166  -0.005815411   0.005815411
Ti      -4.903236740   1.640274771   1.631480984
Nb      -4.915517058  -1.643761303   1.643761303
Nb      -6.538755341   0.004756170   3.266999585


     NEW-OLD atomic charge density approx. for the potential
     extrapolated charge   76.43719, renormalised to   74.00000

     total cpu time spent up to now is     3497.4 secs

     Self-consistent Calculation

     iteration #  1     ecut=    50.00 Ry     beta= 0.60
     Davidson diagonalization with overlap
     c_bands:  1 eigenvalues not converged
     ethr =  1.00E-06,  avg # of iterations = 11.9

     total cpu time spent up to now is     3587.0 secs

     total energy              =    -701.96629692 Ry
     Harris-Foulkes estimate   =    -697.86871189 Ry
     estimated scf accuracy    <       0.40650415 Ry

     iteration #  2     ecut=    50.00 Ry     beta= 0.60
     Davidson diagonalization with overlap
     ethr =  5.49E-04,  avg # of iterations =  5.2

     total cpu time spent up to now is     3639.6 secs

     total energy              =    -701.85235628 Ry
     Harris-Foulkes estimate   =    -703.22723742 Ry
     estimated scf accuracy    <       8.38305215 Ry

     iteration #  3     ecut=    50.00 Ry     beta= 0.60
     Davidson diagonalization with overlap
     ethr =  5.49E-04,  avg # of iterations =  5.1

     total cpu time spent up to now is     3684.0 secs

     total energy              =    -702.38940396 Ry
     Harris-Foulkes estimate   =    -702.60809753 Ry
     estimated scf accuracy    <       0.88950641 Ry

     iteration #  4     ecut=    50.00 Ry     beta= 0.60
     Davidson diagonalization with overlap
     ethr =  5.49E-04,  avg # of iterations =  4.3

     total cpu time spent up to now is     3719.0 secs

     total energy              =    -702.45562899 Ry
     Harris-Foulkes estimate   =    -702.50008524 Ry
     estimated scf accuracy    <       0.43813104 Ry

     iteration #  5     ecut=    50.00 Ry     beta= 0.60
     Davidson diagonalization with overlap
     ethr =  5.49E-04,  avg # of iterations =  1.0

     total cpu time spent up to now is     3742.8 secs

     total energy              =    -702.46570318 Ry
     Harris-Foulkes estimate   =    -702.47659584 Ry
     estimated scf accuracy    <       0.12390453 Ry

     iteration #  6     ecut=    50.00 Ry     beta= 0.60
     Davidson diagonalization with overlap
     ethr =  1.67E-04,  avg # of iterations =  2.3

     total cpu time spent up to now is     3768.3 secs

     total energy              =    -702.45966796 Ry
     Harris-Foulkes estimate   =    -702.46867190 Ry
     estimated scf accuracy    <       0.08204836 Ry

     iteration #  7     ecut=    50.00 Ry     beta= 0.60
     Davidson diagonalization with overlap
     ethr =  1.11E-04,  avg # of iterations =  2.9

     total cpu time spent up to now is     3795.4 secs

     total energy              =    -702.45739893 Ry
     Harris-Foulkes estimate   =    -702.46222083 Ry
     estimated scf accuracy    <       0.04631799 Ry

     iteration #  8     ecut=    50.00 Ry     beta= 0.60
     Davidson diagonalization with overlap
     ethr =  6.26E-05,  avg # of iterations =  3.0

     total cpu time spent up to now is     3822.6 secs

     total energy              =    -702.45850450 Ry
     Harris-Foulkes estimate   =    -702.45917199 Ry
     estimated scf accuracy    <       0.02384663 Ry

     iteration #  9     ecut=    50.00 Ry     beta= 0.60
     Davidson diagonalization with overlap
     ethr =  3.22E-05,  avg # of iterations =  2.6

     total cpu time spent up to now is     3848.4 secs

     total energy              =    -702.45823407 Ry
     Harris-Foulkes estimate   =    -702.45888968 Ry
     estimated scf accuracy    <       0.02084810 Ry

     iteration # 10     ecut=    50.00 Ry     beta= 0.60
     Davidson diagonalization with overlap
     ethr =  2.82E-05,  avg # of iterations =  1.1

     total cpu time spent up to now is     3872.2 secs

     total energy              =    -702.45341709 Ry
     Harris-Foulkes estimate   =    -702.45843126 Ry
     estimated scf accuracy    <       0.01714140 Ry

     iteration # 11     ecut=    50.00 Ry     beta= 0.60
     Davidson diagonalization with overlap
     ethr =  2.32E-05,  avg # of iterations =  3.7

     total cpu time spent up to now is     3904.0 secs

     total energy              =    -702.45573900 Ry
     Harris-Foulkes estimate   =    -702.45575686 Ry
     estimated scf accuracy    <       0.00128803 Ry

     iteration # 12     ecut=    50.00 Ry     beta= 0.60
     Davidson diagonalization with overlap
     c_bands:  1 eigenvalues not converged
     ethr =  1.74E-06,  avg # of iterations =  8.0

     total cpu time spent up to now is     3951.7 secs

     total energy              =    -702.45595002 Ry
     Harris-Foulkes estimate   =    -702.45606934 Ry
     estimated scf accuracy    <       0.00194341 Ry

     iteration # 13     ecut=    50.00 Ry     beta= 0.60
     Davidson diagonalization with overlap
     ethr =  1.74E-06,  avg # of iterations =  1.0

     total cpu time spent up to now is     3975.5 secs

     total energy              =    -702.45590872 Ry
     Harris-Foulkes estimate   =    -702.45597390 Ry
     estimated scf accuracy    <       0.00083197 Ry

     iteration # 14     ecut=    50.00 Ry     beta= 0.60
     Davidson diagonalization with overlap
     ethr =  1.12E-06,  avg # of iterations =  1.3

     total cpu time spent up to now is     3999.6 secs

     total energy              =    -702.45592224 Ry
     Harris-Foulkes estimate   =    -702.45593330 Ry
     estimated scf accuracy    <       0.00018428 Ry

     iteration # 15     ecut=    50.00 Ry     beta= 0.60
     Davidson diagonalization with overlap
     ethr =  2.49E-07,  avg # of iterations =  4.1

     total cpu time spent up to now is     4033.7 secs

     total energy              =    -702.45593906 Ry
     Harris-Foulkes estimate   =    -702.45594123 Ry
     estimated scf accuracy    <       0.00002116 Ry

     iteration # 16     ecut=    50.00 Ry     beta= 0.60
     Davidson diagonalization with overlap
     ethr =  2.86E-08,  avg # of iterations =  3.9

     total cpu time spent up to now is     4066.1 secs

     total energy              =    -702.45594254 Ry
     Harris-Foulkes estimate   =    -702.45594258 Ry
     estimated scf accuracy    <       0.00000798 Ry

     iteration # 17     ecut=    50.00 Ry     beta= 0.60
     Davidson diagonalization with overlap
     ethr =  1.08E-08,  avg # of iterations =  1.2

     total cpu time spent up to now is     4090.3 secs

     total energy              =    -702.45594156 Ry
     Harris-Foulkes estimate   =    -702.45594290 Ry
     estimated scf accuracy    <       0.00001197 Ry

     iteration # 18     ecut=    50.00 Ry     beta= 0.60
     Davidson diagonalization with overlap
     ethr =  1.08E-08,  avg # of iterations =  1.0

     total cpu time spent up to now is     4114.1 secs

     total energy              =    -702.45594189 Ry
     Harris-Foulkes estimate   =    -702.45594201 Ry
     estimated scf accuracy    <       0.00000182 Ry

     iteration # 19     ecut=    50.00 Ry     beta= 0.60
     Davidson diagonalization with overlap
     ethr =  2.46E-09,  avg # of iterations =  4.0

     total cpu time spent up to now is     4147.2 secs

     total energy              =    -702.45594208 Ry
     Harris-Foulkes estimate   =    -702.45594216 Ry
     estimated scf accuracy    <       0.00000099 Ry

     iteration # 20     ecut=    50.00 Ry     beta= 0.60
     Davidson diagonalization with overlap
     ethr =  1.34E-09,  avg # of iterations =  1.2

     total cpu time spent up to now is     4171.5 secs

     total energy              =    -702.45594209 Ry
     Harris-Foulkes estimate   =    -702.45594212 Ry
     estimated scf accuracy    <       0.00000026 Ry

     iteration # 21     ecut=    50.00 Ry     beta= 0.60
     Davidson diagonalization with overlap
     ethr =  3.51E-10,  avg # of iterations =  4.1

     total cpu time spent up to now is     4209.1 secs

     total energy              =    -702.45594208 Ry
     Harris-Foulkes estimate   =    -702.45594217 Ry
     estimated scf accuracy    <       0.00000084 Ry

     iteration # 22     ecut=    50.00 Ry     beta= 0.60
     Davidson diagonalization with overlap
     ethr =  3.51E-10,  avg # of iterations =  2.7

     total cpu time spent up to now is     4243.0 secs

     total energy              =    -702.45594209 Ry
     Harris-Foulkes estimate   =    -702.45594211 Ry
     estimated scf accuracy    <       0.00000011 Ry

     iteration # 23     ecut=    50.00 Ry     beta= 0.60
     Davidson diagonalization with overlap
     ethr =  1.48E-10,  avg # of iterations =  4.1

     total cpu time spent up to now is     4280.5 secs

     total energy              =    -702.45594212 Ry
     Harris-Foulkes estimate   =    -702.45594213 Ry
     estimated scf accuracy    <       0.00000012 Ry

     iteration # 24     ecut=    50.00 Ry     beta= 0.60
     Davidson diagonalization with overlap
     ethr =  1.48E-10,  avg # of iterations =  1.0

     total cpu time spent up to now is     4305.4 secs

     total energy              =    -702.45594212 Ry
     Harris-Foulkes estimate   =    -702.45594212 Ry
     estimated scf accuracy    <       0.00000003 Ry

     iteration # 25     ecut=    50.00 Ry     beta= 0.60
     Davidson diagonalization with overlap
     ethr =  3.80E-11,  avg # of iterations =  3.8

     total cpu time spent up to now is     4338.9 secs

     total energy              =    -702.45594212 Ry
     Harris-Foulkes estimate   =    -702.45594212 Ry
     estimated scf accuracy    <          2.7E-09 Ry

     iteration # 26     ecut=    50.00 Ry     beta= 0.60
     Davidson diagonalization with overlap
     ethr =  3.68E-12,  avg # of iterations =  2.5

     total cpu time spent up to now is     4366.6 secs

     total energy              =    -702.45594212 Ry
     Harris-Foulkes estimate   =    -702.45594212 Ry
     estimated scf accuracy    <          1.1E-09 Ry

     iteration # 27     ecut=    50.00 Ry     beta= 0.60
     Davidson diagonalization with overlap
     ethr =  1.50E-12,  avg # of iterations =  3.8

     total cpu time spent up to now is     4398.3 secs

     total energy              =    -702.45594212 Ry
     Harris-Foulkes estimate   =    -702.45594212 Ry
     estimated scf accuracy    <          2.7E-10 Ry

     iteration # 28     ecut=    50.00 Ry     beta= 0.60
     Davidson diagonalization with overlap
     ethr =  3.59E-13,  avg # of iterations =  3.1

     total cpu time spent up to now is     4427.6 secs

     End of self-consistent calculation

     Number of k-points >= 100: set verbosity='high' to print the bands.

     the Fermi energy is    14.8366 ev

!    total energy              =    -702.45594212 Ry
     Harris-Foulkes estimate   =    -702.45594212 Ry
     estimated scf accuracy    <          1.1E-11 Ry

     The total energy is the sum of the following terms:

     one-electron contribution =    -197.60507093 Ry
     hartree contribution      =     127.55124188 Ry
     xc contribution           =     -95.01401533 Ry
     ewald contribution        =    -537.38583799 Ry
     smearing contrib. (-TS)   =      -0.00225974 Ry

     convergence has been achieved in  28 iterations

     Forces acting on atoms (cartesian axes, Ry/au):

     atom    1 type  2   force =     0.00276759    0.00276759   -0.00276759
     atom    2 type  2   force =    -0.00277288   -0.00277288    0.00277288
     atom    3 type  2   force =    -0.00485693   -0.00485693    0.00485693
     atom    4 type  2   force =     0.00487225    0.00487225   -0.00487225
     atom    5 type  1   force =    -0.00115803   -0.00115803    0.00115803
     atom    6 type  1   force =     0.00114800    0.00114800   -0.00114800

     Total force =     0.014000     Total SCF correction =     0.000003


     Computing stress (Cartesian axis) and pressure

          total   stress  (Ry/bohr**3)                   (kbar)     P=   -6.09
  -0.00004142   0.00000206  -0.00000206         -6.09      0.30     -0.30
   0.00000206  -0.00004142  -0.00000206          0.30     -6.09     -0.30
  -0.00000206  -0.00000206  -0.00004142         -0.30     -0.30     -6.09


     number of scf cycles    =   4
     number of bfgs steps    =   3

     enthalpy old            =    -702.4529075563 Ry
     enthalpy new            =    -702.4559421200 Ry

     CASE: enthalpy_new < enthalpy_old

     new trust radius        =       0.0074305284 bohr
     new conv_thr            =            1.0E-10 Ry

     new unit-cell volume =    706.43064 a.u.^3 (   104.68222 Ang^3 )
     density =      5.98468 g/cm^3

CELL_PARAMETERS (alat=  1.88972599)
  -0.000000000   3.267047188   3.267047188
  -3.267047188   0.000000000  -3.267047188
  -3.269195950  -3.269195950   3.269195950

ATOMIC_POSITIONS (angstrom)
Ti      -3.268927774  -0.001880587   3.268927774
Ti      -1.633428482   1.633618706   1.633428482
Ti      -3.275172423  -0.008125235   0.008125235
Ti      -4.894230084   1.639864292   1.627182896
Nb      -4.909359420  -1.642312232   1.642312232
Nb      -6.529256392   0.004837984   3.262209204


     NEW-OLD atomic charge density approx. for the potential
     extrapolated charge   73.70659, renormalised to   74.00000

     total cpu time spent up to now is     4445.8 secs

     Self-consistent Calculation

     iteration #  1     ecut=    50.00 Ry     beta= 0.60
     Davidson diagonalization with overlap
     ethr =  1.00E-06,  avg # of iterations =  5.0

     total cpu time spent up to now is     4497.3 secs

     total energy              =    -702.44444032 Ry
     Harris-Foulkes estimate   =    -703.01781855 Ry
     estimated scf accuracy    <       0.01112978 Ry

     iteration #  2     ecut=    50.00 Ry     beta= 0.60
     Davidson diagonalization with overlap
     ethr =  1.50E-05,  avg # of iterations =  5.3

     total cpu time spent up to now is     4546.9 secs

     total energy              =    -702.43526370 Ry
     Harris-Foulkes estimate   =    -702.48529717 Ry
     estimated scf accuracy    <       0.33905281 Ry

     iteration #  3     ecut=    50.00 Ry     beta= 0.60
     Davidson diagonalization with overlap
     ethr =  1.50E-05,  avg # of iterations =  5.5

     total cpu time spent up to now is     4591.5 secs

     total energy              =    -702.45491091 Ry
     Harris-Foulkes estimate   =    -702.45903483 Ry
     estimated scf accuracy    <       0.01470154 Ry

     iteration #  4     ecut=    50.00 Ry     beta= 0.60
     Davidson diagonalization with overlap
     ethr =  1.50E-05,  avg # of iterations =  4.3

     total cpu time spent up to now is     4623.5 secs

     total energy              =    -702.45543843 Ry
     Harris-Foulkes estimate   =    -702.45813041 Ry
     estimated scf accuracy    <       0.02232421 Ry

     iteration #  5     ecut=    50.00 Ry     beta= 0.60
     Davidson diagonalization with overlap
     ethr =  1.50E-05,  avg # of iterations =  1.2

     total cpu time spent up to now is     4646.9 secs

     total energy              =    -702.45605198 Ry
     Harris-Foulkes estimate   =    -702.45648355 Ry
     estimated scf accuracy    <       0.00355344 Ry

     iteration #  6     ecut=    50.00 Ry     beta= 0.60
     Davidson diagonalization with overlap
     ethr =  4.80E-06,  avg # of iterations =  4.4

     total cpu time spent up to now is     4678.8 secs

     total energy              =    -702.45626298 Ry
     Harris-Foulkes estimate   =    -702.45643220 Ry
     estimated scf accuracy    <       0.00191530 Ry

     iteration #  7     ecut=    50.00 Ry     beta= 0.60
     Davidson diagonalization with overlap
     ethr =  2.59E-06,  avg # of iterations =  1.1

     total cpu time spent up to now is     4702.3 secs

     total energy              =    -702.45622070 Ry
     Harris-Foulkes estimate   =    -702.45630022 Ry
     estimated scf accuracy    <       0.00108954 Ry

     iteration #  8     ecut=    50.00 Ry     beta= 0.60
     Davidson diagonalization with overlap
     ethr =  1.47E-06,  avg # of iterations =  1.1

     total cpu time spent up to now is     4725.7 secs

     total energy              =    -702.45613362 Ry
     Harris-Foulkes estimate   =    -702.45623896 Ry
     estimated scf accuracy    <       0.00068923 Ry

     iteration #  9     ecut=    50.00 Ry     beta= 0.60
     Davidson diagonalization with overlap
     ethr =  9.31E-07,  avg # of iterations =  2.6

     total cpu time spent up to now is     4749.9 secs

     total energy              =    -702.45615371 Ry
     Harris-Foulkes estimate   =    -702.45616772 Ry
     estimated scf accuracy    <       0.00018083 Ry

     iteration # 10     ecut=    50.00 Ry     beta= 0.60
     Davidson diagonalization with overlap
     ethr =  2.44E-07,  avg # of iterations =  3.9

     total cpu time spent up to now is     4776.7 secs

     total energy              =    -702.45617033 Ry
     Harris-Foulkes estimate   =    -702.45617811 Ry
     estimated scf accuracy    <       0.00002321 Ry

     iteration # 11     ecut=    50.00 Ry     beta= 0.60
     Davidson diagonalization with overlap
     ethr =  3.14E-08,  avg # of iterations =  4.8

     total cpu time spent up to now is     4808.4 secs

     total energy              =    -702.45617748 Ry
     Harris-Foulkes estimate   =    -702.45617913 Ry
     estimated scf accuracy    <       0.00002668 Ry

     iteration # 12     ecut=    50.00 Ry     beta= 0.60
     Davidson diagonalization with overlap
     ethr =  3.14E-08,  avg # of iterations =  1.0

     total cpu time spent up to now is     4828.5 secs

     total energy              =    -702.45617779 Ry
     Harris-Foulkes estimate   =    -702.45617782 Ry
     estimated scf accuracy    <       0.00001505 Ry

     iteration # 13     ecut=    50.00 Ry     beta= 0.60
     Davidson diagonalization with overlap
     ethr =  2.03E-08,  avg # of iterations =  1.0

     total cpu time spent up to now is     4848.7 secs

     total energy              =    -702.45617700 Ry
     Harris-Foulkes estimate   =    -702.45617791 Ry
     estimated scf accuracy    <       0.00001458 Ry

     iteration # 14     ecut=    50.00 Ry     beta= 0.60
     Davidson diagonalization with overlap
     ethr =  1.97E-08,  avg # of iterations =  1.0

     total cpu time spent up to now is     4868.8 secs

     total energy              =    -702.45617696 Ry
     Harris-Foulkes estimate   =    -702.45617716 Ry
     estimated scf accuracy    <       0.00000833 Ry

     iteration # 15     ecut=    50.00 Ry     beta= 0.60
     Davidson diagonalization with overlap
     ethr =  1.13E-08,  avg # of iterations =  1.0

     total cpu time spent up to now is     4888.9 secs

     total energy              =    -702.45617683 Ry
     Harris-Foulkes estimate   =    -702.45617704 Ry
     estimated scf accuracy    <       0.00000649 Ry

     iteration # 16     ecut=    50.00 Ry     beta= 0.60
     Davidson diagonalization with overlap
     ethr =  8.77E-09,  avg # of iterations =  1.0

     total cpu time spent up to now is     4909.0 secs

     total energy              =    -702.45617684 Ry
     Harris-Foulkes estimate   =    -702.45617690 Ry
     estimated scf accuracy    <       0.00000429 Ry

     iteration # 17     ecut=    50.00 Ry     beta= 0.60
     Davidson diagonalization with overlap
     ethr =  5.80E-09,  avg # of iterations =  1.3

     total cpu time spent up to now is     4929.5 secs

     total energy              =    -702.45617695 Ry
     Harris-Foulkes estimate   =    -702.45617692 Ry
     estimated scf accuracy    <       0.00000318 Ry

     iteration # 18     ecut=    50.00 Ry     beta= 0.60
     Davidson diagonalization with overlap
     ethr =  4.30E-09,  avg # of iterations =  1.0

     total cpu time spent up to now is     4949.6 secs

     total energy              =    -702.45617643 Ry
     Harris-Foulkes estimate   =    -702.45617700 Ry
     estimated scf accuracy    <       0.00000315 Ry

     iteration # 19     ecut=    50.00 Ry     beta= 0.60
     Davidson diagonalization with overlap
     ethr =  4.25E-09,  avg # of iterations =  3.0

     total cpu time spent up to now is     4975.1 secs

     total energy              =    -702.45617687 Ry
     Harris-Foulkes estimate   =    -702.45617689 Ry
     estimated scf accuracy    <       0.00000032 Ry

     iteration # 20     ecut=    50.00 Ry     beta= 0.60
     Davidson diagonalization with overlap
     ethr =  4.30E-10,  avg # of iterations =  2.6

     total cpu time spent up to now is     4997.8 secs

     total energy              =    -702.45617686 Ry
     Harris-Foulkes estimate   =    -702.45617689 Ry
     estimated scf accuracy    <       0.00000013 Ry

     iteration # 21     ecut=    50.00 Ry     beta= 0.60
     Davidson diagonalization with overlap
     ethr =  1.73E-10,  avg # of iterations =  3.2

     total cpu time spent up to now is     5023.3 secs

     total energy              =    -702.45617688 Ry
     Harris-Foulkes estimate   =    -702.45617688 Ry
     estimated scf accuracy    <       0.00000002 Ry

     iteration # 22     ecut=    50.00 Ry     beta= 0.60
     Davidson diagonalization with overlap
     ethr =  3.01E-11,  avg # of iterations =  3.7

     total cpu time spent up to now is     5049.7 secs

     total energy              =    -702.45617688 Ry
     Harris-Foulkes estimate   =    -702.45617688 Ry
     estimated scf accuracy    <          8.9E-09 Ry

[...]

     total energy              =    -703.51681409 Ry
     Harris-Foulkes estimate   =    -703.52084608 Ry
     estimated scf accuracy    <       9.43039279 Ry

     iteration #  8     ecut=    50.00 Ry     beta= 0.60
     Davidson diagonalization with overlap
     ethr =  1.00E-02,  avg # of iterations =  1.0

     total cpu time spent up to now is    17346.7 secs

     total energy              =    -703.57753522 Ry
     Harris-Foulkes estimate   =    -703.53692917 Ry
     estimated scf accuracy    <       9.12692383 Ry

     iteration #  9     ecut=    50.00 Ry     beta= 0.60
     Davidson diagonalization with overlap
     ethr =  1.00E-02,  avg # of iterations =  1.0

     total cpu time spent up to now is    17371.8 secs

     total energy              =    -704.09668728 Ry
     Harris-Foulkes estimate   =    -703.59705314 Ry
     estimated scf accuracy    <       9.36374790 Ry

     iteration # 10     ecut=    50.00 Ry     beta= 0.60
     Davidson diagonalization with overlap
     ethr =  1.00E-02,  avg # of iterations =  1.0

     negative rho (up, down):  3.529E+01 0.000E+00

     total cpu time spent up to now is    17393.8 secs

     total energy              =    -955.56991814 Ry
     Harris-Foulkes estimate   =    -704.17494984 Ry
     estimated scf accuracy    <      11.06769104 Ry

     iteration # 11     ecut=    50.00 Ry     beta= 0.60
     Davidson diagonalization with overlap
     ethr =  1.00E-02,  avg # of iterations =  9.3

     negative rho (up, down):  3.708E+01 0.000E+00

     total cpu time spent up to now is    17447.5 secs

     total energy              =   -1104.87211861 Ry
     Harris-Foulkes estimate   =   -1078.75078712 Ry
     estimated scf accuracy    <     515.37460067 Ry

     iteration # 12     ecut=    50.00 Ry     beta= 0.60
     Davidson diagonalization with overlap
     ethr =  1.00E-02,  avg # of iterations =  1.3

     negative rho (up, down):  4.040E+01 0.000E+00

     total cpu time spent up to now is    17466.9 secs

     total energy              =   -1157.49542418 Ry
     Harris-Foulkes estimate   =   -1104.95098412 Ry
     estimated scf accuracy    <     545.06837476 Ry

     iteration # 13     ecut=    50.00 Ry     beta= 0.60
     Davidson diagonalization with overlap
     ethr =  1.00E-02,  avg # of iterations =  1.1

     negative rho (up, down):  5.404E-02 0.000E+00

     total cpu time spent up to now is    17487.9 secs

     total energy              =    -611.43078101 Ry
     Harris-Foulkes estimate   =   -1157.66214319 Ry
     estimated scf accuracy    <     604.15079074 Ry

     iteration # 14     ecut=    50.00 Ry     beta= 0.60
     Davidson diagonalization with overlap
     ethr =  1.00E-02,  avg # of iterations =  7.1

     total cpu time spent up to now is    17552.9 secs

     total energy              =    -706.31808301 Ry
     Harris-Foulkes estimate   =    -730.04209619 Ry
     estimated scf accuracy    <     146.90950714 Ry

     iteration # 15     ecut=    50.00 Ry     beta= 0.60
     Davidson diagonalization with overlap
     ethr =  1.00E-02,  avg # of iterations =  3.3

     total cpu time spent up to now is    17582.8 secs

     total energy              =    -699.52262957 Ry
     Harris-Foulkes estimate   =    -708.33069077 Ry
     estimated scf accuracy    <      74.52942181 Ry

     iteration # 16     ecut=    50.00 Ry     beta= 0.60
     Davidson diagonalization with overlap
     ethr =  1.00E-02,  avg # of iterations =  5.1

     total cpu time spent up to now is    17611.2 secs

     total energy              =    -701.49718489 Ry
     Harris-Foulkes estimate   =    -702.71605813 Ry
     estimated scf accuracy    <       2.89236840 Ry

     iteration # 17     ecut=    50.00 Ry     beta= 0.60
     Davidson diagonalization with overlap
     ethr =  3.91E-03,  avg # of iterations =  5.8

     total cpu time spent up to now is    17656.2 secs

     total energy              =    -704.24742160 Ry
     Harris-Foulkes estimate   =    -703.89632748 Ry
     estimated scf accuracy    <      11.31989097 Ry

     iteration # 18     ecut=    50.00 Ry     beta= 0.60
     Davidson diagonalization with overlap
     ethr =  3.91E-03,  avg # of iterations =  2.9

     total cpu time spent up to now is    17681.7 secs

     total energy              =    -703.82831722 Ry
     Harris-Foulkes estimate   =    -704.63839076 Ry
     estimated scf accuracy    <      12.72259073 Ry

     iteration # 19     ecut=    50.00 Ry     beta= 0.60
     Davidson diagonalization with overlap
     ethr =  3.91E-03,  avg # of iterations =  1.0

     total cpu time spent up to now is    17698.3 secs

     total energy              =    -703.69003490 Ry
     Harris-Foulkes estimate   =    -703.96371231 Ry
     estimated scf accuracy    <       9.29909541 Ry

     iteration # 20     ecut=    50.00 Ry     beta= 0.60
     Davidson diagonalization with overlap
     ethr =  3.91E-03,  avg # of iterations =  1.0

     total cpu time spent up to now is    17714.8 secs

     total energy              =    -703.63980926 Ry
     Harris-Foulkes estimate   =    -703.71333161 Ry
     estimated scf accuracy    <       8.23202746 Ry

     iteration # 21     ecut=    50.00 Ry     beta= 0.60
     Davidson diagonalization with overlap
     ethr =  3.91E-03,  avg # of iterations =  1.0

     total cpu time spent up to now is    17731.5 secs

     total energy              =    -702.91365749 Ry
     Harris-Foulkes estimate   =    -703.64942124 Ry
     estimated scf accuracy    <       7.78943731 Ry

     iteration # 22     ecut=    50.00 Ry     beta= 0.60
     Davidson diagonalization with overlap
     ethr =  3.91E-03,  avg # of iterations =  2.2

     total cpu time spent up to now is    17763.6 secs

     total energy              =    -702.73134195 Ry
     Harris-Foulkes estimate   =    -703.00713359 Ry
     estimated scf accuracy    <       5.20801976 Ry

     iteration # 23     ecut=    50.00 Ry     beta= 0.60
     Davidson diagonalization with overlap
     ethr =  3.91E-03,  avg # of iterations =  1.0

     total cpu time spent up to now is    17780.0 secs

     total energy              =    -702.36158286 Ry
     Harris-Foulkes estimate   =    -702.77838645 Ry
     estimated scf accuracy    <       3.86640960 Ry

     iteration # 24     ecut=    50.00 Ry     beta= 0.60
     Davidson diagonalization with overlap
     ethr =  3.91E-03,  avg # of iterations =  4.1

     total cpu time spent up to now is    17801.0 secs

     total energy              =    -702.57002749 Ry
     Harris-Foulkes estimate   =    -702.56804080 Ry
     estimated scf accuracy    <       1.01974991 Ry

     iteration # 25     ecut=    50.00 Ry     beta= 0.60
     Davidson diagonalization with overlap
     ethr =  1.38E-03,  avg # of iterations =  4.3

     total cpu time spent up to now is    17824.4 secs

     total energy              =    -702.23935954 Ry
     Harris-Foulkes estimate   =    -702.91211524 Ry
     estimated scf accuracy    <       4.11769759 Ry

     iteration # 26     ecut=    50.00 Ry     beta= 0.60
     Davidson diagonalization with overlap
     ethr =  1.38E-03,  avg # of iterations =  4.6

     total cpu time spent up to now is    17849.7 secs

     total energy              =    -702.41405362 Ry
     Harris-Foulkes estimate   =    -702.46427980 Ry
     estimated scf accuracy    <       0.15165376 Ry

     iteration # 27     ecut=    50.00 Ry     beta= 0.60
     Davidson diagonalization with overlap
     ethr =  2.05E-04,  avg # of iterations =  5.7

     total cpu time spent up to now is    17884.3 secs

     total energy              =    -702.39723916 Ry
     Harris-Foulkes estimate   =    -702.53216465 Ry
     estimated scf accuracy    <       1.43727129 Ry

     iteration # 28     ecut=    50.00 Ry     beta= 0.60
     Davidson diagonalization with overlap
     ethr =  2.05E-04,  avg # of iterations =  5.4

     total cpu time spent up to now is    17913.7 secs

     total energy              =    -702.44424345 Ry
     Harris-Foulkes estimate   =    -702.47084386 Ry
     estimated scf accuracy    <       0.20852509 Ry

     iteration # 29     ecut=    50.00 Ry     beta= 0.60
     Davidson diagonalization with overlap
     ethr =  2.05E-04,  avg # of iterations =  1.5

     total cpu time spent up to now is    17932.9 secs

     total energy              =    -702.45215200 Ry
     Harris-Foulkes estimate   =    -702.45460043 Ry
     estimated scf accuracy    <       0.01410397 Ry

     iteration # 30     ecut=    50.00 Ry     beta= 0.60
     Davidson diagonalization with overlap
     ethr =  1.91E-05,  avg # of iterations =  6.0

     total cpu time spent up to now is    17968.7 secs

     total energy              =    -702.45671989 Ry
     Harris-Foulkes estimate   =    -702.46266383 Ry
     estimated scf accuracy    <       0.06069249 Ry

     iteration # 31     ecut=    50.00 Ry     beta= 0.60
     Davidson diagonalization with overlap
     ethr =  1.91E-05,  avg # of iterations =  2.6

     total cpu time spent up to now is    17987.5 secs

     total energy              =    -702.45743985 Ry
     Harris-Foulkes estimate   =    -702.45825406 Ry
     estimated scf accuracy    <       0.01274874 Ry

     iteration # 32     ecut=    50.00 Ry     beta= 0.60
     Davidson diagonalization with overlap
     ethr =  1.72E-05,  avg # of iterations =  3.5

     total cpu time spent up to now is    18008.3 secs

     total energy              =    -702.45800625 Ry
     Harris-Foulkes estimate   =    -702.45841187 Ry
     estimated scf accuracy    <       0.00281304 Ry

     iteration # 33     ecut=    50.00 Ry     beta= 0.60
     Davidson diagonalization with overlap
     ethr =  3.80E-06,  avg # of iterations =  6.0

     total cpu time spent up to now is    18034.6 secs

     total energy              =    -702.45831822 Ry
     Harris-Foulkes estimate   =    -702.45838148 Ry
     estimated scf accuracy    <       0.00041490 Ry

     iteration # 34     ecut=    50.00 Ry     beta= 0.60
     Davidson diagonalization with overlap
     ethr =  5.61E-07,  avg # of iterations =  4.4

     total cpu time spent up to now is    18060.4 secs

     total energy              =    -702.45832311 Ry
     Harris-Foulkes estimate   =    -702.45839695 Ry
     estimated scf accuracy    <       0.00062010 Ry

     iteration # 35     ecut=    50.00 Ry     beta= 0.60
     Davidson diagonalization with overlap
     ethr =  5.61E-07,  avg # of iterations =  1.5

     total cpu time spent up to now is    18078.2 secs

     total energy              =    -702.45834976 Ry
     Harris-Foulkes estimate   =    -702.45835162 Ry
     estimated scf accuracy    <       0.00003460 Ry

     iteration # 36     ecut=    50.00 Ry     beta= 0.60
     Davidson diagonalization with overlap
     ethr =  4.68E-08,  avg # of iterations =  4.7

     total cpu time spent up to now is    18104.7 secs

     total energy              =    -702.45836054 Ry
     Harris-Foulkes estimate   =    -702.45836084 Ry
     estimated scf accuracy    <       0.00000451 Ry

     iteration # 37     ecut=    50.00 Ry     beta= 0.60
     Davidson diagonalization with overlap
     ethr =  6.09E-09,  avg # of iterations =  3.0

     total cpu time spent up to now is    18125.5 secs

     total energy              =    -702.45836044 Ry
     Harris-Foulkes estimate   =    -702.45836088 Ry
     estimated scf accuracy    <       0.00000429 Ry

     iteration # 38     ecut=    50.00 Ry     beta= 0.60
     Davidson diagonalization with overlap
     ethr =  5.80E-09,  avg # of iterations =  1.0

     total cpu time spent up to now is    18155.7 secs

     total energy              =    -702.45836049 Ry
     Harris-Foulkes estimate   =    -702.45836059 Ry
     estimated scf accuracy    <       0.00000089 Ry

     iteration # 39     ecut=    50.00 Ry     beta= 0.60
     Davidson diagonalization with overlap
     ethr =  1.20E-09,  avg # of iterations =  3.7

     total cpu time spent up to now is    18187.1 secs

     total energy              =    -702.45836058 Ry
     Harris-Foulkes estimate   =    -702.45836059 Ry
     estimated scf accuracy    <       0.00000004 Ry

     iteration # 40     ecut=    50.00 Ry     beta= 0.60
     Davidson diagonalization with overlap
     ethr =  5.55E-11,  avg # of iterations =  4.2

     total cpu time spent up to now is    18227.4 secs

     total energy              =    -702.45836059 Ry
     Harris-Foulkes estimate   =    -702.45836059 Ry
     estimated scf accuracy    <       0.00000003 Ry

     iteration # 41     ecut=    50.00 Ry     beta= 0.60
     Davidson diagonalization with overlap
     ethr =  3.49E-11,  avg # of iterations =  2.8

     total cpu time spent up to now is    18247.4 secs

     total energy              =    -702.45836059 Ry
     Harris-Foulkes estimate   =    -702.45836059 Ry
     estimated scf accuracy    <          4.4E-09 Ry

     iteration # 42     ecut=    50.00 Ry     beta= 0.60
     Davidson diagonalization with overlap
     ethr =  5.95E-12,  avg # of iterations =  4.3

     total cpu time spent up to now is    18273.1 secs

     total energy              =    -702.45836059 Ry
     Harris-Foulkes estimate   =    -702.45836059 Ry
     estimated scf accuracy    <       0.00000001 Ry

     iteration # 43     ecut=    50.00 Ry     beta= 0.60
     Davidson diagonalization with overlap
     ethr =  5.95E-12,  avg # of iterations =  1.5

     total cpu time spent up to now is    18290.0 secs

     total energy              =    -702.45836059 Ry
     Harris-Foulkes estimate   =    -702.45836059 Ry
     estimated scf accuracy    <          4.1E-09 Ry

     iteration # 44     ecut=    50.00 Ry     beta= 0.60
     Davidson diagonalization with overlap
     ethr =  5.49E-12,  avg # of iterations =  3.7

     total cpu time spent up to now is    18312.5 secs

     total energy              =    -702.45836059 Ry
     Harris-Foulkes estimate   =    -702.45836059 Ry
     estimated scf accuracy    <          1.8E-09 Ry

     iteration # 45     ecut=    50.00 Ry     beta= 0.60
     Davidson diagonalization with overlap
     ethr =  2.39E-12,  avg # of iterations =  1.0

     total cpu time spent up to now is    18328.8 secs

     total energy              =    -702.45836059 Ry
     Harris-Foulkes estimate   =    -702.45836059 Ry
     estimated scf accuracy    <          7.6E-10 Ry

     iteration # 46     ecut=    50.00 Ry     beta= 0.60
     Davidson diagonalization with overlap
     ethr =  1.03E-12,  avg # of iterations =  3.5

     total cpu time spent up to now is    18349.8 secs

     total energy              =    -702.45836059 Ry
     Harris-Foulkes estimate   =    -702.45836059 Ry
     estimated scf accuracy    <          2.1E-11 Ry

     iteration # 47     ecut=    50.00 Ry     beta= 0.60
     Davidson diagonalization with overlap
     ethr =  1.00E-13,  avg # of iterations =  2.6

     total cpu time spent up to now is    18369.5 secs

     total energy              =    -702.45836059 Ry
     Harris-Foulkes estimate   =    -702.45836059 Ry
     estimated scf accuracy    <          4.4E-12 Ry

     iteration # 48     ecut=    50.00 Ry     beta= 0.60
     Davidson diagonalization with overlap
     ethr =  1.00E-13,  avg # of iterations =  1.0

     total cpu time spent up to now is    18388.1 secs

     total energy              =    -702.45836059 Ry
     Harris-Foulkes estimate   =    -702.45836059 Ry
     estimated scf accuracy    <          1.3E-12 Ry

     iteration # 49     ecut=    50.00 Ry     beta= 0.60
     Davidson diagonalization with overlap
     ethr =  1.00E-13,  avg # of iterations =  1.0

     total cpu time spent up to now is    18404.5 secs

     End of self-consistent calculation

     Number of k-points >= 100: set verbosity='high' to print the bands.

     the Fermi energy is    14.9315 ev

!    total energy              =    -702.45836059 Ry
     Harris-Foulkes estimate   =    -702.45836059 Ry
     estimated scf accuracy    <          7.3E-13 Ry

     The total energy is the sum of the following terms:

     one-electron contribution =    -196.30959925 Ry
     hartree contribution      =     127.24635179 Ry
     xc contribution           =     -95.06118490 Ry
     ewald contribution        =    -538.33475947 Ry
     smearing contrib. (-TS)   =       0.00083124 Ry

     convergence has been achieved in  49 iterations

     Forces acting on atoms (cartesian axes, Ry/au):

     atom    1 type  2   force =     0.00002019    0.00002019   -0.00002019
     atom    2 type  2   force =     0.00001112    0.00001112   -0.00001112
     atom    3 type  2   force =    -0.00002896   -0.00002896    0.00002896
     atom    4 type  2   force =    -0.00000602   -0.00000602    0.00000602
     atom    5 type  1   force =    -0.00000744   -0.00000744    0.00000744
     atom    6 type  1   force =     0.00001111    0.00001111   -0.00001111

     Total force =     0.000069     Total SCF correction =     0.000001


     Computing stress (Cartesian axis) and pressure

          total   stress  (Ry/bohr**3)                   (kbar)     P=   -0.42
  -0.00000283  -0.00000047   0.00000047         -0.42     -0.07      0.07
  -0.00000047  -0.00000283   0.00000047         -0.07     -0.42      0.07
   0.00000047   0.00000047  -0.00000283          0.07      0.07     -0.42

 
     init_run     :     21.73s CPU     22.20s WALL (       2 calls)
     electrons    :  16977.29s CPU  17940.29s WALL (      26 calls)
     update_pot   :     52.05s CPU     52.67s WALL (      24 calls)
     forces       :     95.87s CPU    100.19s WALL (      26 calls)
     stress       :    257.88s CPU    270.28s WALL (      26 calls)

     Called by init_run:
     wfcinit      :     18.92s CPU     19.22s WALL (       2 calls)
     potinit      :      0.79s CPU      0.81s WALL (       2 calls)
     hinit0       :      1.46s CPU      1.47s WALL (       2 calls)

     Called by electrons:
     c_bands      :  14421.75s CPU  15074.82s WALL (     625 calls)
     sum_band     :   2349.52s CPU   2463.33s WALL (     625 calls)
     v_of_rho     :     43.47s CPU     43.93s WALL (     642 calls)
     newd         :    161.31s CPU    252.36s WALL (     642 calls)
     mix_rho      :      6.11s CPU      6.15s WALL (     625 calls)

     Called by c_bands:
     init_us_2    :    250.97s CPU    254.24s WALL (  211248 calls)
     cegterg      :  13081.46s CPU  13253.66s WALL (  101250 calls)

     Called by sum_band:
     sum_band:bec :      5.74s CPU      5.76s WALL (  101250 calls)
     addusdens    :    214.81s CPU    297.87s WALL (     625 calls)

     Called by *egterg:
     h_psi        :   8823.61s CPU   8966.02s WALL (  415034 calls)
     s_psi        :    594.06s CPU    597.11s WALL (  415034 calls)
     g_psi        :     76.47s CPU     73.99s WALL (  313460 calls)
     cdiaghg      :   1592.55s CPU   1601.63s WALL (  409364 calls)

     Called by h_psi:
     h_psi:pot    :   8765.12s CPU   8907.49s WALL (  415034 calls)
     h_psi:calbec :    558.83s CPU    562.99s WALL (  415034 calls)
     vloc_psi     :   7595.61s CPU   7728.18s WALL (  415034 calls)
     add_vuspsi   :    608.35s CPU    613.50s WALL (  415034 calls)

     General routines
     calbec       :    790.45s CPU    796.49s WALL (  537344 calls)
     fft          :     28.21s CPU     28.65s WALL (    9003 calls)
     ffts         :      0.93s CPU      0.94s WALL (    1267 calls)
     fftw         :   8225.38s CPU   8368.39s WALL (26834088 calls)
     interpolate  :      2.45s CPU      2.48s WALL (     642 calls)
 
     Parallel routines
     fft_scatt_xy :   1529.01s CPU   1549.85s WALL (26844358 calls)
     fft_scatt_yz :   1476.59s CPU   1501.60s WALL (26844358 calls)
 
     PWSCF        :     4h50m CPU       50h 5m WALL

       6h
 
   This run was terminated on:  14:29:56   5Feb2020            

=------------------------------------------------------------------------------=
   JOB DONE.
=------------------------------------------------------------------------------=
