
     Program PWSCF v.6.3MaX starts on 26Jan2020 at 13:10:27 

     This program is part of the open-source Quantum ESPRESSO suite
     for quantum simulation of materials; please cite
         "P. Giannozzi et al., J. Phys.:Condens. Matter 21 395502 (2009);
         "P. Giannozzi et al., J. Phys.:Condens. Matter 29 465901 (2017);
          URL http://www.quantum-espresso.org", 
     in publications or presentations arising from this work. More details at
     http://www.quantum-espresso.org/quote

     Parallel version (MPI), running on     4 processors

     MPI processes distributed on     1 nodes
     R & G space division:  proc/nbgrp/npool/nimage =       4
     Waiting for input...
     Reading input from standard input

     Current dimensions of program PWSCF are:
     Max number of different atomic species (ntypx) = 10
     Max number of k-points (npk) =  40000
     Max angular momentum in pseudopotentials (lmaxx) =  3
     Message from routine iosys:
     minimal I/O required, wf_collect reset to FALSE

     Subspace diagonalization in iterative solution of the eigenvalue problem:
     a serial algorithm will be used

 
     Parallelization info
     --------------------
     sticks:   dense  smooth     PW     G-vecs:    dense   smooth      PW
     Min        1204     482    153                41531    10522    1901
     Max        1205     483    154                41532    10523    1902
     Sum        4817    1929    615               166125    42089    7605
 


     bravais-lattice index     =            0
     lattice parameter (alat)  =       1.8897  a.u.
     unit-cell volume          =     880.0102 (a.u.)^3
     number of atoms/cell      =            6
     number of atomic types    =            2
     number of electrons       =        75.00
     number of Kohn-Sham states=           46
     kinetic-energy cutoff     =      50.0000  Ry
     charge density cutoff     =     500.0000  Ry
     convergence threshold     =      1.0E-10
     mixing beta               =       0.6000
     number of iterations used =            8  plain     mixing
     Exchange-correlation      = SLA PW PBE PBE ( 1  4  3  4 0 0)
     nstep                     =           50


     celldm(1)=   1.889726  celldm(2)=   0.000000  celldm(3)=   0.000000
     celldm(4)=   0.000000  celldm(5)=   0.000000  celldm(6)=   0.000000

     crystal axes: (cart. coord. in units of alat)
               a(1) = (   5.274095   1.758031   1.758031 )  
               a(2) = (   1.758031  -5.274095   1.758031 )  
               a(3) = (  -1.758031   1.758031  -5.274095 )  

     reciprocal axes: (cart. coord. in units 2 pi/alat)
               b(1) = (  0.189606  0.047402 -0.047402 )  
               b(2) = (  0.094803 -0.189606 -0.094803 )  
               b(3) = (  0.094803 -0.047402 -0.237008 )  


     PseudoPot. # 1 for Nb read from file:
     ./Nb.pbe-nsp-van.UPF
     MD5 check sum: 0a22fc7fb0ba19a08ca5db297a5d2854
     Pseudo is Ultrasoft + core correction, Zval = 13.0
     Generated by new atomic code, or converted to UPF format
     Using radial grid of  887 points,  6 beta functions with: 
                l(1) =   0
                l(2) =   0
                l(3) =   1
                l(4) =   1
                l(5) =   2
                l(6) =   2
     Q(r) pseudized with  6 coefficients,  rinner =    1.000   1.000   1.000
                                                       1.000   1.000

     PseudoPot. # 2 for Ti read from file:
     ./Ti.pbe-sp-van_ak.UPF
     MD5 check sum: f98fea3e8887528921fefa5636a534ca
     Pseudo is Ultrasoft, Zval = 12.0
     Generated by new atomic code, or converted to UPF format
     Using radial grid of  851 points,  6 beta functions with: 
                l(1) =   0
                l(2) =   0
                l(3) =   1
                l(4) =   1
                l(5) =   2
                l(6) =   2
     Q(r) pseudized with  8 coefficients,  rinner =    1.000   1.000   1.000
                                                       1.000   1.000

     atomic species   valence    mass     pseudopotential
        Nb            13.00    92.90638     Nb( 1.00)
        Ti            12.00    47.86700     Ti( 1.00)

      2 Sym. Ops. (no inversion) found



   Cartesian axes

     site n.     atom                  positions (alat units)
         1           Ti  tau(   1) = (   3.5160633  -3.5160633   0.0000000  )
         2           Nb  tau(   2) = (   3.5160633   0.0000000   0.0000000  )
         3           Ti  tau(   3) = (   1.7580316  -1.7580316  -1.7580316  )
         4           Ti  tau(   4) = (   5.2740949  -1.7580316   1.7580316  )
         5           Nb  tau(   5) = (   5.2740949  -1.7580316  -1.7580316  )
         6           Nb  tau(   6) = (   0.0000000   0.0000000  -3.5160633  )

     number of k points=   476  Marzari-Vanderbilt smearing, width (Ry)=  0.0200

     Number of k-points >= 100: set verbosity='high' to print them.

     Dense  grid:   166125 G-vectors     FFT dimensions: (  80,  80,  80)

     Smooth grid:    42089 G-vectors     FFT dimensions: (  50,  50,  50)

     Estimated max dynamical RAM per process >     599.38 MB

     Estimated total dynamical RAM >       2.34 GB

     Initial potential from superposition of free atoms

     starting charge   71.99167, renormalised to   75.00000
     Starting wfcs are   69 randomized atomic wfcs

     total cpu time spent up to now is       42.9 secs

     Self-consistent Calculation

     iteration #  1     ecut=    50.00 Ry     beta= 0.60
     Davidson diagonalization with overlap
     ethr =  1.00E-02,  avg # of iterations =  3.0

     total cpu time spent up to now is      138.4 secs

     total energy              =    -690.87894448 Ry
     Harris-Foulkes estimate   =    -706.21483098 Ry
     estimated scf accuracy    <      19.45356968 Ry

     iteration #  2     ecut=    50.00 Ry     beta= 0.60
     Davidson diagonalization with overlap
     ethr =  1.00E-02,  avg # of iterations =  5.5

     total cpu time spent up to now is      289.3 secs

     total energy              =    -700.57416448 Ry
     Harris-Foulkes estimate   =    -724.70400260 Ry
     estimated scf accuracy    <      69.01476650 Ry

     iteration #  3     ecut=    50.00 Ry     beta= 0.60
     Davidson diagonalization with overlap
     ethr =  1.00E-02,  avg # of iterations =  3.4

     total cpu time spent up to now is      395.4 secs

     total energy              =    -704.46797435 Ry
     Harris-Foulkes estimate   =    -706.64354726 Ry
     estimated scf accuracy    <      18.47871997 Ry

     iteration #  4     ecut=    50.00 Ry     beta= 0.60
     Davidson diagonalization with overlap
     ethr =  1.00E-02,  avg # of iterations =  1.7

     total cpu time spent up to now is      469.3 secs

     total energy              =    -704.77869490 Ry
     Harris-Foulkes estimate   =    -704.96438242 Ry
     estimated scf accuracy    <       9.13639781 Ry

     iteration #  5     ecut=    50.00 Ry     beta= 0.60
     Davidson diagonalization with overlap
     ethr =  1.00E-02,  avg # of iterations =  1.0

     total cpu time spent up to now is      553.6 secs

     total energy              =    -704.35295169 Ry
     Harris-Foulkes estimate   =    -704.82632249 Ry
     estimated scf accuracy    <       8.56174667 Ry

     iteration #  6     ecut=    50.00 Ry     beta= 0.60
     Davidson diagonalization with overlap
     ethr =  1.00E-02,  avg # of iterations =  1.0

     total cpu time spent up to now is      640.1 secs

     total energy              =    -703.69442716 Ry
     Harris-Foulkes estimate   =    -704.40481695 Ry
     estimated scf accuracy    <       6.87191866 Ry

     iteration #  7     ecut=    50.00 Ry     beta= 0.60
     Davidson diagonalization with overlap
     ethr =  9.16E-03,  avg # of iterations =  1.1

     total cpu time spent up to now is      726.7 secs

     total energy              =    -702.87027230 Ry
     Harris-Foulkes estimate   =    -703.81457444 Ry
     estimated scf accuracy    <       4.16104889 Ry

     iteration #  8     ecut=    50.00 Ry     beta= 0.60
     Davidson diagonalization with overlap
     ethr =  5.55E-03,  avg # of iterations =  4.9

     total cpu time spent up to now is      868.7 secs

     total energy              =    -703.83592299 Ry
     Harris-Foulkes estimate   =    -703.87327648 Ry
     estimated scf accuracy    <       5.77291331 Ry

     iteration #  9     ecut=    50.00 Ry     beta= 0.60
     Davidson diagonalization with overlap
     ethr =  5.55E-03,  avg # of iterations =  1.0

     total cpu time spent up to now is      955.7 secs

     total energy              =    -703.67804484 Ry
     Harris-Foulkes estimate   =    -703.85407275 Ry
     estimated scf accuracy    <       4.97169831 Ry

     iteration # 10     ecut=    50.00 Ry     beta= 0.60
     Davidson diagonalization with overlap
     ethr =  5.55E-03,  avg # of iterations =  1.0

     total cpu time spent up to now is     1041.7 secs

     total energy              =    -703.62798849 Ry
     Harris-Foulkes estimate   =    -703.76380150 Ry
     estimated scf accuracy    <       3.90820108 Ry

     iteration # 11     ecut=    50.00 Ry     beta= 0.60
     Davidson diagonalization with overlap
     ethr =  5.21E-03,  avg # of iterations =  1.0

     total cpu time spent up to now is     1129.4 secs

     total energy              =    -703.61687126 Ry
     Harris-Foulkes estimate   =    -703.66907902 Ry
     estimated scf accuracy    <       1.61767783 Ry

     iteration # 12     ecut=    50.00 Ry     beta= 0.60
     Davidson diagonalization with overlap
     ethr =  2.16E-03,  avg # of iterations =  1.0

     total cpu time spent up to now is     1216.5 secs

     total energy              =    -703.43305625 Ry
     Harris-Foulkes estimate   =    -703.63064722 Ry
     estimated scf accuracy    <       0.90346113 Ry

     iteration # 13     ecut=    50.00 Ry     beta= 0.60
     Davidson diagonalization with overlap
     ethr =  1.20E-03,  avg # of iterations =  5.2

     total cpu time spent up to now is     1345.3 secs

     total energy              =    -703.71784343 Ry
     Harris-Foulkes estimate   =    -703.67316412 Ry
     estimated scf accuracy    <       0.83958961 Ry

     iteration # 14     ecut=    50.00 Ry     beta= 0.60
     Davidson diagonalization with overlap
     ethr =  1.12E-03,  avg # of iterations =  1.2

     total cpu time spent up to now is     1434.1 secs

     total energy              =    -703.61211375 Ry
     Harris-Foulkes estimate   =    -703.72706326 Ry
     estimated scf accuracy    <       1.18558123 Ry

     iteration # 15     ecut=    50.00 Ry     beta= 0.60
     Davidson diagonalization with overlap
     ethr =  1.12E-03,  avg # of iterations =  1.0

     total cpu time spent up to now is     1520.4 secs

     total energy              =    -703.58401421 Ry
     Harris-Foulkes estimate   =    -703.63413529 Ry
     estimated scf accuracy    <       0.52308094 Ry

     iteration # 16     ecut=    50.00 Ry     beta= 0.60
     Davidson diagonalization with overlap
     ethr =  6.97E-04,  avg # of iterations =  1.7

     total cpu time spent up to now is     1611.7 secs

     total energy              =    -703.59428738 Ry
     Harris-Foulkes estimate   =    -703.60211954 Ry
     estimated scf accuracy    <       0.12246082 Ry

     iteration # 17     ecut=    50.00 Ry     beta= 0.60
     Davidson diagonalization with overlap
     ethr =  1.63E-04,  avg # of iterations =  5.1

     total cpu time spent up to now is     1729.1 secs

     total energy              =    -703.60308200 Ry
     Harris-Foulkes estimate   =    -703.60535760 Ry
     estimated scf accuracy    <       0.02430549 Ry

     iteration # 18     ecut=    50.00 Ry     beta= 0.60
     Davidson diagonalization with overlap
     c_bands:  1 eigenvalues not converged
     c_bands:  1 eigenvalues not converged
     ethr =  3.24E-05,  avg # of iterations =  8.2

     total cpu time spent up to now is     1850.5 secs

     total energy              =    -703.60463105 Ry
     Harris-Foulkes estimate   =    -703.60505244 Ry
     estimated scf accuracy    <       0.00391556 Ry

     iteration # 19     ecut=    50.00 Ry     beta= 0.60
     Davidson diagonalization with overlap
     c_bands:  1 eigenvalues not converged
     c_bands:  1 eigenvalues not converged
     c_bands:  1 eigenvalues not converged
     c_bands:  1 eigenvalues not converged
     c_bands:  1 eigenvalues not converged
     c_bands:  1 eigenvalues not converged
     c_bands:  1 eigenvalues not converged
     ethr =  5.22E-06,  avg # of iterations =  7.8

     total cpu time spent up to now is     1964.9 secs

     total energy              =    -703.60505270 Ry
     Harris-Foulkes estimate   =    -703.60508013 Ry
     estimated scf accuracy    <       0.00009487 Ry

     iteration # 20     ecut=    50.00 Ry     beta= 0.60
     Davidson diagonalization with overlap
     ethr =  1.26E-07,  avg # of iterations =  4.9

     total cpu time spent up to now is     2070.5 secs

     total energy              =    -703.60508515 Ry
     Harris-Foulkes estimate   =    -703.60509360 Ry
     estimated scf accuracy    <       0.00007194 Ry

     iteration # 21     ecut=    50.00 Ry     beta= 0.60
     Davidson diagonalization with overlap
     ethr =  9.59E-08,  avg # of iterations =  2.0

     total cpu time spent up to now is     2146.4 secs

     total energy              =    -703.60508189 Ry
     Harris-Foulkes estimate   =    -703.60509185 Ry
     estimated scf accuracy    <       0.00007123 Ry

     iteration # 22     ecut=    50.00 Ry     beta= 0.60
     Davidson diagonalization with overlap
     ethr =  9.50E-08,  avg # of iterations =  1.1

     total cpu time spent up to now is     2216.6 secs

     total energy              =    -703.60508658 Ry
     Harris-Foulkes estimate   =    -703.60508680 Ry
     estimated scf accuracy    <       0.00000110 Ry

     iteration # 23     ecut=    50.00 Ry     beta= 0.60
     Davidson diagonalization with overlap
     ethr =  1.46E-09,  avg # of iterations =  5.4

     total cpu time spent up to now is     2338.4 secs

     total energy              =    -703.60508738 Ry
     Harris-Foulkes estimate   =    -703.60508785 Ry
     estimated scf accuracy    <       0.00000318 Ry

     iteration # 24     ecut=    50.00 Ry     beta= 0.60
     Davidson diagonalization with overlap
     ethr =  1.46E-09,  avg # of iterations =  3.9

     total cpu time spent up to now is     2432.1 secs

     total energy              =    -703.60508758 Ry
     Harris-Foulkes estimate   =    -703.60508770 Ry
     estimated scf accuracy    <       0.00000067 Ry

     iteration # 25     ecut=    50.00 Ry     beta= 0.60
     Davidson diagonalization with overlap
     ethr =  8.87E-10,  avg # of iterations =  2.4

     total cpu time spent up to now is     2508.4 secs

     total energy              =    -703.60508763 Ry
     Harris-Foulkes estimate   =    -703.60508766 Ry
     estimated scf accuracy    <       0.00000020 Ry

     iteration # 26     ecut=    50.00 Ry     beta= 0.60
     Davidson diagonalization with overlap
     ethr =  2.63E-10,  avg # of iterations =  3.6

     total cpu time spent up to now is     2595.3 secs

     total energy              =    -703.60508765 Ry
     Harris-Foulkes estimate   =    -703.60508766 Ry
     estimated scf accuracy    <       0.00000010 Ry

     iteration # 27     ecut=    50.00 Ry     beta= 0.60
     Davidson diagonalization with overlap
     ethr =  1.31E-10,  avg # of iterations =  1.1

     total cpu time spent up to now is     2665.6 secs

     total energy              =    -703.60508765 Ry
     Harris-Foulkes estimate   =    -703.60508765 Ry
     estimated scf accuracy    <       0.00000001 Ry

     iteration # 28     ecut=    50.00 Ry     beta= 0.60
     Davidson diagonalization with overlap
     ethr =  1.90E-11,  avg # of iterations =  4.1

     total cpu time spent up to now is     2761.1 secs

     total energy              =    -703.60508765 Ry
     Harris-Foulkes estimate   =    -703.60508766 Ry
     estimated scf accuracy    <          7.6E-09 Ry

     iteration # 29     ecut=    50.00 Ry     beta= 0.60
     Davidson diagonalization with overlap
     ethr =  1.01E-11,  avg # of iterations =  1.1

     total cpu time spent up to now is     2831.2 secs

     total energy              =    -703.60508765 Ry
     Harris-Foulkes estimate   =    -703.60508765 Ry
     estimated scf accuracy    <          2.1E-09 Ry

     iteration # 30     ecut=    50.00 Ry     beta= 0.60
     Davidson diagonalization with overlap
     ethr =  2.75E-12,  avg # of iterations =  3.8

     total cpu time spent up to now is     2920.0 secs

     total energy              =    -703.60508765 Ry
     Harris-Foulkes estimate   =    -703.60508765 Ry
     estimated scf accuracy    <          8.4E-10 Ry

     iteration # 31     ecut=    50.00 Ry     beta= 0.60
     Davidson diagonalization with overlap
     ethr =  1.11E-12,  avg # of iterations =  1.1

     total cpu time spent up to now is     2990.3 secs

     total energy              =    -703.60508765 Ry
     Harris-Foulkes estimate   =    -703.60508765 Ry
     estimated scf accuracy    <          1.7E-10 Ry

     iteration # 32     ecut=    50.00 Ry     beta= 0.60
     Davidson diagonalization with overlap
     ethr =  2.26E-13,  avg # of iterations =  4.1

     total cpu time spent up to now is     3085.8 secs

     End of self-consistent calculation

     Number of k-points >= 100: set verbosity='high' to print the bands.

     the Fermi energy is    12.1642 ev

!    total energy              =    -703.60508765 Ry
     Harris-Foulkes estimate   =    -703.60508765 Ry
     estimated scf accuracy    <          2.3E-11 Ry

     The total energy is the sum of the following terms:

     one-electron contribution =    -226.18641048 Ry
     hartree contribution      =     134.30987777 Ry
     xc contribution           =     -97.86689683 Ry
     ewald contribution        =    -513.86235691 Ry
     smearing contrib. (-TS)   =       0.00069879 Ry

     convergence has been achieved in  32 iterations

     Forces acting on atoms (cartesian axes, Ry/au):

     atom    1 type  2   force =    -0.00604222   -0.00665954    0.00665954
     atom    2 type  1   force =     0.01705173    0.00090905   -0.00090905
     atom    3 type  2   force =    -0.00563612    0.00387039   -0.00387039
     atom    4 type  2   force =     0.00989621    0.00177290   -0.00177290
     atom    5 type  1   force =    -0.00891260   -0.00814013    0.00814013
     atom    6 type  1   force =    -0.00635699    0.00824732   -0.00824732

     Total force =     0.031177     Total SCF correction =     0.000005


     Computing stress (Cartesian axis) and pressure

          total   stress  (Ry/bohr**3)                   (kbar)     P= -200.06
  -0.00136357  -0.00000615   0.00000615       -200.59     -0.90      0.90
  -0.00000615  -0.00135821   0.00001191         -0.90   -199.80      1.75
   0.00000615   0.00001191  -0.00135821          0.90      1.75   -199.80


     BFGS Geometry Optimization

     number of scf cycles    =   1
     number of bfgs steps    =   0

     enthalpy new            =    -703.6050876548 Ry

     new trust radius        =       0.2022555127 bohr
     new conv_thr            =            1.0E-10 Ry

     new unit-cell volume =    793.26663 a.u.^3 (   117.54998 Ang^3 )
     density =      5.96579 g/cm^3

CELL_PARAMETERS (alat=  1.88972599)
   5.094304473   1.698049889   1.699671504
   1.699182568  -5.094758449   1.697037057
  -1.699182568   1.697037057  -5.094758449

ATOMIC_POSITIONS (angstrom)
Ti       3.393656194  -3.400617849   0.002896457
Nb       3.404918619  -0.000077354   0.000077354
Ti       1.695220028  -1.697152537  -1.700568856
Ti       5.099903050  -1.697719309   1.697719309
Nb       5.089750228  -1.703830805  -1.693890587
Nb      -0.003791181   0.003168367  -3.400889759


     NEW-OLD atomic charge density approx. for the potential
     extrapolated charge   67.12772, renormalised to   75.00000

     total cpu time spent up to now is     3117.6 secs

     Self-consistent Calculation

     iteration #  1     ecut=    50.00 Ry     beta= 0.60
     Davidson diagonalization with overlap
     c_bands:  1 eigenvalues not converged
     c_bands:  1 eigenvalues not converged
     c_bands:  1 eigenvalues not converged
     c_bands:  1 eigenvalues not converged
     c_bands:  1 eigenvalues not converged
     c_bands:  1 eigenvalues not converged
     c_bands:  1 eigenvalues not converged
     c_bands:  1 eigenvalues not converged
     c_bands:  1 eigenvalues not converged
     c_bands:  1 eigenvalues not converged
     c_bands:  1 eigenvalues not converged
     c_bands:  1 eigenvalues not converged
     c_bands:  1 eigenvalues not converged
     c_bands:  1 eigenvalues not converged
     c_bands:  1 eigenvalues not converged
     c_bands:  1 eigenvalues not converged
     c_bands:  1 eigenvalues not converged
     c_bands:  1 eigenvalues not converged
     c_bands:  1 eigenvalues not converged
     c_bands:  1 eigenvalues not converged
     c_bands:  1 eigenvalues not converged
     c_bands:  1 eigenvalues not converged
     c_bands:  1 eigenvalues not converged
     c_bands:  1 eigenvalues not converged
     c_bands:  1 eigenvalues not converged
     c_bands:  1 eigenvalues not converged
     c_bands:  1 eigenvalues not converged
     c_bands:  1 eigenvalues not converged
     c_bands:  1 eigenvalues not converged
     c_bands:  1 eigenvalues not converged
     c_bands:  1 eigenvalues not converged
     c_bands:  1 eigenvalues not converged
     c_bands:  1 eigenvalues not converged
     c_bands:  1 eigenvalues not converged
     c_bands:  1 eigenvalues not converged
     c_bands:  1 eigenvalues not converged
     c_bands:  1 eigenvalues not converged
     c_bands:  1 eigenvalues not converged
     c_bands:  1 eigenvalues not converged
     c_bands:  1 eigenvalues not converged
     c_bands:  1 eigenvalues not converged
     c_bands:  1 eigenvalues not converged
     c_bands:  1 eigenvalues not converged
     c_bands:  2 eigenvalues not converged
     c_bands:  1 eigenvalues not converged
     c_bands:  1 eigenvalues not converged
     c_bands:  1 eigenvalues not converged
     c_bands:  1 eigenvalues not converged
     c_bands:  1 eigenvalues not converged
     c_bands:  1 eigenvalues not converged
     c_bands:  1 eigenvalues not converged
     c_bands:  1 eigenvalues not converged
     c_bands:  1 eigenvalues not converged
     c_bands:  1 eigenvalues not converged
     c_bands:  1 eigenvalues not converged
     c_bands:  1 eigenvalues not converged
     c_bands:  1 eigenvalues not converged
     c_bands:  1 eigenvalues not converged
     c_bands:  1 eigenvalues not converged
     c_bands:  1 eigenvalues not converged
     c_bands:  1 eigenvalues not converged
     c_bands:  1 eigenvalues not converged
     c_bands:  1 eigenvalues not converged
     c_bands:  1 eigenvalues not converged
     c_bands:  1 eigenvalues not converged
     c_bands:  1 eigenvalues not converged
     c_bands:  1 eigenvalues not converged
     c_bands:  1 eigenvalues not converged
     c_bands:  1 eigenvalues not converged
     c_bands:  1 eigenvalues not converged
     c_bands:  1 eigenvalues not converged
     c_bands:  1 eigenvalues not converged
     c_bands:  1 eigenvalues not converged
     c_bands:  2 eigenvalues not converged
     c_bands:  2 eigenvalues not converged
     c_bands:  1 eigenvalues not converged
     c_bands:  1 eigenvalues not converged
     c_bands:  1 eigenvalues not converged
     c_bands:  1 eigenvalues not converged
     c_bands:  1 eigenvalues not converged
     c_bands:  1 eigenvalues not converged
     c_bands:  1 eigenvalues not converged
     c_bands:  1 eigenvalues not converged
     c_bands:  1 eigenvalues not converged
     c_bands:  1 eigenvalues not converged
     c_bands:  1 eigenvalues not converged
     c_bands:  1 eigenvalues not converged
     c_bands:  1 eigenvalues not converged
     c_bands:  1 eigenvalues not converged
     c_bands:  2 eigenvalues not converged
     c_bands:  1 eigenvalues not converged
     c_bands:  1 eigenvalues not converged
     c_bands:  1 eigenvalues not converged
     c_bands:  1 eigenvalues not converged
     c_bands:  1 eigenvalues not converged
     c_bands:  1 eigenvalues not converged
     c_bands:  1 eigenvalues not converged
     c_bands:  1 eigenvalues not converged
     c_bands:  1 eigenvalues not converged
     c_bands:  1 eigenvalues not converged
     c_bands:  1 eigenvalues not converged
     c_bands:  1 eigenvalues not converged
     c_bands:  1 eigenvalues not converged
     c_bands:  1 eigenvalues not converged
     c_bands:  1 eigenvalues not converged
     c_bands:  1 eigenvalues not converged
     c_bands:  1 eigenvalues not converged
     ethr =  1.00E-06,  avg # of iterations = 17.5

     total cpu time spent up to now is     3444.5 secs

     total energy              =    -661.77118259 Ry
     Harris-Foulkes estimate   =    -720.78411702 Ry
     estimated scf accuracy    <      47.30544252 Ry

     iteration #  2     ecut=    50.00 Ry     beta= 0.60
     Davidson diagonalization with overlap
     ethr =  1.00E-02,  avg # of iterations =  5.3

     total cpu time spent up to now is     3599.1 secs

     total energy              =    -680.75325156 Ry
     Harris-Foulkes estimate   =    -761.90702148 Ry
     estimated scf accuracy    <     268.20303871 Ry

     iteration #  3     ecut=    50.00 Ry     beta= 0.60
     Davidson diagonalization with overlap
     ethr =  1.00E-02,  avg # of iterations =  4.0

     total cpu time spent up to now is     3722.5 secs

     total energy              =    -706.57140174 Ry
     Harris-Foulkes estimate   =    -710.59286660 Ry
     estimated scf accuracy    <      20.08459895 Ry

     iteration #  4     ecut=    50.00 Ry     beta= 0.60
     Davidson diagonalization with overlap
     ethr =  1.00E-02,  avg # of iterations =  1.0

     total cpu time spent up to now is     3793.3 secs

     total energy              =    -705.94045543 Ry
     Harris-Foulkes estimate   =    -706.94296570 Ry
     estimated scf accuracy    <      14.20187003 Ry

     iteration #  5     ecut=    50.00 Ry     beta= 0.60
     Davidson diagonalization with overlap
     ethr =  1.00E-02,  avg # of iterations =  1.0

     total cpu time spent up to now is     3864.4 secs

     total energy              =    -704.14801721 Ry
     Harris-Foulkes estimate   =    -706.13676680 Ry
     estimated scf accuracy    <      11.10443595 Ry

     iteration #  6     ecut=    50.00 Ry     beta= 0.60
     Davidson diagonalization with overlap
     ethr =  1.00E-02,  avg # of iterations =  1.0

     total cpu time spent up to now is     3935.3 secs

     total energy              =    -703.87638427 Ry
     Harris-Foulkes estimate   =    -704.36372474 Ry
     estimated scf accuracy    <       6.13918816 Ry

     iteration #  7     ecut=    50.00 Ry     beta= 0.60
     Davidson diagonalization with overlap
     ethr =  8.19E-03,  avg # of iterations =  2.3

     total cpu time spent up to now is     4011.8 secs

     total energy              =    -704.40755132 Ry
     Harris-Foulkes estimate   =    -704.03965062 Ry
     estimated scf accuracy    <       3.84105188 Ry

     iteration #  8     ecut=    50.00 Ry     beta= 0.60
     Davidson diagonalization with overlap
     ethr =  5.12E-03,  avg # of iterations =  1.1

     total cpu time spent up to now is     4083.9 secs

     total energy              =    -704.01643545 Ry
     Harris-Foulkes estimate   =    -704.47058946 Ry
     estimated scf accuracy    <       5.03168406 Ry

     iteration #  9     ecut=    50.00 Ry     beta= 0.60
     Davidson diagonalization with overlap
     ethr =  5.12E-03,  avg # of iterations =  1.1

     total cpu time spent up to now is     4155.0 secs

     total energy              =    -703.59317341 Ry
     Harris-Foulkes estimate   =    -704.07747543 Ry
     estimated scf accuracy    <       3.27375000 Ry

     iteration # 10     ecut=    50.00 Ry     beta= 0.60
     Davidson diagonalization with overlap
     ethr =  4.37E-03,  avg # of iterations =  1.4

     total cpu time spent up to now is     4228.0 secs

     total energy              =    -703.11126886 Ry
     Harris-Foulkes estimate   =    -703.68169752 Ry
     estimated scf accuracy    <       1.32304819 Ry

     iteration # 11     ecut=    50.00 Ry     beta= 0.60
     Davidson diagonalization with overlap
     ethr =  1.76E-03,  avg # of iterations =  4.4

     total cpu time spent up to now is     4351.9 secs

     total energy              =    -704.11971444 Ry
     Harris-Foulkes estimate   =    -704.33404430 Ry
     estimated scf accuracy    <      10.22063981 Ry

     iteration # 12     ecut=    50.00 Ry     beta= 0.60
     Davidson diagonalization with overlap
     ethr =  1.76E-03,  avg # of iterations =  1.0

     total cpu time spent up to now is     4423.6 secs

     total energy              =    -704.15249387 Ry
     Harris-Foulkes estimate   =    -704.13404644 Ry
     estimated scf accuracy    <       8.04861204 Ry

     iteration # 13     ecut=    50.00 Ry     beta= 0.60
     Davidson diagonalization with overlap
     ethr =  1.76E-03,  avg # of iterations =  1.0

     total cpu time spent up to now is     4496.3 secs

     total energy              =    -704.24739578 Ry
     Harris-Foulkes estimate   =    -704.15524241 Ry
     estimated scf accuracy    <       8.30187093 Ry

     iteration # 14     ecut=    50.00 Ry     beta= 0.60
     Davidson diagonalization with overlap
     ethr =  1.76E-03,  avg # of iterations =  1.0

     total cpu time spent up to now is     4568.0 secs

     total energy              =    -704.11234840 Ry
     Harris-Foulkes estimate   =    -704.25234148 Ry
     estimated scf accuracy    <       8.96349308 Ry

     iteration # 15     ecut=    50.00 Ry     beta= 0.60
     Davidson diagonalization with overlap
     ethr =  1.76E-03,  avg # of iterations =  1.0

     total cpu time spent up to now is     4639.7 secs

     total energy              =    -704.10584665 Ry
     Harris-Foulkes estimate   =    -704.11863570 Ry
     estimated scf accuracy    <       7.56243053 Ry

     iteration # 16     ecut=    50.00 Ry     beta= 0.60
     Davidson diagonalization with overlap
     ethr =  1.76E-03,  avg # of iterations =  1.0

     total cpu time spent up to now is     4711.5 secs

     total energy              =    -703.97503989 Ry
     Harris-Foulkes estimate   =    -704.10766912 Ry
     estimated scf accuracy    <       7.30183986 Ry

     iteration # 17     ecut=    50.00 Ry     beta= 0.60
     Davidson diagonalization with overlap
     ethr =  1.76E-03,  avg # of iterations =  1.0

     total cpu time spent up to now is     4783.2 secs

     total energy              =    -703.80387077 Ry
     Harris-Foulkes estimate   =    -703.98369983 Ry
     estimated scf accuracy    <       5.72610058 Ry

     iteration # 18     ecut=    50.00 Ry     beta= 0.60
     Davidson diagonalization with overlap
     ethr =  1.76E-03,  avg # of iterations =  1.1

     total cpu time spent up to now is     4855.3 secs

     total energy              =    -703.48221626 Ry
     Harris-Foulkes estimate   =    -703.84197512 Ry
     estimated scf accuracy    <       3.00598844 Ry

     iteration # 19     ecut=    50.00 Ry     beta= 0.60
     Davidson diagonalization with overlap
     ethr =  1.76E-03,  avg # of iterations =  4.1

     total cpu time spent up to now is     4947.5 secs

     total energy              =    -703.67779359 Ry
     Harris-Foulkes estimate   =    -703.68229110 Ry
     estimated scf accuracy    <       0.01936640 Ry

     iteration # 20     ecut=    50.00 Ry     beta= 0.60
     Davidson diagonalization with overlap
     ethr =  2.58E-05,  avg # of iterations =  7.1

     total cpu time spent up to now is     5103.4 secs

     total energy              =    -703.70268305 Ry
     Harris-Foulkes estimate   =    -703.70682670 Ry
     estimated scf accuracy    <       0.03442791 Ry

     iteration # 21     ecut=    50.00 Ry     beta= 0.60
     Davidson diagonalization with overlap
     ethr =  2.58E-05,  avg # of iterations =  1.5

     total cpu time spent up to now is     5177.0 secs

     total energy              =    -703.70314212 Ry
     Harris-Foulkes estimate   =    -703.70414794 Ry
     estimated scf accuracy    <       0.01031909 Ry

     iteration # 22     ecut=    50.00 Ry     beta= 0.60
     Davidson diagonalization with overlap
     ethr =  1.38E-05,  avg # of iterations =  2.9

     total cpu time spent up to now is     5260.0 secs

     total energy              =    -703.70386447 Ry
     Harris-Foulkes estimate   =    -703.70388662 Ry
     estimated scf accuracy    <       0.00144280 Ry

     iteration # 23     ecut=    50.00 Ry     beta= 0.60
     Davidson diagonalization with overlap
     c_bands:  1 eigenvalues not converged
     ethr =  1.92E-06,  avg # of iterations =  5.7

     total cpu time spent up to now is     5368.8 secs

     total energy              =    -703.70385146 Ry
     Harris-Foulkes estimate   =    -703.70402797 Ry
     estimated scf accuracy    <       0.00160940 Ry

     iteration # 24     ecut=    50.00 Ry     beta= 0.60
     Davidson diagonalization with overlap
     ethr =  1.92E-06,  avg # of iterations =  1.1

     total cpu time spent up to now is     5453.6 secs

     total energy              =    -703.70389434 Ry
     Harris-Foulkes estimate   =    -703.70392142 Ry
     estimated scf accuracy    <       0.00039648 Ry

     iteration # 25     ecut=    50.00 Ry     beta= 0.60
     Davidson diagonalization with overlap
     ethr =  5.29E-07,  avg # of iterations =  2.7

     total cpu time spent up to now is     5549.2 secs

     total energy              =    -703.70390257 Ry
     Harris-Foulkes estimate   =    -703.70391776 Ry
     estimated scf accuracy    <       0.00014315 Ry

     iteration # 26     ecut=    50.00 Ry     beta= 0.60
     Davidson diagonalization with overlap
     ethr =  1.91E-07,  avg # of iterations =  4.0

     total cpu time spent up to now is     5663.6 secs

     total energy              =    -703.70391326 Ry
     Harris-Foulkes estimate   =    -703.70391911 Ry
     estimated scf accuracy    <       0.00002842 Ry

     iteration # 27     ecut=    50.00 Ry     beta= 0.60
     Davidson diagonalization with overlap
     ethr =  3.79E-08,  avg # of iterations =  4.1

     total cpu time spent up to now is     5785.6 secs

     total energy              =    -703.70391575 Ry
     Harris-Foulkes estimate   =    -703.70392033 Ry
     estimated scf accuracy    <       0.00003280 Ry

     iteration # 28     ecut=    50.00 Ry     beta= 0.60
     Davidson diagonalization with overlap
     ethr =  3.79E-08,  avg # of iterations =  1.0

     total cpu time spent up to now is     5870.7 secs

     total energy              =    -703.70391755 Ry
     Harris-Foulkes estimate   =    -703.70391776 Ry
     estimated scf accuracy    <       0.00000110 Ry

     iteration # 29     ecut=    50.00 Ry     beta= 0.60
     Davidson diagonalization with overlap
     ethr =  1.46E-09,  avg # of iterations =  5.0

     total cpu time spent up to now is     6013.2 secs

     total energy              =    -703.70391812 Ry
     Harris-Foulkes estimate   =    -703.70391834 Ry
     estimated scf accuracy    <       0.00000202 Ry

     iteration # 30     ecut=    50.00 Ry     beta= 0.60
     Davidson diagonalization with overlap
     ethr =  1.46E-09,  avg # of iterations =  1.1

     total cpu time spent up to now is     6098.9 secs

     total energy              =    -703.70391814 Ry
     Harris-Foulkes estimate   =    -703.70391819 Ry
     estimated scf accuracy    <       0.00000047 Ry

     iteration # 31     ecut=    50.00 Ry     beta= 0.60
     Davidson diagonalization with overlap
     ethr =  6.22E-10,  avg # of iterations =  3.2

     total cpu time spent up to now is     6207.4 secs

     total energy              =    -703.70391818 Ry
     Harris-Foulkes estimate   =    -703.70391820 Ry
     estimated scf accuracy    <       0.00000007 Ry

     iteration # 32     ecut=    50.00 Ry     beta= 0.60
     Davidson diagonalization with overlap
     ethr =  8.82E-11,  avg # of iterations =  4.1

     total cpu time spent up to now is     6336.6 secs

     total energy              =    -703.70391819 Ry
     Harris-Foulkes estimate   =    -703.70391821 Ry
     estimated scf accuracy    <       0.00000016 Ry

     iteration # 33     ecut=    50.00 Ry     beta= 0.60
     Davidson diagonalization with overlap
     ethr =  8.82E-11,  avg # of iterations =  2.0

     total cpu time spent up to now is     6427.0 secs

     total energy              =    -703.70391819 Ry
     Harris-Foulkes estimate   =    -703.70391820 Ry
     estimated scf accuracy    <       0.00000002 Ry

     iteration # 34     ecut=    50.00 Ry     beta= 0.60
     Davidson diagonalization with overlap
     ethr =  2.44E-11,  avg # of iterations =  4.0

     total cpu time spent up to now is     6553.3 secs

     total energy              =    -703.70391820 Ry
     Harris-Foulkes estimate   =    -703.70391820 Ry
     estimated scf accuracy    <       0.00000001 Ry

     iteration # 35     ecut=    50.00 Ry     beta= 0.60
     Davidson diagonalization with overlap
     ethr =  1.70E-11,  avg # of iterations =  1.0

     total cpu time spent up to now is     6638.8 secs

     total energy              =    -703.70391820 Ry
     Harris-Foulkes estimate   =    -703.70391820 Ry
     estimated scf accuracy    <       0.00000001 Ry

     iteration # 36     ecut=    50.00 Ry     beta= 0.60
     Davidson diagonalization with overlap
     ethr =  1.42E-11,  avg # of iterations =  1.0

     total cpu time spent up to now is     6709.3 secs

     total energy              =    -703.70391820 Ry
     Harris-Foulkes estimate   =    -703.70391820 Ry
     estimated scf accuracy    <          2.5E-09 Ry

     iteration # 37     ecut=    50.00 Ry     beta= 0.60
     Davidson diagonalization with overlap
     ethr =  3.30E-12,  avg # of iterations =  3.7

     total cpu time spent up to now is     6792.5 secs

     total energy              =    -703.70391820 Ry
     Harris-Foulkes estimate   =    -703.70391820 Ry
     estimated scf accuracy    <          3.3E-10 Ry

     iteration # 38     ecut=    50.00 Ry     beta= 0.60
     Davidson diagonalization with overlap
     ethr =  4.43E-13,  avg # of iterations =  4.0

     total cpu time spent up to now is     6890.4 secs

     End of self-consistent calculation

     Number of k-points >= 100: set verbosity='high' to print the bands.

     the Fermi energy is    13.8054 ev

!    total energy              =    -703.70391820 Ry
     Harris-Foulkes estimate   =    -703.70391820 Ry
     estimated scf accuracy    <          4.5E-11 Ry

     The total energy is the sum of the following terms:

     one-electron contribution =    -199.52041493 Ry
     hartree contribution      =     126.10726859 Ry
     xc contribution           =     -98.35743241 Ry
     ewald contribution        =    -531.93350303 Ry
     smearing contrib. (-TS)   =       0.00016357 Ry

     convergence has been achieved in  38 iterations

     Forces acting on atoms (cartesian axes, Ry/au):

     atom    1 type  2   force =    -0.00642710   -0.00715921    0.00715921
     atom    2 type  1   force =     0.01506500    0.00134420   -0.00134420
     atom    3 type  2   force =    -0.00476057    0.00367904   -0.00367904
     atom    4 type  2   force =     0.00905916    0.00178330   -0.00178330
     atom    5 type  1   force =    -0.00870190   -0.00807488    0.00807488
     atom    6 type  1   force =    -0.00423460    0.00842755   -0.00842755

     Total force =     0.029642     Total SCF correction =     0.000007


     Computing stress (Cartesian axis) and pressure

          total   stress  (Ry/bohr**3)                   (kbar)     P= -124.63
  -0.00085241  -0.00000098   0.00000098       -125.39     -0.14      0.14
  -0.00000098  -0.00084457   0.00000848         -0.14   -124.24      1.25
   0.00000098   0.00000848  -0.00084457          0.14      1.25   -124.24


     number of scf cycles    =   2
     number of bfgs steps    =   1

     enthalpy old            =    -703.6050876548 Ry
     enthalpy new            =    -703.7039181978 Ry

     CASE: enthalpy_new < enthalpy_old

     new trust radius        =       0.2798209557 bohr
     new conv_thr            =            1.0E-10 Ry

     new unit-cell volume =    681.49632 a.u.^3 (   100.98733 Ang^3 )
     density =      6.94423 g/cm^3

CELL_PARAMETERS (alat=  1.88972599)
   4.841243958   1.615009346   1.617302263
   1.615276623  -4.843299472   1.610987863
  -1.615276623   1.610987863  -4.843299472

ATOMIC_POSITIONS (angstrom)
Ti       3.218069915  -3.241618700   0.009307091
Nb       3.252810069   0.001186021  -0.001186021
Ti       1.605623065  -1.610498430  -1.621813179
Ti       4.857054790  -1.611656640   1.611656640
Nb       4.827087769  -1.630373803  -1.601937806
Nb      -0.008653443   0.010753894  -3.243065503


     NEW-OLD atomic charge density approx. for the potential
     extrapolated charge   63.19285, renormalised to   75.00000

     total cpu time spent up to now is     6923.7 secs

     Self-consistent Calculation

     iteration #  1     ecut=    50.00 Ry     beta= 0.60
     Davidson diagonalization with overlap
     c_bands:  1 eigenvalues not converged
     c_bands:  1 eigenvalues not converged
     c_bands:  1 eigenvalues not converged
     c_bands:  1 eigenvalues not converged
     c_bands:  2 eigenvalues not converged
     c_bands:  1 eigenvalues not converged
     c_bands:  1 eigenvalues not converged
     c_bands:  1 eigenvalues not converged
     c_bands:  1 eigenvalues not converged
     c_bands:  1 eigenvalues not converged
     c_bands:  1 eigenvalues not converged
     c_bands:  1 eigenvalues not converged
     c_bands:  1 eigenvalues not converged
     c_bands:  1 eigenvalues not converged
     c_bands:  1 eigenvalues not converged
     c_bands:  2 eigenvalues not converged
     c_bands:  1 eigenvalues not converged
     c_bands:  1 eigenvalues not converged
     c_bands:  1 eigenvalues not converged
     c_bands:  2 eigenvalues not converged
     c_bands:  1 eigenvalues not converged
     c_bands:  1 eigenvalues not converged
     c_bands:  1 eigenvalues not converged
     c_bands:  1 eigenvalues not converged
     c_bands:  1 eigenvalues not converged
     c_bands:  2 eigenvalues not converged
     c_bands:  1 eigenvalues not converged
     c_bands:  1 eigenvalues not converged
     c_bands:  1 eigenvalues not converged
     c_bands:  1 eigenvalues not converged
     c_bands:  2 eigenvalues not converged
     c_bands:  1 eigenvalues not converged
     c_bands:  1 eigenvalues not converged
     c_bands:  1 eigenvalues not converged
     c_bands:  1 eigenvalues not converged
     c_bands:  1 eigenvalues not converged
     c_bands:  1 eigenvalues not converged
     c_bands:  2 eigenvalues not converged
     c_bands:  1 eigenvalues not converged
     c_bands:  1 eigenvalues not converged
     c_bands:  1 eigenvalues not converged
     c_bands:  1 eigenvalues not converged
     c_bands:  1 eigenvalues not converged
     c_bands:  1 eigenvalues not converged
     c_bands:  1 eigenvalues not converged
     c_bands:  1 eigenvalues not converged
     c_bands:  1 eigenvalues not converged
     c_bands:  1 eigenvalues not converged
     c_bands:  1 eigenvalues not converged
     c_bands:  1 eigenvalues not converged
     c_bands:  2 eigenvalues not converged
     c_bands:  1 eigenvalues not converged
     c_bands:  2 eigenvalues not converged
     c_bands:  1 eigenvalues not converged
     c_bands:  1 eigenvalues not converged
     c_bands:  1 eigenvalues not converged
     c_bands:  1 eigenvalues not converged
     c_bands:  1 eigenvalues not converged
     c_bands:  1 eigenvalues not converged
     c_bands:  1 eigenvalues not converged
     c_bands:  1 eigenvalues not converged
     c_bands:  2 eigenvalues not converged
     c_bands:  1 eigenvalues not converged
     c_bands:  1 eigenvalues not converged
     c_bands:  1 eigenvalues not converged
     c_bands:  2 eigenvalues not converged
     c_bands:  1 eigenvalues not converged
     c_bands:  1 eigenvalues not converged
     c_bands:  1 eigenvalues not converged
     c_bands:  1 eigenvalues not converged
     c_bands:  1 eigenvalues not converged
     c_bands:  1 eigenvalues not converged
     c_bands:  2 eigenvalues not converged
     c_bands:  1 eigenvalues not converged
     c_bands:  1 eigenvalues not converged
     c_bands:  1 eigenvalues not converged
     c_bands:  1 eigenvalues not converged
     c_bands:  1 eigenvalues not converged
     c_bands:  1 eigenvalues not converged
     c_bands:  1 eigenvalues not converged
     c_bands:  1 eigenvalues not converged
     c_bands:  1 eigenvalues not converged
     c_bands:  1 eigenvalues not converged
     c_bands:  1 eigenvalues not converged
     c_bands:  1 eigenvalues not converged
     c_bands:  1 eigenvalues not converged
     c_bands:  2 eigenvalues not converged
     c_bands:  1 eigenvalues not converged
     c_bands:  1 eigenvalues not converged
     c_bands:  1 eigenvalues not converged
     c_bands:  1 eigenvalues not converged
     c_bands:  1 eigenvalues not converged
     c_bands:  1 eigenvalues not converged
     c_bands:  2 eigenvalues not converged
     c_bands:  2 eigenvalues not converged
     c_bands:  1 eigenvalues not converged
     c_bands:  2 eigenvalues not converged
     c_bands:  2 eigenvalues not converged
     c_bands:  1 eigenvalues not converged
     c_bands:  1 eigenvalues not converged
     c_bands:  1 eigenvalues not converged
     c_bands:  1 eigenvalues not converged
     c_bands:  1 eigenvalues not converged
     c_bands:  1 eigenvalues not converged
     c_bands:  1 eigenvalues not converged
     c_bands:  1 eigenvalues not converged
     c_bands:  1 eigenvalues not converged
     c_bands:  1 eigenvalues not converged
     c_bands:  1 eigenvalues not converged
     c_bands:  1 eigenvalues not converged
     c_bands:  1 eigenvalues not converged
     c_bands:  2 eigenvalues not converged
     c_bands:  2 eigenvalues not converged
     c_bands:  1 eigenvalues not converged
     c_bands:  1 eigenvalues not converged
     c_bands:  2 eigenvalues not converged
     c_bands:  1 eigenvalues not converged
     c_bands:  1 eigenvalues not converged
     c_bands:  1 eigenvalues not converged
     c_bands:  1 eigenvalues not converged
     c_bands:  1 eigenvalues not converged
     c_bands:  1 eigenvalues not converged
     c_bands:  1 eigenvalues not converged
     c_bands:  1 eigenvalues not converged
     c_bands:  1 eigenvalues not converged
     c_bands:  1 eigenvalues not converged
     c_bands:  1 eigenvalues not converged
     c_bands:  1 eigenvalues not converged
     c_bands:  1 eigenvalues not converged
     c_bands:  1 eigenvalues not converged
     c_bands:  1 eigenvalues not converged
     c_bands:  1 eigenvalues not converged
     c_bands:  2 eigenvalues not converged
     c_bands:  1 eigenvalues not converged
     c_bands:  2 eigenvalues not converged
     c_bands:  1 eigenvalues not converged
     c_bands:  1 eigenvalues not converged
     c_bands:  1 eigenvalues not converged
     c_bands:  1 eigenvalues not converged
     c_bands:  1 eigenvalues not converged
     c_bands:  1 eigenvalues not converged
     c_bands:  1 eigenvalues not converged
     c_bands:  1 eigenvalues not converged
     c_bands:  1 eigenvalues not converged
     c_bands:  1 eigenvalues not converged
     c_bands:  1 eigenvalues not converged
     c_bands:  1 eigenvalues not converged
     c_bands:  1 eigenvalues not converged
     ethr =  1.00E-06,  avg # of iterations = 17.4

     total cpu time spent up to now is     7222.5 secs

     total energy              =    -637.31562424 Ry
     Harris-Foulkes estimate   =    -726.61939820 Ry
     estimated scf accuracy    <      74.50813359 Ry

     iteration #  2     ecut=    50.00 Ry     beta= 0.60
     Davidson diagonalization with overlap
     ethr =  1.00E-02,  avg # of iterations =  6.4

     total cpu time spent up to now is     7382.6 secs

     total energy              =    -681.47076879 Ry
     Harris-Foulkes estimate   =    -791.60091873 Ry
     estimated scf accuracy    <     340.37259094 Ry

     iteration #  3     ecut=    50.00 Ry     beta= 0.60
     Davidson diagonalization with overlap
     ethr =  1.00E-02,  avg # of iterations =  4.6

     total cpu time spent up to now is     7519.2 secs

     total energy              =    -707.91920015 Ry
     Harris-Foulkes estimate   =    -714.19198898 Ry
     estimated scf accuracy    <      28.33013383 Ry

     iteration #  4     ecut=    50.00 Ry     beta= 0.60
     Davidson diagonalization with overlap
     ethr =  1.00E-02,  avg # of iterations =  2.0

     total cpu time spent up to now is     7594.4 secs

     total energy              =    -706.88202620 Ry
     Harris-Foulkes estimate   =    -708.47189265 Ry
     estimated scf accuracy    <      17.94659829 Ry

     iteration #  5     ecut=    50.00 Ry     beta= 0.60
     Davidson diagonalization with overlap
     ethr =  1.00E-02,  avg # of iterations =  1.0

     total cpu time spent up to now is     7664.0 secs

     total energy              =    -704.36724768 Ry
     Harris-Foulkes estimate   =    -707.11225565 Ry
     estimated scf accuracy    <      13.53449026 Ry

     iteration #  6     ecut=    50.00 Ry     beta= 0.60
     Davidson diagonalization with overlap
     ethr =  1.00E-02,  avg # of iterations =  1.2

     total cpu time spent up to now is     7735.6 secs

     total energy              =    -704.27461361 Ry
     Harris-Foulkes estimate   =    -704.65335842 Ry
     estimated scf accuracy    <       6.88465394 Ry

     iteration #  7     ecut=    50.00 Ry     beta= 0.60
     Davidson diagonalization with overlap
     ethr =  9.18E-03,  avg # of iterations =  1.4

     total cpu time spent up to now is     7807.3 secs

     total energy              =    -704.59773363 Ry
     Harris-Foulkes estimate   =    -704.41005421 Ry
     estimated scf accuracy    <       5.30972955 Ry

     iteration #  8     ecut=    50.00 Ry     beta= 0.60
     Davidson diagonalization with overlap
     ethr =  7.08E-03,  avg # of iterations =  1.0

     total cpu time spent up to now is     7877.5 secs

     total energy              =    -703.94751742 Ry
     Harris-Foulkes estimate   =    -704.64985230 Ry
     estimated scf accuracy    <       5.51258524 Ry

     iteration #  9     ecut=    50.00 Ry     beta= 0.60
     Davidson diagonalization with overlap
     ethr =  7.08E-03,  avg # of iterations =  1.6

     total cpu time spent up to now is     7950.0 secs

     total energy              =    -703.62676357 Ry
     Harris-Foulkes estimate   =    -704.07123339 Ry
     estimated scf accuracy    <       2.89532231 Ry

     iteration # 10     ecut=    50.00 Ry     beta= 0.60
     Davidson diagonalization with overlap
     ethr =  3.86E-03,  avg # of iterations =  2.8

     total cpu time spent up to now is     8026.7 secs

     total energy              =    -703.23768869 Ry
     Harris-Foulkes estimate   =    -703.75546768 Ry
     estimated scf accuracy    <       0.88252782 Ry

     iteration # 11     ecut=    50.00 Ry     beta= 0.60
     Davidson diagonalization with overlap
     ethr =  1.18E-03,  avg # of iterations =  4.4

     total cpu time spent up to now is     8155.1 secs

     total energy              =    -704.13945503 Ry
     Harris-Foulkes estimate   =    -704.49658102 Ry
     estimated scf accuracy    <      10.29571150 Ry

     iteration # 12     ecut=    50.00 Ry     beta= 0.60
     Davidson diagonalization with overlap
     ethr =  1.18E-03,  avg # of iterations =  1.0

     total cpu time spent up to now is     8225.3 secs

     total energy              =    -704.34793289 Ry
     Harris-Foulkes estimate   =    -704.17891379 Ry
     estimated scf accuracy    <       7.41442748 Ry

     iteration # 13     ecut=    50.00 Ry     beta= 0.60
     Davidson diagonalization with overlap
     ethr =  1.18E-03,  avg # of iterations =  1.0

     total cpu time spent up to now is     8299.6 secs

     total energy              =    -704.51387503 Ry
     Harris-Foulkes estimate   =    -704.36834684 Ry
     estimated scf accuracy    <       9.02979070 Ry

     iteration # 14     ecut=    50.00 Ry     beta= 0.60
     Davidson diagonalization with overlap
     ethr =  1.18E-03,  avg # of iterations =  1.0

     total cpu time spent up to now is     8369.7 secs

     total energy              =    -704.14608290 Ry
     Harris-Foulkes estimate   =    -704.52240641 Ry
     estimated scf accuracy    <      10.35655589 Ry

     iteration # 15     ecut=    50.00 Ry     beta= 0.60
     Davidson diagonalization with overlap
     ethr =  1.18E-03,  avg # of iterations =  1.0

     total cpu time spent up to now is     8439.8 secs

     total energy              =    -704.15057615 Ry
     Harris-Foulkes estimate   =    -704.17814855 Ry
     estimated scf accuracy    <       7.29327686 Ry

     iteration # 16     ecut=    50.00 Ry     beta= 0.60
     Davidson diagonalization with overlap
     ethr =  1.18E-03,  avg # of iterations =  1.0

     total cpu time spent up to now is     8509.9 secs

     total energy              =    -704.34507169 Ry
     Harris-Foulkes estimate   =    -704.15758788 Ry
     estimated scf accuracy    <       6.82829892 Ry

     iteration # 17     ecut=    50.00 Ry     beta= 0.60
     Davidson diagonalization with overlap
     ethr =  1.18E-03,  avg # of iterations =  1.0

     total cpu time spent up to now is     8573.1 secs

     total energy              =    -703.89489361 Ry
     Harris-Foulkes estimate   =    -704.35627867 Ry
     estimated scf accuracy    <       8.52108098 Ry

     iteration # 18     ecut=    50.00 Ry     beta= 0.60
     Davidson diagonalization with overlap
     ethr =  1.18E-03,  avg # of iterations =  1.0

     total cpu time spent up to now is     8635.0 secs

     total energy              =    -703.46306892 Ry
     Harris-Foulkes estimate   =    -703.95531687 Ry
     estimated scf accuracy    <       4.39139056 Ry

     iteration # 19     ecut=    50.00 Ry     beta= 0.60
     Davidson diagonalization with overlap
     ethr =  1.18E-03,  avg # of iterations =  4.7

     total cpu time spent up to now is     8724.9 secs

     total energy              =    -703.73357380 Ry
     Harris-Foulkes estimate   =    -703.74504755 Ry
     estimated scf accuracy    <       0.08318647 Ry

     iteration # 20     ecut=    50.00 Ry     beta= 0.60
     Davidson diagonalization with overlap
     ethr =  1.11E-04,  avg # of iterations =  3.9

     total cpu time spent up to now is     8801.5 secs

     total energy              =    -703.73969576 Ry
     Harris-Foulkes estimate   =    -703.74058730 Ry
     estimated scf accuracy    <       0.04172133 Ry

     iteration # 21     ecut=    50.00 Ry     beta= 0.60
     Davidson diagonalization with overlap
     ethr =  5.56E-05,  avg # of iterations =  1.1

     total cpu time spent up to now is     8863.4 secs

     total energy              =    -703.73676856 Ry
     Harris-Foulkes estimate   =    -703.74078951 Ry
     estimated scf accuracy    <       0.03906301 Ry

     iteration # 22     ecut=    50.00 Ry     beta= 0.60
     Davidson diagonalization with overlap
     ethr =  5.21E-05,  avg # of iterations =  1.0

     total cpu time spent up to now is     8925.0 secs

     total energy              =    -703.73711725 Ry
     Harris-Foulkes estimate   =    -703.73800739 Ry
     estimated scf accuracy    <       0.01357135 Ry

     iteration # 23     ecut=    50.00 Ry     beta= 0.60
     Davidson diagonalization with overlap
     ethr =  1.81E-05,  avg # of iterations =  6.2

     total cpu time spent up to now is     9003.8 secs

     total energy              =    -703.73681696 Ry
     Harris-Foulkes estimate   =    -703.73769797 Ry
     estimated scf accuracy    <       0.00517339 Ry

     iteration # 24     ecut=    50.00 Ry     beta= 0.60
     Davidson diagonalization with overlap
     ethr =  6.90E-06,  avg # of iterations =  5.7

     total cpu time spent up to now is     9101.4 secs

     total energy              =    -703.73757291 Ry
     Harris-Foulkes estimate   =    -703.73760775 Ry
     estimated scf accuracy    <       0.00023214 Ry

     iteration # 25     ecut=    50.00 Ry     beta= 0.60
     Davidson diagonalization with overlap
     ethr =  3.10E-07,  avg # of iterations =  3.6

     total cpu time spent up to now is     9189.0 secs

     total energy              =    -703.73756315 Ry
     Harris-Foulkes estimate   =    -703.73760582 Ry
     estimated scf accuracy    <       0.00014128 Ry

     iteration # 26     ecut=    50.00 Ry     beta= 0.60
     Davidson diagonalization with overlap
     ethr =  1.88E-07,  avg # of iterations =  3.8

     total cpu time spent up to now is     9286.0 secs

     total energy              =    -703.73757865 Ry
     Harris-Foulkes estimate   =    -703.73760922 Ry
     estimated scf accuracy    <       0.00016188 Ry

     iteration # 27     ecut=    50.00 Ry     beta= 0.60
     Davidson diagonalization with overlap
     ethr =  1.88E-07,  avg # of iterations =  1.4

     total cpu time spent up to now is     9357.1 secs

     total energy              =    -703.73758933 Ry
     Harris-Foulkes estimate   =    -703.73759151 Ry
     estimated scf accuracy    <       0.00000793 Ry

     iteration # 28     ecut=    50.00 Ry     beta= 0.60
     Davidson diagonalization with overlap
     ethr =  1.06E-08,  avg # of iterations =  4.5

     total cpu time spent up to now is     9464.5 secs

     total energy              =    -703.73759377 Ry
     Harris-Foulkes estimate   =    -703.73759652 Ry
     estimated scf accuracy    <       0.00002138 Ry

     iteration # 29     ecut=    50.00 Ry     beta= 0.60
     Davidson diagonalization with overlap
     ethr =  1.06E-08,  avg # of iterations =  2.5

     total cpu time spent up to now is     9539.6 secs

     total energy              =    -703.73759416 Ry
     Harris-Foulkes estimate   =    -703.73759466 Ry
     estimated scf accuracy    <       0.00000413 Ry

     iteration # 30     ecut=    50.00 Ry     beta= 0.60
     Davidson diagonalization with overlap
     ethr =  5.50E-09,  avg # of iterations =  3.4

     total cpu time spent up to now is     9627.4 secs

     total energy              =    -703.73759459 Ry
     Harris-Foulkes estimate   =    -703.73759466 Ry
     estimated scf accuracy    <       0.00000047 Ry

     iteration # 31     ecut=    50.00 Ry     beta= 0.60
     Davidson diagonalization with overlap
     ethr =  6.27E-10,  avg # of iterations =  3.1

     total cpu time spent up to now is     9709.0 secs

     total energy              =    -703.73759463 Ry
     Harris-Foulkes estimate   =    -703.73759464 Ry
     estimated scf accuracy    <       0.00000004 Ry

     iteration # 32     ecut=    50.00 Ry     beta= 0.60
     Davidson diagonalization with overlap
     ethr =  5.13E-11,  avg # of iterations =  4.0

     total cpu time spent up to now is     9808.5 secs

     total energy              =    -703.73759464 Ry
     Harris-Foulkes estimate   =    -703.73759465 Ry
     estimated scf accuracy    <       0.00000004 Ry

     iteration # 33     ecut=    50.00 Ry     beta= 0.60
     Davidson diagonalization with overlap
     ethr =  4.97E-11,  avg # of iterations =  3.7

     total cpu time spent up to now is     9901.7 secs

     total energy              =    -703.73759464 Ry
     Harris-Foulkes estimate   =    -703.73759465 Ry
     estimated scf accuracy    <       0.00000003 Ry

     iteration # 34     ecut=    50.00 Ry     beta= 0.60
     Davidson diagonalization with overlap
     ethr =  4.12E-11,  avg # of iterations =  1.0

     total cpu time spent up to now is     9971.9 secs

     total energy              =    -703.73759464 Ry
     Harris-Foulkes estimate   =    -703.73759465 Ry
     estimated scf accuracy    <          3.1E-09 Ry

     iteration # 35     ecut=    50.00 Ry     beta= 0.60
     Davidson diagonalization with overlap
     ethr =  4.09E-12,  avg # of iterations =  4.0

     total cpu time spent up to now is    10072.6 secs

     total energy              =    -703.73759465 Ry
     Harris-Foulkes estimate   =    -703.73759465 Ry
     estimated scf accuracy    <          1.7E-09 Ry

     iteration # 36     ecut=    50.00 Ry     beta= 0.60
     Davidson diagonalization with overlap
     ethr =  2.32E-12,  avg # of iterations =  1.0

     total cpu time spent up to now is    10142.7 secs

     total energy              =    -703.73759465 Ry
     Harris-Foulkes estimate   =    -703.73759465 Ry
     estimated scf accuracy    <          3.9E-10 Ry

     iteration # 37     ecut=    50.00 Ry     beta= 0.60
     Davidson diagonalization with overlap
     ethr =  5.17E-13,  avg # of iterations =  3.8

     total cpu time spent up to now is    10237.8 secs

     total energy              =    -703.73759465 Ry
     Harris-Foulkes estimate   =    -703.73759465 Ry
     estimated scf accuracy    <          1.5E-10 Ry

     iteration # 38     ecut=    50.00 Ry     beta= 0.60
     Davidson diagonalization with overlap
     ethr =  1.95E-13,  avg # of iterations =  1.0

     total cpu time spent up to now is    10307.9 secs

     End of self-consistent calculation

     Number of k-points >= 100: set verbosity='high' to print the bands.

     the Fermi energy is    16.5104 ev

!    total energy              =    -703.73759465 Ry
     Harris-Foulkes estimate   =    -703.73759465 Ry
     estimated scf accuracy    <          7.0E-11 Ry

     The total energy is the sum of the following terms:

     one-electron contribution =    -159.49846423 Ry
     hartree contribution      =     114.46964652 Ry
     xc contribution           =     -99.20204561 Ry
     ewald contribution        =    -559.50542842 Ry
     smearing contrib. (-TS)   =      -0.00130290 Ry

     convergence has been achieved in  38 iterations

     Forces acting on atoms (cartesian axes, Ry/au):

     atom    1 type  2   force =    -0.00696327   -0.00755671    0.00755671
     atom    2 type  1   force =     0.00760077    0.00150716   -0.00150716
     atom    3 type  2   force =    -0.00126922    0.00367801   -0.00367801
     atom    4 type  2   force =     0.00610618    0.00057181   -0.00057181
     atom    5 type  1   force =    -0.00642738   -0.00635739    0.00635739
     atom    6 type  1   force =     0.00095292    0.00815713   -0.00815713

     Total force =     0.023404     Total SCF correction =     0.000010


     Computing stress (Cartesian axis) and pressure

          total   stress  (Ry/bohr**3)                   (kbar)     P=   62.58
   0.00041490   0.00001647  -0.00001647         61.03      2.42     -2.42
   0.00001647   0.00043070  -0.00000430          2.42     63.36     -0.63
  -0.00001647  -0.00000430   0.00043070         -2.42     -0.63     63.36


     number of scf cycles    =   3
     number of bfgs steps    =   2

     enthalpy old            =    -703.7039181978 Ry
     enthalpy new            =    -703.7375946459 Ry

     CASE: enthalpy_new < enthalpy_old

     new trust radius        =       0.0822447035 bohr
     new conv_thr            =            1.0E-10 Ry

     new unit-cell volume =    714.09496 a.u.^3 (   105.81795 Ang^3 )
     density =      6.62722 g/cm^3

CELL_PARAMETERS (alat=  1.88972599)
   4.916734742   1.641513988   1.641120219
   1.638649193  -4.919411859   1.636777652
  -1.638649193   1.636777652  -4.919411859

ATOMIC_POSITIONS (angstrom)
Ti       3.266403941  -3.292742480   0.010108273
Nb       3.302965313   0.002330239  -0.002330239
Ti       1.631200413  -1.634680853  -1.647953354
Ti       4.932030217  -1.636134288   1.636134288
Nb       4.902035796  -1.654820164  -1.627814043
Nb      -0.006739487   0.012420852  -3.295055059


     NEW-OLD atomic charge density approx. for the potential
     extrapolated charge   78.28644, renormalised to   75.00000

     total cpu time spent up to now is    10341.3 secs

     Self-consistent Calculation

     iteration #  1     ecut=    50.00 Ry     beta= 0.60
     Davidson diagonalization with overlap
     ethr =  1.00E-06,  avg # of iterations = 12.8

     total cpu time spent up to now is    10595.9 secs

     total energy              =    -703.04206130 Ry
     Harris-Foulkes estimate   =    -698.46387885 Ry
     estimated scf accuracy    <       0.56697467 Ry

     iteration #  2     ecut=    50.00 Ry     beta= 0.60
     Davidson diagonalization with overlap
     ethr =  7.56E-04,  avg # of iterations =  5.9

     total cpu time spent up to now is    10751.4 secs

     total energy              =    -702.59112126 Ry
     Harris-Foulkes estimate   =    -705.17976280 Ry
     estimated scf accuracy    <      18.88056831 Ry

     iteration #  3     ecut=    50.00 Ry     beta= 0.60
     Davidson diagonalization with overlap
     ethr =  7.56E-04,  avg # of iterations =  5.0

     total cpu time spent up to now is    10883.5 secs

     total energy              =    -703.66188745 Ry
     Harris-Foulkes estimate   =    -703.89800052 Ry
     estimated scf accuracy    <       0.83607943 Ry

     iteration #  4     ecut=    50.00 Ry     beta= 0.60
     Davidson diagonalization with overlap
     ethr =  7.56E-04,  avg # of iterations =  6.1

     total cpu time spent up to now is    10987.5 secs

     total energy              =    -703.71148507 Ry
     Harris-Foulkes estimate   =    -703.85113240 Ry
     estimated scf accuracy    <       1.13304102 Ry

     iteration #  5     ecut=    50.00 Ry     beta= 0.60
     Davidson diagonalization with overlap
     ethr =  7.56E-04,  avg # of iterations =  1.4

     total cpu time spent up to now is    11058.1 secs

     total energy              =    -703.74757209 Ry
     Harris-Foulkes estimate   =    -703.75489804 Ry
     estimated scf accuracy    <       0.19697143 Ry

     iteration #  6     ecut=    50.00 Ry     beta= 0.60
     Davidson diagonalization with overlap
     ethr =  2.63E-04,  avg # of iterations =  4.7

     total cpu time spent up to now is    11154.0 secs

     total energy              =    -703.76215986 Ry
     Harris-Foulkes estimate   =    -703.76945854 Ry
     estimated scf accuracy    <       0.16366190 Ry

     iteration #  7     ecut=    50.00 Ry     beta= 0.60
     Davidson diagonalization with overlap
     ethr =  2.18E-04,  avg # of iterations =  1.0

     total cpu time spent up to now is    11224.6 secs

     total energy              =    -703.75683923 Ry
     Harris-Foulkes estimate   =    -703.76367699 Ry
     estimated scf accuracy    <       0.12787811 Ry

     iteration #  8     ecut=    50.00 Ry     beta= 0.60
     Davidson diagonalization with overlap
     ethr =  1.71E-04,  avg # of iterations =  1.0

     total cpu time spent up to now is    11294.8 secs

     total energy              =    -703.75115247 Ry
     Harris-Foulkes estimate   =    -703.75766350 Ry
     estimated scf accuracy    <       0.09442415 Ry

     iteration #  9     ecut=    50.00 Ry     beta= 0.60
     Davidson diagonalization with overlap
     ethr =  1.26E-04,  avg # of iterations =  1.0

     total cpu time spent up to now is    11365.2 secs

     total energy              =    -703.74498918 Ry
     Harris-Foulkes estimate   =    -703.75190323 Ry
     estimated scf accuracy    <       0.06038689 Ry

     iteration # 10     ecut=    50.00 Ry     beta= 0.60
     Davidson diagonalization with overlap
     ethr =  8.05E-05,  avg # of iterations =  1.3

     total cpu time spent up to now is    11436.1 secs

     total energy              =    -703.74035370 Ry
     Harris-Foulkes estimate   =    -703.74631728 Ry
     estimated scf accuracy    <       0.02499540 Ry

     iteration # 11     ecut=    50.00 Ry     beta= 0.60
     Davidson diagonalization with overlap
     ethr =  3.33E-05,  avg # of iterations =  5.4

     total cpu time spent up to now is    11534.2 secs

     total energy              =    -703.74345110 Ry
     Harris-Foulkes estimate   =    -703.74359689 Ry
     estimated scf accuracy    <       0.00046633 Ry

     iteration # 12     ecut=    50.00 Ry     beta= 0.60
     Davidson diagonalization with overlap
     c_bands:  1 eigenvalues not converged
     ethr =  6.22E-07,  avg # of iterations =  7.7

     total cpu time spent up to now is    11677.9 secs

     total energy              =    -703.74365995 Ry
     Harris-Foulkes estimate   =    -703.74367754 Ry
     estimated scf accuracy    <       0.00015492 Ry

     iteration # 13     ecut=    50.00 Ry     beta= 0.60
     Davidson diagonalization with overlap
     ethr =  2.07E-07,  avg # of iterations =  1.0

     total cpu time spent up to now is    11748.0 secs

     total energy              =    -703.74366501 Ry
     Harris-Foulkes estimate   =    -703.74366779 Ry
     estimated scf accuracy    <       0.00006324 Ry

     iteration # 14     ecut=    50.00 Ry     beta= 0.60
     Davidson diagonalization with overlap
     ethr =  8.43E-08,  avg # of iterations =  1.1

     total cpu time spent up to now is    11818.2 secs

     total energy              =    -703.74365720 Ry
     Harris-Foulkes estimate   =    -703.74366672 Ry
     estimated scf accuracy    <       0.00004840 Ry

     iteration # 15     ecut=    50.00 Ry     beta= 0.60
     Davidson diagonalization with overlap
     ethr =  6.45E-08,  avg # of iterations =  3.7

     total cpu time spent up to now is    11908.5 secs

     total energy              =    -703.74366411 Ry
     Harris-Foulkes estimate   =    -703.74366726 Ry
     estimated scf accuracy    <       0.00002615 Ry

     iteration # 16     ecut=    50.00 Ry     beta= 0.60
     Davidson diagonalization with overlap
     ethr =  3.49E-08,  avg # of iterations =  1.0

     total cpu time spent up to now is    11980.9 secs

     total energy              =    -703.74366458 Ry
     Harris-Foulkes estimate   =    -703.74366533 Ry
     estimated scf accuracy    <       0.00000808 Ry

     iteration # 17     ecut=    50.00 Ry     beta= 0.60
     Davidson diagonalization with overlap
     ethr =  1.08E-08,  avg # of iterations =  2.9

     total cpu time spent up to now is    12063.0 secs

     total energy              =    -703.74366490 Ry
     Harris-Foulkes estimate   =    -703.74366511 Ry
     estimated scf accuracy    <       0.00000180 Ry

     iteration # 18     ecut=    50.00 Ry     beta= 0.60
     Davidson diagonalization with overlap
     ethr =  2.40E-09,  avg # of iterations =  3.8

     total cpu time spent up to now is    12178.1 secs

     total energy              =    -703.74366499 Ry
     Harris-Foulkes estimate   =    -703.74366524 Ry
     estimated scf accuracy    <       0.00000145 Ry

     iteration # 19     ecut=    50.00 Ry     beta= 0.60
     Davidson diagonalization with overlap
     ethr =  1.94E-09,  avg # of iterations =  2.0

     total cpu time spent up to now is    12268.9 secs

     total energy              =    -703.74366510 Ry
     Harris-Foulkes estimate   =    -703.74366513 Ry
     estimated scf accuracy    <       0.00000014 Ry

     iteration # 20     ecut=    50.00 Ry     beta= 0.60
     Davidson diagonalization with overlap
     ethr =  1.87E-10,  avg # of iterations =  4.0

     total cpu time spent up to now is    12396.0 secs

     total energy              =    -703.74366513 Ry
     Harris-Foulkes estimate   =    -703.74366514 Ry
     estimated scf accuracy    <       0.00000007 Ry

     iteration # 21     ecut=    50.00 Ry     beta= 0.60
     Davidson diagonalization with overlap
     ethr =  9.43E-11,  avg # of iterations =  1.1

     total cpu time spent up to now is    12482.1 secs

     total energy              =    -703.74366513 Ry
     Harris-Foulkes estimate   =    -703.74366514 Ry
     estimated scf accuracy    <       0.00000001 Ry

     iteration # 22     ecut=    50.00 Ry     beta= 0.60
     Davidson diagonalization with overlap
     ethr =  1.45E-11,  avg # of iterations =  4.0

     total cpu time spent up to now is    12605.4 secs

     total energy              =    -703.74366514 Ry
     Harris-Foulkes estimate   =    -703.74366514 Ry
     estimated scf accuracy    <          2.5E-09 Ry

     iteration # 23     ecut=    50.00 Ry     beta= 0.60
     Davidson diagonalization with overlap
     ethr =  3.37E-12,  avg # of iterations =  1.9

     total cpu time spent up to now is    12699.1 secs

     total energy              =    -703.74366514 Ry
     Harris-Foulkes estimate   =    -703.74366514 Ry
     estimated scf accuracy    <          1.4E-09 Ry

     iteration # 24     ecut=    50.00 Ry     beta= 0.60
     Davidson diagonalization with overlap
     ethr =  1.82E-12,  avg # of iterations =  3.0

     total cpu time spent up to now is    12806.6 secs

     total energy              =    -703.74366514 Ry
     Harris-Foulkes estimate   =    -703.74366514 Ry
     estimated scf accuracy    <          3.0E-10 Ry

     iteration # 25     ecut=    50.00 Ry     beta= 0.60
     Davidson diagonalization with overlap
     ethr =  4.02E-13,  avg # of iterations =  2.4

     total cpu time spent up to now is    12909.6 secs

     total energy              =    -703.74366514 Ry
     Harris-Foulkes estimate   =    -703.74366514 Ry
     estimated scf accuracy    <          1.1E-10 Ry

     iteration # 26     ecut=    50.00 Ry     beta= 0.60
     Davidson diagonalization with overlap
     ethr =  1.53E-13,  avg # of iterations =  2.1

     total cpu time spent up to now is    13002.6 secs

     End of self-consistent calculation

     Number of k-points >= 100: set verbosity='high' to print the bands.

     the Fermi energy is    15.6353 ev

!    total energy              =    -703.74366514 Ry
     Harris-Foulkes estimate   =    -703.74366514 Ry
     estimated scf accuracy    <          5.8E-11 Ry

     The total energy is the sum of the following terms:

     one-electron contribution =    -171.97224632 Ry
     hartree contribution      =     118.01658270 Ry
     xc contribution           =     -98.92646507 Ry
     ewald contribution        =    -550.86076717 Ry
     smearing contrib. (-TS)   =      -0.00076928 Ry

     convergence has been achieved in  26 iterations

     Forces acting on atoms (cartesian axes, Ry/au):

     atom    1 type  2   force =    -0.00660354   -0.00716171    0.00716171
     atom    2 type  1   force =     0.00948726    0.00173421   -0.00173421
     atom    3 type  2   force =    -0.00235091    0.00344692   -0.00344692
     atom    4 type  2   force =     0.00691424    0.00098246   -0.00098246
     atom    5 type  1   force =    -0.00679326   -0.00680814    0.00680814
     atom    6 type  1   force =    -0.00065379    0.00780626   -0.00780626

     Total force =     0.024133     Total SCF correction =     0.000007


     Computing stress (Cartesian axis) and pressure

          total   stress  (Ry/bohr**3)                   (kbar)     P=   -6.24
  -0.00005010   0.00001089  -0.00001089         -7.37      1.60     -1.60
   0.00001089  -0.00003859  -0.00000086          1.60     -5.68     -0.13
  -0.00001089  -0.00000086  -0.00003859         -1.60     -0.13     -5.68


     number of scf cycles    =   4
     number of bfgs steps    =   3

     enthalpy old            =    -703.7375946459 Ry
     enthalpy new            =    -703.7436651368 Ry

     CASE: enthalpy_new < enthalpy_old

     new trust radius        =       0.0108136258 bohr
     new conv_thr            =            1.0E-10 Ry

     new unit-cell volume =    711.24630 a.u.^3 (   105.39583 Ang^3 )
     density =      6.65376 g/cm^3

CELL_PARAMETERS (alat=  1.88972599)
   4.909274040   1.640711944   1.637813747
   1.634492772  -4.912923437   1.634397745
  -1.634492772   1.634397745  -4.912923437

ATOMIC_POSITIONS (angstrom)
Ti       3.257486781  -3.291220111   0.012694420
Nb       3.302498053   0.003971135  -0.003971135
Ti       1.627598290  -1.630582192  -1.647943499
Ti       4.926996570  -1.632403370   1.632403370
Nb       4.891355417  -1.654725941  -1.623799751
Nb      -0.006229584   0.016150645  -3.294676336


     NEW-OLD atomic charge density approx. for the potential
     extrapolated charge   74.71166, renormalised to   75.00000

     total cpu time spent up to now is    13044.9 secs

     Self-consistent Calculation

     iteration #  1     ecut=    50.00 Ry     beta= 0.60
     Davidson diagonalization with overlap
     c_bands:  1 eigenvalues not converged
     ethr =  1.00E-06,  avg # of iterations =  5.0

     total cpu time spent up to now is    13244.4 secs

     total energy              =    -703.73603055 Ry
     Harris-Foulkes estimate   =    -704.21592605 Ry
     estimated scf accuracy    <       0.00740018 Ry

     iteration #  2     ecut=    50.00 Ry     beta= 0.60
     Davidson diagonalization with overlap
     c_bands:  1 eigenvalues not converged
     ethr =  9.87E-06,  avg # of iterations =  5.7

     total cpu time spent up to now is    13416.4 secs

     total energy              =    -703.73311046 Ry
     Harris-Foulkes estimate   =    -703.76178040 Ry
     estimated scf accuracy    <       0.18170968 Ry

     iteration #  3     ecut=    50.00 Ry     beta= 0.60
     Davidson diagonalization with overlap
     ethr =  9.87E-06,  avg # of iterations =  5.1

     total cpu time spent up to now is    13545.6 secs

     total energy              =    -703.74409892 Ry
     Harris-Foulkes estimate   =    -703.74582749 Ry
     estimated scf accuracy    <       0.00513227 Ry

     iteration #  4     ecut=    50.00 Ry     beta= 0.60
     Davidson diagonalization with overlap
     ethr =  6.84E-06,  avg # of iterations =  3.2

     total cpu time spent up to now is    13630.4 secs

     total energy              =    -703.74433237 Ry
     Harris-Foulkes estimate   =    -703.74502585 Ry
     estimated scf accuracy    <       0.00693277 Ry

     iteration #  5     ecut=    50.00 Ry     beta= 0.60
     Davidson diagonalization with overlap
     ethr =  6.84E-06,  avg # of iterations =  1.0

     total cpu time spent up to now is    13700.7 secs

     total energy              =    -703.74449959 Ry
     Harris-Foulkes estimate   =    -703.74462283 Ry
     estimated scf accuracy    <       0.00271812 Ry

     iteration #  6     ecut=    50.00 Ry     beta= 0.60
     Davidson diagonalization with overlap
     ethr =  3.62E-06,  avg # of iterations =  1.2

     total cpu time spent up to now is    13772.9 secs

     total energy              =    -703.74432788 Ry
     Harris-Foulkes estimate   =    -703.74453117 Ry
     estimated scf accuracy    <       0.00207576 Ry

     iteration #  7     ecut=    50.00 Ry     beta= 0.60
     Davidson diagonalization with overlap
     ethr =  2.77E-06,  avg # of iterations =  1.5

     total cpu time spent up to now is    13845.6 secs

     total energy              =    -703.74423891 Ry
     Harris-Foulkes estimate   =    -703.74436785 Ry
     estimated scf accuracy    <       0.00108904 Ry

     iteration #  8     ecut=    50.00 Ry     beta= 0.60
     Davidson diagonalization with overlap
     ethr =  1.45E-06,  avg # of iterations =  2.8

     total cpu time spent up to now is    13925.2 secs

     total energy              =    -703.74420568 Ry
     Harris-Foulkes estimate   =    -703.74428451 Ry
     estimated scf accuracy    <       0.00040954 Ry

     iteration #  9     ecut=    50.00 Ry     beta= 0.60
     Davidson diagonalization with overlap
     ethr =  5.46E-07,  avg # of iterations =  3.1

     total cpu time spent up to now is    14011.1 secs

     total energy              =    -703.74424314 Ry
     Harris-Foulkes estimate   =    -703.74424816 Ry
[...]
     c_bands:  2 eigenvalues not converged
     c_bands:  2 eigenvalues not converged
     c_bands:  2 eigenvalues not converged
     c_bands:  1 eigenvalues not converged
     c_bands:  1 eigenvalues not converged
     c_bands:  2 eigenvalues not converged
     c_bands:  2 eigenvalues not converged
     c_bands:  1 eigenvalues not converged
     c_bands:  1 eigenvalues not converged
     c_bands:  1 eigenvalues not converged
     c_bands:  1 eigenvalues not converged
     c_bands:  1 eigenvalues not converged
     c_bands:  1 eigenvalues not converged
     c_bands:  1 eigenvalues not converged
     c_bands:  1 eigenvalues not converged
     c_bands:  1 eigenvalues not converged
     c_bands:  1 eigenvalues not converged
     c_bands:  1 eigenvalues not converged
     c_bands:  1 eigenvalues not converged
     c_bands:  1 eigenvalues not converged
     c_bands:  1 eigenvalues not converged
     c_bands:  1 eigenvalues not converged
     c_bands:  1 eigenvalues not converged
     c_bands:  1 eigenvalues not converged
     c_bands:  1 eigenvalues not converged
     c_bands:  1 eigenvalues not converged
     c_bands:  1 eigenvalues not converged
     c_bands:  1 eigenvalues not converged
     c_bands:  1 eigenvalues not converged
     c_bands:  1 eigenvalues not converged
     c_bands:  1 eigenvalues not converged
     c_bands:  1 eigenvalues not converged
     c_bands:  1 eigenvalues not converged
     c_bands:  1 eigenvalues not converged
     c_bands:  1 eigenvalues not converged
     c_bands:  1 eigenvalues not converged
     c_bands:  1 eigenvalues not converged
     c_bands:  1 eigenvalues not converged
     c_bands:  1 eigenvalues not converged
     c_bands:  1 eigenvalues not converged
     c_bands:  1 eigenvalues not converged
     c_bands:  1 eigenvalues not converged
     c_bands:  1 eigenvalues not converged
     c_bands:  1 eigenvalues not converged
     c_bands:  1 eigenvalues not converged
     c_bands:  1 eigenvalues not converged
     c_bands:  1 eigenvalues not converged
     c_bands:  1 eigenvalues not converged
     c_bands:  1 eigenvalues not converged
     c_bands:  1 eigenvalues not converged
     c_bands:  1 eigenvalues not converged
     ethr =  1.00E-06,  avg # of iterations = 17.2

     total cpu time spent up to now is    51622.9 secs

     total energy              =    -694.56589939 Ry
     Harris-Foulkes estimate   =    -705.84617611 Ry
     estimated scf accuracy    <      14.37716176 Ry

     iteration #  2     ecut=    50.00 Ry     beta= 0.60
     Davidson diagonalization with overlap
     ethr =  1.00E-02,  avg # of iterations =  5.0

     total cpu time spent up to now is    51741.1 secs

     total energy              =    -700.08376222 Ry
     Harris-Foulkes estimate   =    -719.04142866 Ry
     estimated scf accuracy    <      55.85045508 Ry

     iteration #  3     ecut=    50.00 Ry     beta= 0.60
     Davidson diagonalization with overlap
     ethr =  1.00E-02,  avg # of iterations =  4.1

     total cpu time spent up to now is    51827.0 secs

     total energy              =    -703.88537642 Ry
     Harris-Foulkes estimate   =    -705.44037222 Ry
     estimated scf accuracy    <      12.17291023 Ry

     iteration #  4     ecut=    50.00 Ry     beta= 0.60
     Davidson diagonalization with overlap
     ethr =  1.00E-02,  avg # of iterations =  1.2

     total cpu time spent up to now is    51885.1 secs

     total energy              =    -704.39516421 Ry
     Harris-Foulkes estimate   =    -704.27858480 Ry
     estimated scf accuracy    <       5.31239755 Ry

     iteration #  5     ecut=    50.00 Ry     beta= 0.60
     Davidson diagonalization with overlap
     ethr =  7.08E-03,  avg # of iterations =  1.0

     total cpu time spent up to now is    51942.8 secs

     total energy              =    -704.21856827 Ry
     Harris-Foulkes estimate   =    -704.44040103 Ry
     estimated scf accuracy    <       5.50335552 Ry

     iteration #  6     ecut=    50.00 Ry     beta= 0.60
     Davidson diagonalization with overlap
     ethr =  7.08E-03,  avg # of iterations =  1.0

     total cpu time spent up to now is    52000.5 secs

     total energy              =    -703.72941372 Ry
     Harris-Foulkes estimate   =    -704.25361928 Ry
     estimated scf accuracy    <       4.46360777 Ry

     iteration #  7     ecut=    50.00 Ry     beta= 0.60
     Davidson diagonalization with overlap
     ethr =  5.95E-03,  avg # of iterations =  1.1

     total cpu time spent up to now is    52058.5 secs

     total energy              =    -703.18255260 Ry
     Harris-Foulkes estimate   =    -703.84297769 Ry
     estimated scf accuracy    <       2.34474904 Ry

     iteration #  8     ecut=    50.00 Ry     beta= 0.60
     Davidson diagonalization with overlap
     ethr =  3.13E-03,  avg # of iterations =  4.5

     total cpu time spent up to now is    52154.7 secs

     total energy              =    -704.10775325 Ry
     Harris-Foulkes estimate   =    -704.12730717 Ry
     estimated scf accuracy    <       5.96270410 Ry

     iteration #  9     ecut=    50.00 Ry     beta= 0.60
     Davidson diagonalization with overlap
     ethr =  3.13E-03,  avg # of iterations =  1.0

     total cpu time spent up to now is    52212.5 secs

     total energy              =    -703.83315168 Ry
     Harris-Foulkes estimate   =    -704.12395552 Ry
     estimated scf accuracy    <       5.35042022 Ry

     iteration # 10     ecut=    50.00 Ry     beta= 0.60
     Davidson diagonalization with overlap
     ethr =  3.13E-03,  avg # of iterations =  1.0

     total cpu time spent up to now is    52270.2 secs

     total energy              =    -703.91517038 Ry
     Harris-Foulkes estimate   =    -703.88527031 Ry
     estimated scf accuracy    <       2.35142427 Ry

     iteration # 11     ecut=    50.00 Ry     beta= 0.60
     Davidson diagonalization with overlap
     ethr =  3.13E-03,  avg # of iterations =  1.0

     total cpu time spent up to now is    52328.0 secs

     total energy              =    -704.04331812 Ry
     Harris-Foulkes estimate   =    -703.93137736 Ry
     estimated scf accuracy    <       2.66026010 Ry

     iteration # 12     ecut=    50.00 Ry     beta= 0.60
     Davidson diagonalization with overlap
     ethr =  3.13E-03,  avg # of iterations =  1.0

     total cpu time spent up to now is    52385.9 secs

     total energy              =    -703.07478693 Ry
     Harris-Foulkes estimate   =    -704.06035969 Ry
     estimated scf accuracy    <       4.18078213 Ry

     iteration # 13     ecut=    50.00 Ry     beta= 0.60
     Davidson diagonalization with overlap
     ethr =  3.13E-03,  avg # of iterations =  4.2

     total cpu time spent up to now is    52462.1 secs

     total energy              =    -703.79454819 Ry
     Harris-Foulkes estimate   =    -703.85656549 Ry
     estimated scf accuracy    <       0.99943754 Ry

     iteration # 14     ecut=    50.00 Ry     beta= 0.60
     Davidson diagonalization with overlap
     ethr =  1.33E-03,  avg # of iterations =  1.8

     total cpu time spent up to now is    52522.7 secs

     total energy              =    -703.68493660 Ry
     Harris-Foulkes estimate   =    -703.81210245 Ry
     estimated scf accuracy    <       0.69905890 Ry

     iteration # 15     ecut=    50.00 Ry     beta= 0.60
     Davidson diagonalization with overlap
     ethr =  9.32E-04,  avg # of iterations =  2.4

     total cpu time spent up to now is    52586.9 secs

     total energy              =    -703.73954741 Ry
     Harris-Foulkes estimate   =    -703.74770816 Ry
     estimated scf accuracy    <       0.06341897 Ry

     iteration # 16     ecut=    50.00 Ry     beta= 0.60
     Davidson diagonalization with overlap
     ethr =  8.46E-05,  avg # of iterations =  7.0

     total cpu time spent up to now is    52683.5 secs

     total energy              =    -703.74651244 Ry
     Harris-Foulkes estimate   =    -703.74852707 Ry
     estimated scf accuracy    <       0.01470707 Ry

     iteration # 17     ecut=    50.00 Ry     beta= 0.60
     Davidson diagonalization with overlap
     c_bands:  1 eigenvalues not converged
     c_bands:  1 eigenvalues not converged
     ethr =  1.96E-05,  avg # of iterations =  3.3

     total cpu time spent up to now is    52750.7 secs

     total energy              =    -703.74719148 Ry
     Harris-Foulkes estimate   =    -703.74741041 Ry
     estimated scf accuracy    <       0.00250622 Ry

     iteration # 18     ecut=    50.00 Ry     beta= 0.60
     Davidson diagonalization with overlap
     c_bands:  1 eigenvalues not converged
     ethr =  3.34E-06,  avg # of iterations =  6.4

     total cpu time spent up to now is    52849.7 secs

     total energy              =    -703.74747151 Ry
     Harris-Foulkes estimate   =    -703.74762266 Ry
     estimated scf accuracy    <       0.00129629 Ry

     iteration # 19     ecut=    50.00 Ry     beta= 0.60
     Davidson diagonalization with overlap
     ethr =  1.73E-06,  avg # of iterations =  2.5

     total cpu time spent up to now is    52928.7 secs

     total energy              =    -703.74738318 Ry
     Harris-Foulkes estimate   =    -703.74763300 Ry
     estimated scf accuracy    <       0.00180082 Ry

     iteration # 20     ecut=    50.00 Ry     beta= 0.60
     Davidson diagonalization with overlap
     ethr =  1.73E-06,  avg # of iterations =  1.1

     total cpu time spent up to now is    53002.0 secs

     total energy              =    -703.74742165 Ry
     Harris-Foulkes estimate   =    -703.74748578 Ry
     estimated scf accuracy    <       0.00043722 Ry

     iteration # 21     ecut=    50.00 Ry     beta= 0.60
     Davidson diagonalization with overlap
     ethr =  5.83E-07,  avg # of iterations =  3.1

     total cpu time spent up to now is    53097.5 secs

     total energy              =    -703.74744831 Ry
     Harris-Foulkes estimate   =    -703.74747564 Ry
     estimated scf accuracy    <       0.00016267 Ry

     iteration # 22     ecut=    50.00 Ry     beta= 0.60
     Davidson diagonalization with overlap
     ethr =  2.17E-07,  avg # of iterations =  1.7

     total cpu time spent up to now is    53174.2 secs

     total energy              =    -703.74744891 Ry
     Harris-Foulkes estimate   =    -703.74745965 Ry
     estimated scf accuracy    <       0.00004930 Ry

     iteration # 23     ecut=    50.00 Ry     beta= 0.60
     Davidson diagonalization with overlap
     ethr =  6.57E-08,  avg # of iterations =  3.8

     total cpu time spent up to now is    53276.9 secs

     total energy              =    -703.74745675 Ry
     Harris-Foulkes estimate   =    -703.74746096 Ry
     estimated scf accuracy    <       0.00001928 Ry

     iteration # 24     ecut=    50.00 Ry     beta= 0.60
     Davidson diagonalization with overlap
     ethr =  2.57E-08,  avg # of iterations =  2.9

     total cpu time spent up to now is    53363.5 secs

     total energy              =    -703.74745899 Ry
     Harris-Foulkes estimate   =    -703.74745918 Ry
     estimated scf accuracy    <       0.00000096 Ry

     iteration # 25     ecut=    50.00 Ry     beta= 0.60
     Davidson diagonalization with overlap
     ethr =  1.28E-09,  avg # of iterations =  4.1

     total cpu time spent up to now is    53472.9 secs

     total energy              =    -703.74745932 Ry
     Harris-Foulkes estimate   =    -703.74745937 Ry
     estimated scf accuracy    <       0.00000021 Ry

     iteration # 26     ecut=    50.00 Ry     beta= 0.60
     Davidson diagonalization with overlap
     ethr =  2.84E-10,  avg # of iterations =  2.9

     total cpu time spent up to now is    53565.1 secs

     total energy              =    -703.74745934 Ry
     Harris-Foulkes estimate   =    -703.74745936 Ry
     estimated scf accuracy    <       0.00000008 Ry

     iteration # 27     ecut=    50.00 Ry     beta= 0.60
     Davidson diagonalization with overlap
     ethr =  1.04E-10,  avg # of iterations =  3.1

     total cpu time spent up to now is    53657.2 secs

     total energy              =    -703.74745935 Ry
     Harris-Foulkes estimate   =    -703.74745935 Ry
     estimated scf accuracy    <       0.00000002 Ry

     iteration # 28     ecut=    50.00 Ry     beta= 0.60
     Davidson diagonalization with overlap
     ethr =  2.71E-11,  avg # of iterations =  2.0

     total cpu time spent up to now is    53740.1 secs

     total energy              =    -703.74745935 Ry
     Harris-Foulkes estimate   =    -703.74745935 Ry
     estimated scf accuracy    <          3.9E-09 Ry

     iteration # 29     ecut=    50.00 Ry     beta= 0.60
     Davidson diagonalization with overlap
     ethr =  5.18E-12,  avg # of iterations =  3.2

     total cpu time spent up to now is    53829.7 secs

     total energy              =    -703.74745935 Ry
     Harris-Foulkes estimate   =    -703.74745935 Ry
     estimated scf accuracy    <          4.9E-10 Ry

     iteration # 30     ecut=    50.00 Ry     beta= 0.60
     Davidson diagonalization with overlap
     ethr =  6.55E-13,  avg # of iterations =  3.9

     total cpu time spent up to now is    53937.4 secs

     total energy              =    -703.74745935 Ry
     Harris-Foulkes estimate   =    -703.74745935 Ry
     estimated scf accuracy    <          6.1E-10 Ry

     iteration # 31     ecut=    50.00 Ry     beta= 0.60
     Davidson diagonalization with overlap
     ethr =  6.55E-13,  avg # of iterations =  3.9

     total cpu time spent up to now is    54032.6 secs

     total energy              =    -703.74745935 Ry
     Harris-Foulkes estimate   =    -703.74745935 Ry
     estimated scf accuracy    <          1.1E-09 Ry

     iteration # 32     ecut=    50.00 Ry     beta= 0.60
     Davidson diagonalization with overlap
     ethr =  6.55E-13,  avg # of iterations =  2.1

     total cpu time spent up to now is    54093.6 secs

     total energy              =    -703.74745935 Ry
     Harris-Foulkes estimate   =    -703.74745935 Ry
     estimated scf accuracy    <          4.5E-11 Ry

     iteration # 33     ecut=    50.00 Ry     beta= 0.60
     Davidson diagonalization with overlap
     ethr =  1.00E-13,  avg # of iterations =  4.2

     total cpu time spent up to now is    54176.9 secs

     total energy              =    -703.74745935 Ry
     Harris-Foulkes estimate   =    -703.74745935 Ry
     estimated scf accuracy    <          9.4E-11 Ry

     iteration # 34     ecut=    50.00 Ry     beta= 0.60
     Davidson diagonalization with overlap
     ethr =  1.00E-13,  avg # of iterations =  1.0

     total cpu time spent up to now is    54233.3 secs

     total energy              =    -703.74745935 Ry
     Harris-Foulkes estimate   =    -703.74745935 Ry
     estimated scf accuracy    <          3.8E-11 Ry

     iteration # 35     ecut=    50.00 Ry     beta= 0.60
     Davidson diagonalization with overlap
     ethr =  1.00E-13,  avg # of iterations =  1.0

     total cpu time spent up to now is    54290.4 secs

     total energy              =    -703.74745935 Ry
     Harris-Foulkes estimate   =    -703.74745935 Ry
     estimated scf accuracy    <          2.2E-11 Ry

     iteration # 36     ecut=    50.00 Ry     beta= 0.60
     Davidson diagonalization with overlap
     ethr =  1.00E-13,  avg # of iterations =  1.0

     total cpu time spent up to now is    54346.9 secs

     total energy              =    -703.74745935 Ry
     Harris-Foulkes estimate   =    -703.74745935 Ry
     estimated scf accuracy    <          8.2E-12 Ry

     iteration # 37     ecut=    50.00 Ry     beta= 0.60
     Davidson diagonalization with overlap
     ethr =  1.00E-13,  avg # of iterations =  1.1

     total cpu time spent up to now is    54403.7 secs

     End of self-consistent calculation

     Number of k-points >= 100: set verbosity='high' to print the bands.

     the Fermi energy is    15.6812 ev

!    total energy              =    -703.74745935 Ry
     Harris-Foulkes estimate   =    -703.74745935 Ry
     estimated scf accuracy    <          6.0E-13 Ry

     The total energy is the sum of the following terms:

     one-electron contribution =    -171.68747379 Ry
     hartree contribution      =     118.01935928 Ry
     xc contribution           =     -98.95586834 Ry
     ewald contribution        =    -551.12429388 Ry
     smearing contrib. (-TS)   =       0.00081738 Ry

     convergence has been achieved in  37 iterations

     Forces acting on atoms (cartesian axes, Ry/au):

     atom    1 type  2   force =    -0.00002053   -0.00000609    0.00000609
     atom    2 type  1   force =     0.00002414    0.00000693   -0.00000693
     atom    3 type  2   force =    -0.00001444    0.00000591   -0.00000591
     atom    4 type  2   force =     0.00001015   -0.00000868    0.00000868
     atom    5 type  1   force =     0.00000520   -0.00000209    0.00000209
     atom    6 type  1   force =    -0.00000453    0.00000402   -0.00000402

     Total force =     0.000042     Total SCF correction =     0.000001


     Computing stress (Cartesian axis) and pressure

          total   stress  (Ry/bohr**3)                   (kbar)     P=   -0.84
  -0.00000557  -0.00000021   0.00000021         -0.82     -0.03      0.03
  -0.00000021  -0.00000578   0.00000006         -0.03     -0.85      0.01
   0.00000021   0.00000006  -0.00000578          0.03      0.01     -0.85

 
     init_run     :     74.03s CPU     75.31s WALL (       2 calls)
     electrons    :  52259.17s CPU  53395.99s WALL (      28 calls)
     update_pot   :     57.86s CPU     58.00s WALL (      26 calls)
     forces       :    217.02s CPU    221.49s WALL (      28 calls)
     stress       :    643.92s CPU    656.31s WALL (      28 calls)

     Called by init_run:
     wfcinit      :     70.32s CPU     71.27s WALL (       2 calls)
     potinit      :      1.12s CPU      1.17s WALL (       2 calls)
     hinit0       :      1.96s CPU      2.08s WALL (       2 calls)

     Called by electrons:
     c_bands      :  44545.23s CPU  45409.93s WALL (     555 calls)
     sum_band     :   7489.21s CPU   7636.88s WALL (     555 calls)
     v_of_rho     :     45.46s CPU     45.83s WALL (     572 calls)
     newd         :    180.86s CPU    256.81s WALL (     572 calls)
     mix_rho      :      5.57s CPU      5.60s WALL (     555 calls)

     Called by c_bands:
     init_us_2    :    575.49s CPU    580.01s WALL (  555968 calls)
     cegterg      :  41035.22s CPU  41458.94s WALL (  264180 calls)

     Called by sum_band:
     sum_band:bec :     13.42s CPU     13.95s WALL (  264180 calls)
     addusdens    :    208.57s CPU    277.21s WALL (     555 calls)

     Called by *egterg:
     h_psi        :  30228.80s CPU  30602.75s WALL ( 1054662 calls)
     s_psi        :   1277.76s CPU   1283.50s WALL ( 1054662 calls)
     g_psi        :    198.34s CPU    195.75s WALL (  789530 calls)
     cdiaghg      :   4373.30s CPU   4381.67s WALL ( 1036098 calls)

     Called by h_psi:
     h_psi:pot    :  30113.77s CPU  30486.94s WALL ( 1054662 calls)
     h_psi:calbec :   1356.54s CPU   1361.16s WALL ( 1054662 calls)
     vloc_psi     :  27451.48s CPU  27816.37s WALL ( 1054662 calls)
     add_vuspsi   :   1300.35s CPU   1302.60s WALL ( 1054662 calls)

     General routines
     calbec       :   1972.39s CPU   1978.88s WALL ( 1385482 calls)
     fft          :     30.53s CPU     31.00s WALL (    8145 calls)
     ffts         :      0.99s CPU      1.00s WALL (    1127 calls)
     fftw         :  30261.02s CPU  30688.40s WALL (73035568 calls)
     interpolate  :      2.78s CPU      2.82s WALL (     572 calls)
 
     Parallel routines
     fft_scatt_xy :   5273.17s CPU   5296.35s WALL (73044840 calls)
     fft_scatt_yz :   7372.88s CPU   7475.02s WALL (73044840 calls)
 
     PWSCF        :    14h47m CPU       47h15m WALL

       7h
 
   This run was terminated on:   4:17:34  27Jan2020            

=------------------------------------------------------------------------------=
   JOB DONE.
=------------------------------------------------------------------------------=
