
     Program PWSCF v.6.0 (svn rev. 13079) starts on  9May2018 at 12: 3:19 

     This program is part of the open-source Quantum ESPRESSO suite
     for quantum simulation of materials; please cite
         "P. Giannozzi et al., J. Phys.:Condens. Matter 21 395502 (2009);
          URL http://www.quantum-espresso.org", 
     in publications or presentations arising from this work. More details at
     http://www.quantum-espresso.org/quote

     Parallel version (MPI), running on     4 processors
     R & G space division:  proc/nbgrp/npool/nimage =       4
     Waiting for input...
     Reading input from standard input

     Current dimensions of program PWSCF are:
     Max number of different atomic species (ntypx) = 10
     Max number of k-points (npk) =  40000
     Max angular momentum in pseudopotentials (lmaxx) =  3

     Subspace diagonalization in iterative solution of the eigenvalue problem:
     a serial algorithm will be used


     Parallelization info
     --------------------
     sticks:   dense  smooth     PW     G-vecs:    dense   smooth      PW
     Min         780     312     95                27301     6894    1169
     Max         781     313     96                27302     6895    1170
     Sum        3121    1251    383               109205    27577    4677



     bravais-lattice index     =            0
     lattice parameter (alat)  =       1.8897  a.u.
     unit-cell volume          =     808.3427 (a.u.)^3
     number of atoms/cell      =            6
     number of atomic types    =            2
     number of electrons       =        76.00
     number of Kohn-Sham states=           46
     kinetic-energy cutoff     =      40.0000  Ry
     charge density cutoff     =     400.0000  Ry
     convergence threshold     =      1.0E-10
     mixing beta               =       0.6000
     number of iterations used =            8  plain     mixing
     Exchange-correlation      = SLA  PW   PBE  PBE ( 1  4  3  4 0 0)
     nstep                     =           50


     celldm(1)=   1.889726  celldm(2)=   0.000000  celldm(3)=   0.000000
     celldm(4)=   0.000000  celldm(5)=   0.000000  celldm(6)=   0.000000

     crystal axes: (cart. coord. in units of alat)
               a(1) = (   3.045004   0.000000   4.972461 )  
               a(2) = (  -1.522502   2.637051   4.972461 )  
               a(3) = (  -1.522502  -2.637051   4.972461 )  

     reciprocal axes: (cart. coord. in units 2 pi/alat)
               b(1) = (  0.218938  0.000000  0.067036 )  
               b(2) = ( -0.109469  0.189606  0.067036 )  
               b(3) = ( -0.109469 -0.189606  0.067036 )  


     PseudoPot. # 1 for Nb read from file:
     ./Nb.pbe-nsp-van.UPF
     MD5 check sum: 0a22fc7fb0ba19a08ca5db297a5d2854
     Pseudo is Ultrasoft + core correction, Zval = 13.0
     Generated by new atomic code, or converted to UPF format
     Using radial grid of  887 points,  6 beta functions with: 
                l(1) =   0
                l(2) =   0
                l(3) =   1
                l(4) =   1
                l(5) =   2
                l(6) =   2
     Q(r) pseudized with  6 coefficients,  rinner =    1.000   1.000   1.000
                                                       1.000   1.000

     PseudoPot. # 2 for Ti read from file:
     ./Ti.pbe-sp-van_ak.UPF
     MD5 check sum: f98fea3e8887528921fefa5636a534ca
     Pseudo is Ultrasoft, Zval = 12.0
     Generated by new atomic code, or converted to UPF format
     Using radial grid of  851 points,  6 beta functions with: 
                l(1) =   0
                l(2) =   0
                l(3) =   1
                l(4) =   1
                l(5) =   2
                l(6) =   2
     Q(r) pseudized with  8 coefficients,  rinner =    1.000   1.000   1.000
                                                       1.000   1.000

     atomic species   valence    mass     pseudopotential
        Nb            13.00    92.90638     Nb( 1.00)
        Ti            12.00    47.86700     Ti( 1.00)

      2 Sym. Ops. (no inversion) found ( 1 have fractional translation)



   Cartesian axes

     site n.     atom                  positions (alat units)
         1           Ti  tau(   1) = (   0.0000000   0.0000000   9.9449228  )
         2           Ti  tau(   2) = (   0.0000015  -1.7580350   7.4586921  )
         3           Nb  tau(   3) = (   0.0000000   0.0000000  14.9173841  )
         4           Nb  tau(   4) = (   1.5225036   0.8790162   7.4586921  )
         5           Nb  tau(   5) = (   0.0000000   0.0000000   4.9724614  )
         6           Nb  tau(   6) = (  -1.5225006   0.8790162   7.4586921  )

     number of k points=   476  Marzari-Vanderbilt smearing, width (Ry)=  0.0200

     Number of k-points >= 100: set verbosity='high' to print them.

     Dense  grid:   109205 G-vectors     FFT dimensions: (  72,  72,  72)

     Smooth grid:    27577 G-vectors     FFT dimensions: (  45,  45,  45)

     Estimated max dynamical RAM per process >     313.92Mb

     Estimated total allocated dynamical RAM >    1255.68Mb

     Initial potential from superposition of free atoms

     starting charge   73.98898, renormalised to   76.00000
     Starting wfc are   72 randomized atomic wfcs

     total cpu time spent up to now is       83.3 secs

     per-process dynamical memory:   389.9 Mb

     Self-consistent Calculation

     iteration #  1     ecut=    40.00 Ry     beta=0.60
     Davidson diagonalization with overlap
     ethr =  1.00E-02,  avg # of iterations =  2.1

     total cpu time spent up to now is      258.8 secs

     total energy              =    -681.12668784 Ry
     Harris-Foulkes estimate   =    -707.55330902 Ry
     estimated scf accuracy    <      33.30974269 Ry

     iteration #  2     ecut=    40.00 Ry     beta=0.60
     Davidson diagonalization with overlap
     ethr =  1.00E-02,  avg # of iterations =  7.5

     total cpu time spent up to now is      642.3 secs

     total energy              =    -681.08166810 Ry
     Harris-Foulkes estimate   =    -738.73177404 Ry
     estimated scf accuracy    <     187.16024956 Ry

     iteration #  3     ecut=    40.00 Ry     beta=0.60
     Davidson diagonalization with overlap
     ethr =  1.00E-02,  avg # of iterations =  4.5

     total cpu time spent up to now is      888.6 secs

     total energy              =    -706.58648849 Ry
     Harris-Foulkes estimate   =    -707.29731375 Ry
     estimated scf accuracy    <       9.14872703 Ry

     iteration #  4     ecut=    40.00 Ry     beta=0.60
     Davidson diagonalization with overlap
     ethr =  1.00E-02,  avg # of iterations =  1.0

     total cpu time spent up to now is     1014.5 secs

     total energy              =    -704.93569351 Ry
     Harris-Foulkes estimate   =    -706.61776313 Ry
     estimated scf accuracy    <       7.62533920 Ry

     iteration #  5     ecut=    40.00 Ry     beta=0.60
     Davidson diagonalization with overlap
     ethr =  1.00E-02,  avg # of iterations =  1.3

     total cpu time spent up to now is     1142.3 secs

     total energy              =    -705.40841588 Ry
     Harris-Foulkes estimate   =    -705.11733731 Ry
     estimated scf accuracy    <       3.29028425 Ry

     iteration #  6     ecut=    40.00 Ry     beta=0.60
     Davidson diagonalization with overlap
     ethr =  4.33E-03,  avg # of iterations =  1.2

     total cpu time spent up to now is     1272.4 secs

     total energy              =    -704.48104456 Ry
     Harris-Foulkes estimate   =    -705.45309452 Ry
     estimated scf accuracy    <       3.89928494 Ry

     iteration #  7     ecut=    40.00 Ry     beta=0.60
     Davidson diagonalization with overlap
     ethr =  4.33E-03,  avg # of iterations =  4.6

     total cpu time spent up to now is     1447.4 secs

     total energy              =    -704.89654045 Ry
     Harris-Foulkes estimate   =    -704.92398714 Ry
     estimated scf accuracy    <       0.34685481 Ry

     iteration #  8     ecut=    40.00 Ry     beta=0.60
     Davidson diagonalization with overlap
     ethr =  4.56E-04,  avg # of iterations =  5.0

     total cpu time spent up to now is     1691.6 secs

     total energy              =    -705.05476832 Ry
     Harris-Foulkes estimate   =    -705.04463271 Ry
     estimated scf accuracy    <       2.01493996 Ry

     iteration #  9     ecut=    40.00 Ry     beta=0.60
     Davidson diagonalization with overlap
     ethr =  4.56E-04,  avg # of iterations =  1.0

     total cpu time spent up to now is     1819.2 secs

     total energy              =    -705.04561918 Ry
     Harris-Foulkes estimate   =    -705.06064796 Ry
     estimated scf accuracy    <       2.27155676 Ry

     iteration # 10     ecut=    40.00 Ry     beta=0.60
     Davidson diagonalization with overlap
     ethr =  4.56E-04,  avg # of iterations =  1.0

     total cpu time spent up to now is     1945.7 secs

     total energy              =    -704.85550917 Ry
     Harris-Foulkes estimate   =    -705.04916047 Ry
     estimated scf accuracy    <       2.36257541 Ry

     iteration # 11     ecut=    40.00 Ry     beta=0.60
     Davidson diagonalization with overlap
     ethr =  4.56E-04,  avg # of iterations =  3.4

     total cpu time spent up to now is     2092.8 secs

     total energy              =    -704.88582581 Ry
     Harris-Foulkes estimate   =    -704.91188248 Ry
     estimated scf accuracy    <       0.36699071 Ry

     iteration # 12     ecut=    40.00 Ry     beta=0.60
     Davidson diagonalization with overlap
     ethr =  4.56E-04,  avg # of iterations =  2.4

     total cpu time spent up to now is     2228.7 secs

     total energy              =    -704.87591450 Ry
     Harris-Foulkes estimate   =    -704.89742686 Ry
     estimated scf accuracy    <       0.09673839 Ry

     iteration # 13     ecut=    40.00 Ry     beta=0.60
     Davidson diagonalization with overlap
     ethr =  1.27E-04,  avg # of iterations =  4.7

     total cpu time spent up to now is     2463.2 secs

     total energy              =    -704.88078049 Ry
     Harris-Foulkes estimate   =    -704.91092418 Ry
     estimated scf accuracy    <       0.11039128 Ry

     iteration # 14     ecut=    40.00 Ry     beta=0.60
     Davidson diagonalization with overlap
     ethr =  1.27E-04,  avg # of iterations =  4.4

     total cpu time spent up to now is     2650.5 secs

     total energy              =    -704.89208426 Ry
     Harris-Foulkes estimate   =    -704.91032711 Ry
     estimated scf accuracy    <       0.12129491 Ry

     iteration # 15     ecut=    40.00 Ry     beta=0.60
     Davidson diagonalization with overlap
     ethr =  1.27E-04,  avg # of iterations =  1.2

     total cpu time spent up to now is     2777.4 secs

     total energy              =    -704.89931943 Ry
     Harris-Foulkes estimate   =    -704.89927823 Ry
     estimated scf accuracy    <       0.00406539 Ry

     iteration # 16     ecut=    40.00 Ry     beta=0.60
     Davidson diagonalization with overlap
     ethr =  5.35E-06,  avg # of iterations =  5.0

     total cpu time spent up to now is     3030.0 secs

     total energy              =    -704.90212345 Ry
     Harris-Foulkes estimate   =    -704.90221891 Ry
     estimated scf accuracy    <       0.00118581 Ry

     iteration # 17     ecut=    40.00 Ry     beta=0.60
     Davidson diagonalization with overlap
     ethr =  1.56E-06,  avg # of iterations =  1.0

     total cpu time spent up to now is     3156.3 secs

     total energy              =    -704.90212330 Ry
     Harris-Foulkes estimate   =    -704.90214217 Ry
     estimated scf accuracy    <       0.00048285 Ry

     iteration # 18     ecut=    40.00 Ry     beta=0.60
     Davidson diagonalization with overlap
     ethr =  6.35E-07,  avg # of iterations =  1.6

     total cpu time spent up to now is     3286.4 secs

     total energy              =    -704.90211504 Ry
     Harris-Foulkes estimate   =    -704.90213354 Ry
     estimated scf accuracy    <       0.00032258 Ry

     iteration # 19     ecut=    40.00 Ry     beta=0.60
     Davidson diagonalization with overlap
     ethr =  4.24E-07,  avg # of iterations =  2.9

     total cpu time spent up to now is     3424.9 secs

     total energy              =    -704.90212488 Ry
     Harris-Foulkes estimate   =    -704.90212653 Ry
     estimated scf accuracy    <       0.00013709 Ry

     iteration # 20     ecut=    40.00 Ry     beta=0.60
     Davidson diagonalization with overlap
     ethr =  1.80E-07,  avg # of iterations =  3.7

     total cpu time spent up to now is     3576.5 secs

     total energy              =    -704.90213061 Ry
     Harris-Foulkes estimate   =    -704.90213250 Ry
     estimated scf accuracy    <       0.00006839 Ry

     iteration # 21     ecut=    40.00 Ry     beta=0.60
     Davidson diagonalization with overlap
     ethr =  9.00E-08,  avg # of iterations =  2.1

     total cpu time spent up to now is     3711.0 secs

     total energy              =    -704.90213107 Ry
     Harris-Foulkes estimate   =    -704.90213224 Ry
     estimated scf accuracy    <       0.00004054 Ry

     iteration # 22     ecut=    40.00 Ry     beta=0.60
     Davidson diagonalization with overlap
     ethr =  5.33E-08,  avg # of iterations =  1.8

     total cpu time spent up to now is     3842.8 secs

     total energy              =    -704.90213125 Ry
     Harris-Foulkes estimate   =    -704.90213189 Ry
     estimated scf accuracy    <       0.00002589 Ry

     iteration # 23     ecut=    40.00 Ry     beta=0.60
     Davidson diagonalization with overlap
     ethr =  3.41E-08,  avg # of iterations =  2.0

     total cpu time spent up to now is     3976.1 secs

     total energy              =    -704.90213113 Ry
     Harris-Foulkes estimate   =    -704.90213174 Ry
     estimated scf accuracy    <       0.00001619 Ry

     iteration # 24     ecut=    40.00 Ry     beta=0.60
     Davidson diagonalization with overlap
     ethr =  2.13E-08,  avg # of iterations =  2.3

     total cpu time spent up to now is     4111.3 secs

     total energy              =    -704.90213058 Ry
     Harris-Foulkes estimate   =    -704.90213154 Ry
     estimated scf accuracy    <       0.00000806 Ry

     iteration # 25     ecut=    40.00 Ry     beta=0.60
     Davidson diagonalization with overlap
     ethr =  1.06E-08,  avg # of iterations =  4.0

     total cpu time spent up to now is     4280.8 secs

     total energy              =    -704.90213160 Ry
     Harris-Foulkes estimate   =    -704.90213163 Ry
     estimated scf accuracy    <       0.00000020 Ry

     iteration # 26     ecut=    40.00 Ry     beta=0.60
     Davidson diagonalization with overlap
     ethr =  2.60E-10,  avg # of iterations =  4.6

     total cpu time spent up to now is     4476.4 secs

     total energy              =    -704.90213167 Ry
     Harris-Foulkes estimate   =    -704.90213167 Ry
     estimated scf accuracy    <       0.00000008 Ry

     iteration # 27     ecut=    40.00 Ry     beta=0.60
     Davidson diagonalization with overlap
     ethr =  1.02E-10,  avg # of iterations =  2.0

     total cpu time spent up to now is     4611.2 secs

     total energy              =    -704.90213167 Ry
     Harris-Foulkes estimate   =    -704.90213167 Ry
     estimated scf accuracy    <       0.00000001 Ry

     iteration # 28     ecut=    40.00 Ry     beta=0.60
     Davidson diagonalization with overlap
     ethr =  1.84E-11,  avg # of iterations =  4.1

     total cpu time spent up to now is     4778.6 secs

     total energy              =    -704.90213167 Ry
     Harris-Foulkes estimate   =    -704.90213167 Ry
     estimated scf accuracy    <          9.7E-10 Ry

     iteration # 29     ecut=    40.00 Ry     beta=0.60
     Davidson diagonalization with overlap
     ethr =  1.28E-12,  avg # of iterations =  4.4

     total cpu time spent up to now is     4974.7 secs

     total energy              =    -704.90213167 Ry
     Harris-Foulkes estimate   =    -704.90213167 Ry
     estimated scf accuracy    <          3.7E-10 Ry

     iteration # 30     ecut=    40.00 Ry     beta=0.60
     Davidson diagonalization with overlap
     ethr =  4.91E-13,  avg # of iterations =  1.0

     total cpu time spent up to now is     5101.6 secs

     total energy              =    -704.90213167 Ry
     Harris-Foulkes estimate   =    -704.90213167 Ry
     estimated scf accuracy    <          2.1E-10 Ry

     iteration # 31     ecut=    40.00 Ry     beta=0.60
     Davidson diagonalization with overlap
     ethr =  2.81E-13,  avg # of iterations =  2.4

     total cpu time spent up to now is     5238.2 secs

     End of self-consistent calculation

     Number of k-points >= 100: set verbosity='high' to print the bands.

     the Fermi energy is    14.6654 ev

!    total energy              =    -704.90213167 Ry
     Harris-Foulkes estimate   =    -704.90213167 Ry
     estimated scf accuracy    <          3.2E-11 Ry

     The total energy is the sum of the following terms:

     one-electron contribution =    -177.51397252 Ry
     hartree contribution      =     117.49128060 Ry
     xc contribution           =    -102.16126682 Ry
     ewald contribution        =    -542.71355037 Ry
     smearing contrib. (-TS)   =      -0.00462256 Ry

     convergence has been achieved in  31 iterations

     Forces acting on atoms (Ry/au):

     atom    1 type  2   force =    -0.00101049   -0.00058341    0.00000000
     atom    2 type  2   force =     0.00101052    0.00058343    0.00000000
     atom    3 type  1   force =    -0.00053515    0.00162495    0.00227562
     atom    4 type  1   force =    -0.00113963    0.00127582    0.00227556
     atom    5 type  1   force =     0.00113967   -0.00127593   -0.00227562
     atom    6 type  1   force =     0.00053508   -0.00162485   -0.00227556

     Total force =     0.005928     Total SCF correction =     0.000004


     entering subroutine stress ...

          total   stress  (Ry/bohr**3)                   (kbar)     P= -119.53
  -0.00090914  -0.00000184   0.00000502       -133.74     -0.27      0.74
  -0.00000184  -0.00090702  -0.00000870         -0.27   -133.43     -1.28
   0.00000502  -0.00000870  -0.00062151          0.74     -1.28    -91.43


     BFGS Geometry Optimization

     number of scf cycles    =   1
     number of bfgs steps    =   0

     enthalpy new            =    -704.9021316698 Ry

     new trust radius        =       0.1292431848 bohr
     new conv_thr            =            1.0E-10 Ry

     new unit-cell volume =    760.06112 a.u.^3 (   112.62944 Ang^3 )

CELL_PARAMETERS (alat=  1.88972599)
   2.976419964  -0.001221786   4.895582091
  -1.487394307   2.576242696   4.894434642
  -1.487151884  -2.578266380   4.895582091

ATOMIC_POSITIONS (angstrom)
Ti       0.000726620  -0.002465348   9.790399215
Ti       0.001541760  -1.719491576   7.343181895
Nb       0.001597131  -0.002405329  14.686784094
Nb       1.488206419   0.858050860   7.343984652
Nb       0.001213853  -0.001741473   4.894014337
Nb      -1.486723113   0.856691144   7.341231689


     NEW-OLD atomic charge density approx. for the potential

     Check: negative/imaginary core charge=   -0.000001    0.000000
     extrapolated charge   71.29997, renormalised to   76.00000

     total cpu time spent up to now is     5300.1 secs

     per-process dynamical memory:   414.5 Mb

     Self-consistent Calculation

     iteration #  1     ecut=    40.00 Ry     beta=0.60
     Davidson diagonalization with overlap
     c_bands:  1 eigenvalues not converged
     c_bands:  2 eigenvalues not converged
     c_bands:  2 eigenvalues not converged
     c_bands:  1 eigenvalues not converged
     c_bands:  2 eigenvalues not converged
     c_bands:  2 eigenvalues not converged
     c_bands:  1 eigenvalues not converged
     c_bands:  1 eigenvalues not converged
     c_bands:  1 eigenvalues not converged
     c_bands:  1 eigenvalues not converged
     c_bands:  1 eigenvalues not converged
     c_bands:  1 eigenvalues not converged
     c_bands:  1 eigenvalues not converged
     c_bands:  1 eigenvalues not converged
     c_bands:  1 eigenvalues not converged
     c_bands:  1 eigenvalues not converged
     c_bands:  1 eigenvalues not converged
     c_bands:  1 eigenvalues not converged
     c_bands:  2 eigenvalues not converged
     c_bands:  1 eigenvalues not converged
     c_bands:  2 eigenvalues not converged
     c_bands:  2 eigenvalues not converged
     c_bands:  2 eigenvalues not converged
     c_bands:  1 eigenvalues not converged
     c_bands:  1 eigenvalues not converged
     c_bands:  2 eigenvalues not converged
     c_bands:  2 eigenvalues not converged
     c_bands:  1 eigenvalues not converged
     c_bands:  2 eigenvalues not converged
     c_bands:  1 eigenvalues not converged
     c_bands:  2 eigenvalues not converged
     c_bands:  1 eigenvalues not converged
     c_bands:  1 eigenvalues not converged
     c_bands:  1 eigenvalues not converged
     c_bands:  1 eigenvalues not converged
     c_bands:  2 eigenvalues not converged
     c_bands:  1 eigenvalues not converged
     c_bands:  1 eigenvalues not converged
     c_bands:  1 eigenvalues not converged
     c_bands:  2 eigenvalues not converged
     c_bands:  1 eigenvalues not converged
     c_bands:  1 eigenvalues not converged
     c_bands:  1 eigenvalues not converged
     c_bands:  2 eigenvalues not converged
     c_bands:  1 eigenvalues not converged
     c_bands:  1 eigenvalues not converged
     c_bands:  1 eigenvalues not converged
     c_bands:  2 eigenvalues not converged
     c_bands:  2 eigenvalues not converged
     c_bands:  2 eigenvalues not converged
     c_bands:  2 eigenvalues not converged
     c_bands:  2 eigenvalues not converged
     c_bands:  1 eigenvalues not converged
     c_bands:  1 eigenvalues not converged
     c_bands:  1 eigenvalues not converged
     c_bands:  2 eigenvalues not converged
     c_bands:  1 eigenvalues not converged
     c_bands:  2 eigenvalues not converged
     c_bands:  2 eigenvalues not converged
     c_bands:  2 eigenvalues not converged
     c_bands:  2 eigenvalues not converged
     c_bands:  2 eigenvalues not converged
     c_bands:  1 eigenvalues not converged
     c_bands:  1 eigenvalues not converged
     c_bands:  2 eigenvalues not converged
     c_bands:  1 eigenvalues not converged
     c_bands:  2 eigenvalues not converged
     c_bands:  1 eigenvalues not converged
     c_bands:  1 eigenvalues not converged
     c_bands:  1 eigenvalues not converged
     c_bands:  1 eigenvalues not converged
     c_bands:  2 eigenvalues not converged
     c_bands:  2 eigenvalues not converged
     c_bands:  1 eigenvalues not converged
     c_bands:  1 eigenvalues not converged
     c_bands:  2 eigenvalues not converged
     c_bands:  1 eigenvalues not converged
     c_bands:  1 eigenvalues not converged
     c_bands:  1 eigenvalues not converged
     c_bands:  1 eigenvalues not converged
     c_bands:  1 eigenvalues not converged
     c_bands:  1 eigenvalues not converged
     c_bands:  1 eigenvalues not converged
     c_bands:  1 eigenvalues not converged
     c_bands:  1 eigenvalues not converged
     c_bands:  1 eigenvalues not converged
     c_bands:  1 eigenvalues not converged
     c_bands:  2 eigenvalues not converged
     c_bands:  2 eigenvalues not converged
     c_bands:  2 eigenvalues not converged
     c_bands:  1 eigenvalues not converged
     c_bands:  1 eigenvalues not converged
     c_bands:  1 eigenvalues not converged
     c_bands:  1 eigenvalues not converged
     c_bands:  1 eigenvalues not converged
     c_bands:  1 eigenvalues not converged
     c_bands:  1 eigenvalues not converged
     c_bands:  1 eigenvalues not converged
     c_bands:  1 eigenvalues not converged
     c_bands:  1 eigenvalues not converged
     c_bands:  1 eigenvalues not converged
     c_bands:  1 eigenvalues not converged
     c_bands:  2 eigenvalues not converged
     c_bands:  1 eigenvalues not converged
     c_bands:  1 eigenvalues not converged
     c_bands:  1 eigenvalues not converged
     c_bands:  1 eigenvalues not converged
     c_bands:  1 eigenvalues not converged
     c_bands:  1 eigenvalues not converged
     c_bands:  1 eigenvalues not converged
     c_bands:  1 eigenvalues not converged
     c_bands:  1 eigenvalues not converged
     c_bands:  1 eigenvalues not converged
     c_bands:  1 eigenvalues not converged
     c_bands:  1 eigenvalues not converged
     c_bands:  1 eigenvalues not converged
     c_bands:  1 eigenvalues not converged
     c_bands:  1 eigenvalues not converged
     c_bands:  1 eigenvalues not converged
     c_bands:  1 eigenvalues not converged
     c_bands:  1 eigenvalues not converged
     c_bands:  1 eigenvalues not converged
     c_bands:  1 eigenvalues not converged
     c_bands:  1 eigenvalues not converged
     c_bands:  1 eigenvalues not converged
     c_bands:  1 eigenvalues not converged
     c_bands:  1 eigenvalues not converged
     c_bands:  1 eigenvalues not converged
     c_bands:  1 eigenvalues not converged
     c_bands:  1 eigenvalues not converged
     c_bands:  1 eigenvalues not converged
     c_bands:  1 eigenvalues not converged
     c_bands:  1 eigenvalues not converged
     ethr =  1.00E-06,  avg # of iterations = 16.6

     total cpu time spent up to now is     6024.6 secs

     total energy              =    -697.93060072 Ry
     Harris-Foulkes estimate   =    -712.35286643 Ry
     estimated scf accuracy    <       7.58789568 Ry

     iteration #  2     ecut=    40.00 Ry     beta=0.60
     Davidson diagonalization with overlap
     ethr =  9.98E-03,  avg # of iterations =  5.5

     total cpu time spent up to now is     6306.3 secs

     total energy              =    -705.45303410 Ry
     Harris-Foulkes estimate   =    -714.17806581 Ry
     estimated scf accuracy    <      24.47950645 Ry

     iteration #  3     ecut=    40.00 Ry     beta=0.60
     Davidson diagonalization with overlap
     ethr =  9.98E-03,  avg # of iterations =  2.2

     total cpu time spent up to now is     6472.0 secs

     total energy              =    -704.91239411 Ry
     Harris-Foulkes estimate   =    -706.69357431 Ry
     estimated scf accuracy    <       7.10301497 Ry

     iteration #  4     ecut=    40.00 Ry     beta=0.60
     Davidson diagonalization with overlap
     ethr =  9.35E-03,  avg # of iterations =  1.1

     total cpu time spent up to now is     6599.5 secs

     total energy              =    -704.33033837 Ry
     Harris-Foulkes estimate   =    -705.07707259 Ry
     estimated scf accuracy    <       3.66936567 Ry

     iteration #  5     ecut=    40.00 Ry     beta=0.60
     Davidson diagonalization with overlap
     ethr =  4.83E-03,  avg # of iterations =  4.2

     total cpu time spent up to now is     6797.3 secs

     total energy              =    -704.85311389 Ry
     Harris-Foulkes estimate   =    -705.03049193 Ry
     estimated scf accuracy    <       0.58458032 Ry

     iteration #  6     ecut=    40.00 Ry     beta=0.60
     Davidson diagonalization with overlap
     ethr =  7.69E-04,  avg # of iterations =  4.4

     total cpu time spent up to now is     7021.5 secs

     total energy              =    -705.12054453 Ry
     Harris-Foulkes estimate   =    -705.16118734 Ry
     estimated scf accuracy    <       1.40632255 Ry

     iteration #  7     ecut=    40.00 Ry     beta=0.60
     Davidson diagonalization with overlap
     ethr =  7.69E-04,  avg # of iterations =  1.0

     total cpu time spent up to now is     7149.6 secs

     total energy              =    -704.96626760 Ry
     Harris-Foulkes estimate   =    -705.12164950 Ry
     estimated scf accuracy    <       1.29704775 Ry

     iteration #  8     ecut=    40.00 Ry     beta=0.60
     Davidson diagonalization with overlap
     ethr =  7.69E-04,  avg # of iterations =  1.0

     total cpu time spent up to now is     7277.9 secs

     total energy              =    -704.94176400 Ry
     Harris-Foulkes estimate   =    -704.97961120 Ry
     estimated scf accuracy    <       0.80489346 Ry

     iteration #  9     ecut=    40.00 Ry     beta=0.60
     Davidson diagonalization with overlap
     ethr =  7.69E-04,  avg # of iterations =  1.3

     total cpu time spent up to now is     7414.1 secs

     total energy              =    -704.82275476 Ry
     Harris-Foulkes estimate   =    -704.95067258 Ry
     estimated scf accuracy    <       0.59122437 Ry

     iteration # 10     ecut=    40.00 Ry     beta=0.60
     Davidson diagonalization with overlap
     ethr =  7.69E-04,  avg # of iterations =  4.4

     total cpu time spent up to now is     7610.3 secs

     total energy              =    -704.95589712 Ry
     Harris-Foulkes estimate   =    -704.95015634 Ry
     estimated scf accuracy    <       0.24337747 Ry

     iteration # 11     ecut=    40.00 Ry     beta=0.60
     Davidson diagonalization with overlap
     ethr =  3.20E-04,  avg # of iterations =  1.5

     total cpu time spent up to now is     7740.9 secs

     total energy              =    -704.92904301 Ry
     Harris-Foulkes estimate   =    -704.95801682 Ry
     estimated scf accuracy    <       0.33031107 Ry

     iteration # 12     ecut=    40.00 Ry     beta=0.60
     Davidson diagonalization with overlap
     ethr =  3.20E-04,  avg # of iterations =  1.0

     total cpu time spent up to now is     7867.7 secs

     total energy              =    -704.93125025 Ry
     Harris-Foulkes estimate   =    -704.93525695 Ry
     estimated scf accuracy    <       0.09956849 Ry

     iteration # 13     ecut=    40.00 Ry     beta=0.60
     Davidson diagonalization with overlap
     ethr =  1.31E-04,  avg # of iterations =  1.9

     total cpu time spent up to now is     8000.7 secs

     total energy              =    -704.92919951 Ry
     Harris-Foulkes estimate   =    -704.93318656 Ry
     estimated scf accuracy    <       0.05322699 Ry

     iteration # 14     ecut=    40.00 Ry     beta=0.60
     Davidson diagonalization with overlap
     ethr =  7.00E-05,  avg # of iterations =  2.7

     total cpu time spent up to now is     8139.3 secs

     total energy              =    -704.92912401 Ry
     Harris-Foulkes estimate   =    -704.93094232 Ry
     estimated scf accuracy    <       0.01445722 Ry

     iteration # 15     ecut=    40.00 Ry     beta=0.60
     Davidson diagonalization with overlap
     ethr =  1.90E-05,  avg # of iterations =  4.7

     total cpu time spent up to now is     8337.8 secs

     total energy              =    -704.93166542 Ry
     Harris-Foulkes estimate   =    -704.93165284 Ry
     estimated scf accuracy    <       0.00098475 Ry

     iteration # 16     ecut=    40.00 Ry     beta=0.60
     Davidson diagonalization with overlap
     ethr =  1.30E-06,  avg # of iterations =  2.9

     total cpu time spent up to now is     8484.3 secs

     total energy              =    -704.93176420 Ry
     Harris-Foulkes estimate   =    -704.93170669 Ry
     estimated scf accuracy    <       0.00130463 Ry

     iteration # 17     ecut=    40.00 Ry     beta=0.60
     Davidson diagonalization with overlap
     ethr =  1.30E-06,  avg # of iterations =  1.0

     total cpu time spent up to now is     8611.3 secs

     total energy              =    -704.93144126 Ry
     Harris-Foulkes estimate   =    -704.93178328 Ry
     estimated scf accuracy    <       0.00184118 Ry

     iteration # 18     ecut=    40.00 Ry     beta=0.60
     Davidson diagonalization with overlap
     ethr =  1.30E-06,  avg # of iterations =  3.2

     total cpu time spent up to now is     8758.6 secs

     total energy              =    -704.93155888 Ry
     Harris-Foulkes estimate   =    -704.93156762 Ry
     estimated scf accuracy    <       0.00004250 Ry

     iteration # 19     ecut=    40.00 Ry     beta=0.60
     Davidson diagonalization with overlap
     ethr =  5.59E-08,  avg # of iterations =  4.9

     total cpu time spent up to now is     8995.0 secs

     total energy              =    -704.93157954 Ry
     Harris-Foulkes estimate   =    -704.93158243 Ry
     estimated scf accuracy    <       0.00003029 Ry

     iteration # 20     ecut=    40.00 Ry     beta=0.60
     Davidson diagonalization with overlap
     ethr =  3.99E-08,  avg # of iterations =  1.0

     total cpu time spent up to now is     9125.5 secs

     total energy              =    -704.93157906 Ry
     Harris-Foulkes estimate   =    -704.93158031 Ry
     estimated scf accuracy    <       0.00000982 Ry

     iteration # 21     ecut=    40.00 Ry     beta=0.60
     Davidson diagonalization with overlap
     ethr =  1.29E-08,  avg # of iterations =  3.2

     total cpu time spent up to now is     9284.1 secs

     total energy              =    -704.93157998 Ry
     Harris-Foulkes estimate   =    -704.93158004 Ry
     estimated scf accuracy    <       0.00000049 Ry

     iteration # 22     ecut=    40.00 Ry     beta=0.60
     Davidson diagonalization with overlap
     ethr =  6.40E-10,  avg # of iterations =  3.2

     total cpu time spent up to now is     9446.3 secs

     total energy              =    -704.93158004 Ry
     Harris-Foulkes estimate   =    -704.93158004 Ry
     estimated scf accuracy    <       0.00000009 Ry

     iteration # 23     ecut=    40.00 Ry     beta=0.60
     Davidson diagonalization with overlap
     ethr =  1.23E-10,  avg # of iterations =  4.1

     total cpu time spent up to now is     9630.3 secs

     total energy              =    -704.93158004 Ry
     Harris-Foulkes estimate   =    -704.93158006 Ry
     estimated scf accuracy    <       0.00000017 Ry

     iteration # 24     ecut=    40.00 Ry     beta=0.60
     Davidson diagonalization with overlap
     ethr =  1.23E-10,  avg # of iterations =  1.1

     total cpu time spent up to now is     9757.3 secs

     total energy              =    -704.93158004 Ry
     Harris-Foulkes estimate   =    -704.93158004 Ry
     estimated scf accuracy    <       0.00000006 Ry

     iteration # 25     ecut=    40.00 Ry     beta=0.60
     Davidson diagonalization with overlap
     ethr =  7.27E-11,  avg # of iterations =  3.7

     total cpu time spent up to now is     9923.1 secs

     total energy              =    -704.93158004 Ry
     Harris-Foulkes estimate   =    -704.93158004 Ry
     estimated scf accuracy    <          1.9E-09 Ry

     iteration # 26     ecut=    40.00 Ry     beta=0.60
     Davidson diagonalization with overlap
     ethr =  2.50E-12,  avg # of iterations =  3.3

     total cpu time spent up to now is    10087.7 secs

     total energy              =    -704.93158004 Ry
     Harris-Foulkes estimate   =    -704.93158004 Ry
     estimated scf accuracy    <          3.5E-10 Ry

     iteration # 27     ecut=    40.00 Ry     beta=0.60
     Davidson diagonalization with overlap
     ethr =  4.65E-13,  avg # of iterations =  4.0

     total cpu time spent up to now is    10264.0 secs

     End of self-consistent calculation

     Number of k-points >= 100: set verbosity='high' to print the bands.

     the Fermi energy is    15.7614 ev

!    total energy              =    -704.93158004 Ry
     Harris-Foulkes estimate   =    -704.93158004 Ry
     estimated scf accuracy    <          2.8E-11 Ry

     The total energy is the sum of the following terms:

     one-electron contribution =    -161.21807638 Ry
     hartree contribution      =     112.76304614 Ry
     xc contribution           =    -102.50312833 Ry
     ewald contribution        =    -553.96988912 Ry
     smearing contrib. (-TS)   =      -0.00353236 Ry

     convergence has been achieved in  27 iterations

     Forces acting on atoms (Ry/au):

     atom    1 type  2   force =    -0.00194889   -0.00112519    0.00000000
     atom    2 type  2   force =     0.00194860    0.00112502   -0.00000000
     atom    3 type  1   force =    -0.00060003    0.00323633    0.00166034
     atom    4 type  1   force =    -0.00250230    0.00213740    0.00165997
     atom    5 type  1   force =     0.00250273   -0.00213781   -0.00166034
     atom    6 type  1   force =     0.00059989   -0.00323576   -0.00165997

     Total force =     0.008030     Total SCF correction =     0.000009


     entering subroutine stress ...

          total   stress  (Ry/bohr**3)                   (kbar)     P=  -49.03
  -0.00044112  -0.00000131   0.00000453        -64.89     -0.19      0.67
  -0.00000131  -0.00043960  -0.00000785         -0.19    -64.67     -1.16
   0.00000453  -0.00000785  -0.00011923          0.67     -1.16    -17.54


     number of scf cycles    =   2
     number of bfgs steps    =   1

     enthalpy old            =    -704.9021316698 Ry
     enthalpy new            =    -704.9315800434 Ry

     CASE: enthalpy_new < enthalpy_old

     new trust radius        =       0.1069841675 bohr
     new conv_thr            =            1.0E-10 Ry

     new unit-cell volume =    726.85901 a.u.^3 (   107.70939 Ang^3 )

CELL_PARAMETERS (alat=  1.88972599)
   2.919637474  -0.003044111   4.869071096
  -1.457722064   2.524848868   4.866175772
  -1.457182459  -2.530002467   4.869071096

ATOMIC_POSITIONS (angstrom)
Ti       0.000976622  -0.006723000   9.736211977
Ti       0.004726252  -1.687792415   7.303124091
Nb       0.003944689  -0.004608542  14.606982837
Nb       1.458594119   0.840696588   7.304823501
Nb       0.004291831  -0.005209809   4.865441116
Nb      -1.455963807   0.834942665   7.298529357


     NEW-OLD atomic charge density approx. for the potential

     Check: negative/imaginary core charge=   -0.000001    0.000000
     extrapolated charge   72.62027, renormalised to   76.00000

     total cpu time spent up to now is    10327.5 secs

     per-process dynamical memory:   414.5 Mb

     Self-consistent Calculation

     iteration #  1     ecut=    40.00 Ry     beta=0.60
     Davidson diagonalization with overlap
     c_bands:  1 eigenvalues not converged
     c_bands:  1 eigenvalues not converged
     c_bands:  1 eigenvalues not converged
     c_bands:  1 eigenvalues not converged
     c_bands:  1 eigenvalues not converged
     c_bands:  1 eigenvalues not converged
     c_bands:  1 eigenvalues not converged
     c_bands:  1 eigenvalues not converged
     c_bands:  1 eigenvalues not converged
     c_bands:  1 eigenvalues not converged
     c_bands:  1 eigenvalues not converged
     c_bands:  1 eigenvalues not converged
     c_bands:  1 eigenvalues not converged
     c_bands:  1 eigenvalues not converged
     c_bands:  1 eigenvalues not converged
     c_bands:  1 eigenvalues not converged
     c_bands:  1 eigenvalues not converged
     c_bands:  2 eigenvalues not converged
     c_bands:  1 eigenvalues not converged
     c_bands:  2 eigenvalues not converged
     c_bands:  1 eigenvalues not converged
     c_bands:  1 eigenvalues not converged
     c_bands:  1 eigenvalues not converged
     c_bands:  1 eigenvalues not converged
     c_bands:  1 eigenvalues not converged
     c_bands:  1 eigenvalues not converged
     c_bands:  1 eigenvalues not converged
     c_bands:  1 eigenvalues not converged
     c_bands:  1 eigenvalues not converged
     c_bands:  1 eigenvalues not converged
     c_bands:  1 eigenvalues not converged
     c_bands:  1 eigenvalues not converged
     c_bands:  1 eigenvalues not converged
     c_bands:  1 eigenvalues not converged
     c_bands:  1 eigenvalues not converged
     c_bands:  1 eigenvalues not converged
     c_bands:  1 eigenvalues not converged
     c_bands:  1 eigenvalues not converged
     c_bands:  1 eigenvalues not converged
     c_bands:  1 eigenvalues not converged
     c_bands:  1 eigenvalues not converged
     c_bands:  1 eigenvalues not converged
     c_bands:  1 eigenvalues not converged
     c_bands:  1 eigenvalues not converged
     c_bands:  1 eigenvalues not converged
     c_bands:  1 eigenvalues not converged
     c_bands:  1 eigenvalues not converged
     c_bands:  1 eigenvalues not converged
     c_bands:  1 eigenvalues not converged
     c_bands:  1 eigenvalues not converged
     c_bands:  1 eigenvalues not converged
     c_bands:  2 eigenvalues not converged
     c_bands:  1 eigenvalues not converged
     c_bands:  1 eigenvalues not converged
     c_bands:  1 eigenvalues not converged
     c_bands:  2 eigenvalues not converged
     c_bands:  2 eigenvalues not converged
     c_bands:  2 eigenvalues not converged
     c_bands:  1 eigenvalues not converged
     c_bands:  1 eigenvalues not converged
     c_bands:  1 eigenvalues not converged
     c_bands:  1 eigenvalues not converged
     c_bands:  1 eigenvalues not converged
     c_bands:  1 eigenvalues not converged
     c_bands:  2 eigenvalues not converged
     c_bands:  2 eigenvalues not converged
     c_bands:  1 eigenvalues not converged
     c_bands:  1 eigenvalues not converged
     c_bands:  1 eigenvalues not converged
     c_bands:  2 eigenvalues not converged
     c_bands:  1 eigenvalues not converged
     c_bands:  1 eigenvalues not converged
     c_bands:  2 eigenvalues not converged
     c_bands:  1 eigenvalues not converged
     c_bands:  1 eigenvalues not converged
     c_bands:  1 eigenvalues not converged
     c_bands:  1 eigenvalues not converged
     c_bands:  1 eigenvalues not converged
     c_bands:  1 eigenvalues not converged
     c_bands:  1 eigenvalues not converged
     c_bands:  1 eigenvalues not converged
     c_bands:  2 eigenvalues not converged
     c_bands:  1 eigenvalues not converged
     c_bands:  1 eigenvalues not converged
     c_bands:  1 eigenvalues not converged
     c_bands:  1 eigenvalues not converged
     c_bands:  1 eigenvalues not converged
     c_bands:  1 eigenvalues not converged
     c_bands:  1 eigenvalues not converged
     c_bands:  2 eigenvalues not converged
     c_bands:  1 eigenvalues not converged
     c_bands:  1 eigenvalues not converged
     c_bands:  1 eigenvalues not converged
     c_bands:  1 eigenvalues not converged
     c_bands:  1 eigenvalues not converged
     c_bands:  2 eigenvalues not converged
     c_bands:  1 eigenvalues not converged
     c_bands:  1 eigenvalues not converged
     c_bands:  2 eigenvalues not converged
     c_bands:  1 eigenvalues not converged
     c_bands:  1 eigenvalues not converged
     c_bands:  1 eigenvalues not converged
     c_bands:  2 eigenvalues not converged
     c_bands:  1 eigenvalues not converged
     c_bands:  1 eigenvalues not converged
     c_bands:  1 eigenvalues not converged
     c_bands:  1 eigenvalues not converged
     c_bands:  1 eigenvalues not converged
     c_bands:  1 eigenvalues not converged
     c_bands:  2 eigenvalues not converged
     c_bands:  1 eigenvalues not converged
     c_bands:  1 eigenvalues not converged
     c_bands:  1 eigenvalues not converged
     c_bands:  2 eigenvalues not converged
     c_bands:  1 eigenvalues not converged
     c_bands:  1 eigenvalues not converged
     c_bands:  1 eigenvalues not converged
     c_bands:  1 eigenvalues not converged
     c_bands:  1 eigenvalues not converged
     c_bands:  1 eigenvalues not converged
     c_bands:  1 eigenvalues not converged
     c_bands:  1 eigenvalues not converged
     c_bands:  2 eigenvalues not converged
     c_bands:  1 eigenvalues not converged
     c_bands:  1 eigenvalues not converged
     c_bands:  1 eigenvalues not converged
     c_bands:  1 eigenvalues not converged
     c_bands:  1 eigenvalues not converged
     c_bands:  2 eigenvalues not converged
     c_bands:  1 eigenvalues not converged
     c_bands:  1 eigenvalues not converged
     c_bands:  1 eigenvalues not converged
     c_bands:  1 eigenvalues not converged
     c_bands:  1 eigenvalues not converged
     c_bands:  1 eigenvalues not converged
     c_bands:  1 eigenvalues not converged
     c_bands:  1 eigenvalues not converged
     ethr =  1.00E-06,  avg # of iterations = 15.3

     total cpu time spent up to now is    11055.9 secs

     total energy              =    -702.77105501 Ry
     Harris-Foulkes estimate   =    -709.81986765 Ry
     estimated scf accuracy    <       2.23591938 Ry

     iteration #  2     ecut=    40.00 Ry     beta=0.60
     Davidson diagonalization with overlap
     ethr =  2.94E-03,  avg # of iterations =  6.0

     total cpu time spent up to now is    11394.5 secs

     total energy              =    -704.83102564 Ry
     Harris-Foulkes estimate   =    -708.33284865 Ry
     estimated scf accuracy    <      11.47133412 Ry

     iteration #  3     ecut=    40.00 Ry     beta=0.60
     Davidson diagonalization with overlap
     ethr =  2.94E-03,  avg # of iterations =  4.2

     total cpu time spent up to now is    11617.0 secs

     total energy              =    -704.94892378 Ry
     Harris-Foulkes estimate   =    -705.43707695 Ry
     estimated scf accuracy    <       2.44355597 Ry

     iteration #  4     ecut=    40.00 Ry     beta=0.60
     Davidson diagonalization with overlap
     ethr =  2.94E-03,  avg # of iterations =  1.2

     total cpu time spent up to now is    11748.6 secs

     total energy              =    -704.85921633 Ry
     Harris-Foulkes estimate   =    -704.99845661 Ry
     estimated scf accuracy    <       1.18981970 Ry

     iteration #  5     ecut=    40.00 Ry     beta=0.60
     Davidson diagonalization with overlap
     ethr =  1.57E-03,  avg # of iterations =  3.6

     total cpu time spent up to now is    11910.0 secs

     total energy              =    -704.96531843 Ry
     Harris-Foulkes estimate   =    -704.94838402 Ry
     estimated scf accuracy    <       0.15917131 Ry

     iteration #  6     ecut=    40.00 Ry     beta=0.60
     Davidson diagonalization with overlap
     ethr =  2.09E-04,  avg # of iterations =  5.0

     total cpu time spent up to now is    12105.2 secs

     total energy              =    -704.96211994 Ry
     Harris-Foulkes estimate   =    -704.98073747 Ry
     estimated scf accuracy    <       0.26265133 Ry

     iteration #  7     ecut=    40.00 Ry     beta=0.60
     Davidson diagonalization with overlap
     ethr =  2.09E-04,  avg # of iterations =  1.0

     total cpu time spent up to now is    12236.6 secs

     total energy              =    -704.95265086 Ry
     Harris-Foulkes estimate   =    -704.96349128 Ry
     estimated scf accuracy    <       0.19522031 Ry

     iteration #  8     ecut=    40.00 Ry     beta=0.60
     Davidson diagonalization with overlap
     ethr =  2.09E-04,  avg # of iterations =  1.0

     total cpu time spent up to now is    12368.5 secs

     total energy              =    -704.92167138 Ry
     Harris-Foulkes estimate   =    -704.95383107 Ry
     estimated scf accuracy    <       0.13924928 Ry

     iteration #  9     ecut=    40.00 Ry     beta=0.60
     Davidson diagonalization with overlap
     ethr =  1.83E-04,  avg # of iterations =  3.9

     total cpu time spent up to now is    12524.5 secs

     total energy              =    -704.93487892 Ry
     Harris-Foulkes estimate   =    -704.93401005 Ry
     estimated scf accuracy    <       0.00247377 Ry

     iteration # 10     ecut=    40.00 Ry     beta=0.60
     Davidson diagonalization with overlap
     ethr =  3.25E-06,  avg # of iterations =  6.0

     total cpu time spent up to now is    12844.0 secs

     total energy              =    -704.93772878 Ry
     Harris-Foulkes estimate   =    -704.93857042 Ry
     estimated scf accuracy    <       0.00191838 Ry

     iteration # 11     ecut=    40.00 Ry     beta=0.60
     Davidson diagonalization with overlap
     ethr =  2.52E-06,  avg # of iterations =  5.2

     total cpu time spent up to now is    13087.7 secs

     total energy              =    -704.93822935 Ry
     Harris-Foulkes estimate   =    -704.93853727 Ry
     estimated scf accuracy    <       0.00297411 Ry

     iteration # 12     ecut=    40.00 Ry     beta=0.60
     Davidson diagonalization with overlap
     ethr =  2.52E-06,  avg # of iterations =  1.0

     total cpu time spent up to now is    13218.5 secs

     total energy              =    -704.93798722 Ry
     Harris-Foulkes estimate   =    -704.93828148 Ry
     estimated scf accuracy    <       0.00116252 Ry

     iteration # 13     ecut=    40.00 Ry     beta=0.60
     Davidson diagonalization with overlap
     ethr =  1.53E-06,  avg # of iterations =  4.4

     total cpu time spent up to now is    13424.1 secs

     total energy              =    -704.93827137 Ry
     Harris-Foulkes estimate   =    -704.93833964 Ry
     estimated scf accuracy    <       0.00097136 Ry

     iteration # 14     ecut=    40.00 Ry     beta=0.60
     Davidson diagonalization with overlap
     ethr =  1.28E-06,  avg # of iterations =  1.0

     total cpu time spent up to now is    13554.8 secs

     total energy              =    -704.93823578 Ry
     Harris-Foulkes estimate   =    -704.93828155 Ry
     estimated scf accuracy    <       0.00047571 Ry

     iteration # 15     ecut=    40.00 Ry     beta=0.60
     Davidson diagonalization with overlap
     ethr =  6.26E-07,  avg # of iterations =  2.7

     total cpu time spent up to now is    13700.8 secs

     total energy              =    -704.93824999 Ry
     Harris-Foulkes estimate   =    -704.93825779 Ry
     estimated scf accuracy    <       0.00004987 Ry

     iteration # 16     ecut=    40.00 Ry     beta=0.60
     Davidson diagonalization with overlap
     ethr =  6.56E-08,  avg # of iterations =  4.1

     total cpu time spent up to now is    13886.5 secs

     total energy              =    -704.93825858 Ry
     Harris-Foulkes estimate   =    -704.93825898 Ry
     estimated scf accuracy    <       0.00000214 Ry

     iteration # 17     ecut=    40.00 Ry     beta=0.60
     Davidson diagonalization with overlap
     ethr =  2.82E-09,  avg # of iterations =  3.4

     total cpu time spent up to now is    14049.4 secs

     total energy              =    -704.93825887 Ry
     Harris-Foulkes estimate   =    -704.93825888 Ry
     estimated scf accuracy    <       0.00000003 Ry

     iteration # 18     ecut=    40.00 Ry     beta=0.60
     Davidson diagonalization with overlap
     ethr =  4.34E-11,  avg # of iterations =  5.3

     total cpu time spent up to now is    14336.7 secs

     total energy              =    -704.93825891 Ry
     Harris-Foulkes estimate   =    -704.93825897 Ry
     estimated scf accuracy    <       0.00000083 Ry

     iteration # 19     ecut=    40.00 Ry     beta=0.60
     Davidson diagonalization with overlap
     ethr =  4.34E-11,  avg # of iterations =  4.1

     total cpu time spent up to now is    14551.6 secs

     total energy              =    -704.93825890 Ry
     Harris-Foulkes estimate   =    -704.93825893 Ry
     estimated scf accuracy    <       0.00000027 Ry

     iteration # 20     ecut=    40.00 Ry     beta=0.60
     Davidson diagonalization with overlap
     ethr =  4.34E-11,  avg # of iterations =  4.0

     total cpu time spent up to now is    14718.7 secs

     total energy              =    -704.93825890 Ry
     Harris-Foulkes estimate   =    -704.93825891 Ry
     estimated scf accuracy    <       0.00000006 Ry

     iteration # 21     ecut=    40.00 Ry     beta=0.60
     Davidson diagonalization with overlap
     ethr =  4.34E-11,  avg # of iterations =  2.7

     total cpu time spent up to now is    14864.0 secs

     total energy              =    -704.93825890 Ry
     Harris-Foulkes estimate   =    -704.93825890 Ry
     estimated scf accuracy    <       0.00000002 Ry

     iteration # 22     ecut=    40.00 Ry     beta=0.60
     Davidson diagonalization with overlap
     ethr =  2.15E-11,  avg # of iterations =  3.3

     total cpu time spent up to now is    15020.7 secs

     total energy              =    -704.93825890 Ry
     Harris-Foulkes estimate   =    -704.93825890 Ry
     estimated scf accuracy    <          1.2E-09 Ry

     iteration # 23     ecut=    40.00 Ry     beta=0.60
     Davidson diagonalization with overlap
     ethr =  1.53E-12,  avg # of iterations =  4.3

     total cpu time spent up to now is    15228.3 secs

     total energy              =    -704.93825890 Ry
     Harris-Foulkes estimate   =    -704.93825890 Ry
     estimated scf accuracy    <          6.7E-10 Ry

     iteration # 24     ecut=    40.00 Ry     beta=0.60
     Davidson diagonalization with overlap
     ethr =  8.79E-13,  avg # of iterations =  3.0

     total cpu time spent up to now is    15372.8 secs

     End of self-consistent calculation

     Number of k-points >= 100: set verbosity='high' to print the bands.

     the Fermi energy is    16.5879 ev

!    total energy              =    -704.93825890 Ry
     Harris-Foulkes estimate   =    -704.93825890 Ry
     estimated scf accuracy    <          3.8E-12 Ry

     The total energy is the sum of the following terms:

     one-electron contribution =    -149.31730159 Ry
     hartree contribution      =     109.40682857 Ry
     xc contribution           =    -102.76896073 Ry
     ewald contribution        =    -562.25600469 Ry
     smearing contrib. (-TS)   =      -0.00282047 Ry

     convergence has been achieved in  24 iterations

     Forces acting on atoms (Ry/au):

     atom    1 type  2   force =    -0.00235022   -0.00135690    0.00000000
     atom    2 type  2   force =     0.00235034    0.00135697   -0.00000000
     atom    3 type  1   force =    -0.00046079    0.00406482    0.00103366
     atom    4 type  1   force =    -0.00328998    0.00243155    0.00103374
     atom    5 type  1   force =     0.00328985   -0.00243147   -0.00103366
     atom    6 type  1   force =     0.00046080   -0.00406498   -0.00103374

     Total force =     0.009271     Total SCF correction =     0.000002


     entering subroutine stress ...

          total   stress  (Ry/bohr**3)                   (kbar)     P=   12.70
  -0.00001972   0.00000012   0.00000468         -2.90      0.02      0.69
   0.00000012  -0.00001985  -0.00000810          0.02     -2.92     -1.19
   0.00000468  -0.00000810   0.00029852          0.69     -1.19     43.91


     number of scf cycles    =   3
     number of bfgs steps    =   2

     enthalpy old            =    -704.9315800434 Ry
     enthalpy new            =    -704.9382589033 Ry

     CASE: enthalpy_new < enthalpy_old

     new trust radius        =       0.0321525708 bohr
     new conv_thr            =            1.0E-10 Ry

     new unit-cell volume =    728.10672 a.u.^3 (   107.89428 Ang^3 )

CELL_PARAMETERS (alat=  1.88972599)
   2.914053046  -0.004046464   4.898429612
  -1.454068620   2.518520918   4.894476491
  -1.453522182  -2.525667387   4.898429612

ATOMIC_POSITIONS (angstrom)
Ti       0.000950000  -0.009400792   9.794223810
Ti       0.006772707  -1.685054678   7.346985566
Nb       0.005429973  -0.005570839  14.694623965
Nb       1.454738586   0.838647639   7.348955778
Nb       0.006506823  -0.007435998   4.893823656
Nb      -1.451775866   0.829636877   7.341062233


     NEW-OLD atomic charge density approx. for the potential

     Check: negative/imaginary core charge=   -0.000001    0.000000
     extrapolated charge   76.12679, renormalised to   76.00000

     total cpu time spent up to now is    15437.6 secs

     per-process dynamical memory:   414.5 Mb

     Self-consistent Calculation

     iteration #  1     ecut=    40.00 Ry     beta=0.60
     Davidson diagonalization with overlap
     c_bands:  1 eigenvalues not converged
     ethr =  1.00E-06,  avg # of iterations =  4.9

     total cpu time spent up to now is    15843.0 secs

     total energy              =    -704.93847952 Ry
     Harris-Foulkes estimate   =    -704.76232041 Ry
     estimated scf accuracy    <       0.00100038 Ry

     iteration #  2     ecut=    40.00 Ry     beta=0.60
     Davidson diagonalization with overlap
     c_bands:  1 eigenvalues not converged
     c_bands:  2 eigenvalues not converged
     c_bands:  1 eigenvalues not converged
     c_bands:  1 eigenvalues not converged
     c_bands:  1 eigenvalues not converged
     c_bands:  1 eigenvalues not converged
     c_bands:  1 eigenvalues not converged
     c_bands:  2 eigenvalues not converged
     c_bands:  1 eigenvalues not converged
     c_bands:  1 eigenvalues not converged
     c_bands:  1 eigenvalues not converged
     c_bands:  1 eigenvalues not converged
     c_bands:  1 eigenvalues not converged
     c_bands:  1 eigenvalues not converged
     c_bands:  1 eigenvalues not converged
     ethr =  1.32E-06,  avg # of iterations =  6.7

     total cpu time spent up to now is    16204.5 secs

     total energy              =    -704.93788748 Ry
     Harris-Foulkes estimate   =    -704.94212444 Ry
     estimated scf accuracy    <       0.02890592 Ry

     iteration #  3     ecut=    40.00 Ry     beta=0.60
     Davidson diagonalization with overlap
     ethr =  1.32E-06,  avg # of iterations =  5.1

     total cpu time spent up to now is    16606.2 secs

     total energy              =    -704.93963353 Ry
     Harris-Foulkes estimate   =    -704.93980037 Ry
     estimated scf accuracy    <       0.00049423 Ry

     iteration #  4     ecut=    40.00 Ry     beta=0.60
     Davidson diagonalization with overlap
     ethr =  6.50E-07,  avg # of iterations =  1.8

     total cpu time spent up to now is    16748.9 secs

     total energy              =    -704.93958976 Ry
     Harris-Foulkes estimate   =    -704.93966827 Ry
     estimated scf accuracy    <       0.00031147 Ry

     iteration #  5     ecut=    40.00 Ry     beta=0.60
     Davidson diagonalization with overlap
     ethr =  4.10E-07,  avg # of iterations =  2.1

     total cpu time spent up to now is    16908.8 secs

     total energy              =    -704.93960824 Ry
     Harris-Foulkes estimate   =    -704.93961852 Ry
     estimated scf accuracy    <       0.00007736 Ry

     iteration #  6     ecut=    40.00 Ry     beta=0.60
     Davidson diagonalization with overlap
     ethr =  1.02E-07,  avg # of iterations =  2.5

     total cpu time spent up to now is    17052.7 secs

     total energy              =    -704.93960876 Ry
     Harris-Foulkes estimate   =    -704.93961613 Ry
     estimated scf accuracy    <       0.00006032 Ry

     iteration #  7     ecut=    40.00 Ry     beta=0.60
     Davidson diagonalization with overlap
     ethr =  7.94E-08,  avg # of iterations =  2.8

     total cpu time spent up to now is    17203.0 secs

     total energy              =    -704.93961295 Ry
     Harris-Foulkes estimate   =    -704.93961338 Ry
     estimated scf accuracy    <       0.00000248 Ry

     iteration #  8     ecut=    40.00 Ry     beta=0.60
     Davidson diagonalization with overlap
     ethr =  3.26E-09,  avg # of iterations =  4.9

     total cpu time spent up to now is    17428.5 secs

     total energy              =    -704.93961386 Ry
     Harris-Foulkes estimate   =    -704.93961403 Ry
     estimated scf accuracy    <       0.00000140 Ry

     iteration #  9     ecut=    40.00 Ry     beta=0.60
     Davidson diagonalization with overlap
     ethr =  1.84E-09,  avg # of iterations =  1.0

     total cpu time spent up to now is    17561.4 secs

     total energy              =    -704.93961368 Ry
     Harris-Foulkes estimate   =    -704.93961391 Ry
     estimated scf accuracy    <       0.00000091 Ry

     iteration # 10     ecut=    40.00 Ry     beta=0.60
     Davidson diagonalization with overlap
     ethr =  1.20E-09,  avg # of iterations =  3.4

     total cpu time spent up to now is    17724.2 secs

     total energy              =    -704.93961377 Ry
     Harris-Foulkes estimate   =    -704.93961378 Ry
     estimated scf accuracy    <       0.00000003 Ry

     iteration # 11     ecut=    40.00 Ry     beta=0.60
     Davidson diagonalization with overlap
     ethr =  3.85E-11,  avg # of iterations =  5.0

     total cpu time spent up to now is    17971.9 secs

     total energy              =    -704.93961379 Ry
     Harris-Foulkes estimate   =    -704.93961379 Ry
     estimated scf accuracy    <       0.00000007 Ry

     iteration # 12     ecut=    40.00 Ry     beta=0.60
     Davidson diagonalization with overlap
     ethr =  3.85E-11,  avg # of iterations =  1.0

     total cpu time spent up to now is    18105.8 secs

     total energy              =    -704.93961378 Ry
     Harris-Foulkes estimate   =    -704.93961379 Ry
     estimated scf accuracy    <       0.00000003 Ry

     iteration # 13     ecut=    40.00 Ry     beta=0.60
     Davidson diagonalization with overlap
     ethr =  3.78E-11,  avg # of iterations =  3.0

     total cpu time spent up to now is    18265.7 secs

     total energy              =    -704.93961379 Ry
     Harris-Foulkes estimate   =    -704.93961379 Ry
     estimated scf accuracy    <          3.7E-10 Ry

     iteration # 14     ecut=    40.00 Ry     beta=0.60
     Davidson diagonalization with overlap
     ethr =  4.82E-13,  avg # of iterations =  4.5

     total cpu time spent up to now is    18475.6 secs

     End of self-consistent calculation

     Number of k-points >= 100: set verbosity='high' to print the bands.

     the Fermi energy is    16.5485 ev

!    total energy              =    -704.93961379 Ry
     Harris-Foulkes estimate   =    -704.93961379 Ry
     estimated scf accuracy    <          2.0E-11 Ry

     The total energy is the sum of the following terms:

     one-electron contribution =    -149.84027859 Ry
     hartree contribution      =     109.56988888 Ry
     xc contribution           =    -102.76064341 Ry
     ewald contribution        =    -561.90572877 Ry
     smearing contrib. (-TS)   =      -0.00285189 Ry

     convergence has been achieved in  14 iterations

     Forces acting on atoms (Ry/au):

     atom    1 type  2   force =    -0.00197449   -0.00113997    0.00000000
     atom    2 type  2   force =     0.00197480    0.00114015   -0.00000000
     atom    3 type  1   force =    -0.00028702    0.00360638    0.00102478
     atom    4 type  1   force =    -0.00298036    0.00205254    0.00102545
     atom    5 type  1   force =     0.00297970   -0.00205176   -0.00102478
     atom    6 type  1   force =     0.00028737   -0.00360733   -0.00102545

     Total force =     0.008183     Total SCF correction =     0.000013


     entering subroutine stress ...

          total   stress  (Ry/bohr**3)                   (kbar)     P=    9.42
  -0.00003069   0.00000094   0.00000535         -4.51      0.14      0.79
   0.00000094  -0.00003178  -0.00000927          0.14     -4.68     -1.36
   0.00000535  -0.00000927   0.00025465          0.79     -1.36     37.46


     number of scf cycles    =   4
     number of bfgs steps    =   3

     enthalpy old            =    -704.9382589033 Ry
     enthalpy new            =    -704.9396137857 Ry

     CASE: enthalpy_new < enthalpy_old


     WARNING: bfgs curvature condition failed, Theta= 0.906
     new trust radius        =       0.0479840400 bohr
     new conv_thr            =            1.0E-10 Ry

     new unit-cell volume =    728.51787 a.u.^3 (   107.95521 Ang^3 )

CELL_PARAMETERS (alat=  1.88972599)
   2.903184672  -0.005898383   4.942598789
  -1.446901108   2.506106424   4.936594292
  -1.446484186  -2.517181059   4.942598789

ATOMIC_POSITIONS (angstrom)
Ti       0.001379701  -0.014290556   9.881194580
Ti       0.010193355  -1.679941282   7.412897435
Nb       0.008460339  -0.008132406  14.826178570
Nb       1.447803996   0.834186947   7.415282769
Nb       0.010253135  -0.011237619   4.936210589
Nb      -1.443788355   0.820006842   7.404507605


     NEW-OLD atomic charge density approx. for the potential

     Check: negative/imaginary core charge=   -0.000001    0.000000
     extrapolated charge   76.04176, renormalised to   76.00000

     total cpu time spent up to now is    18542.0 secs

     per-process dynamical memory:   414.5 Mb

     Self-consistent Calculation

     iteration #  1     ecut=    40.00 Ry     beta=0.60
     Davidson diagonalization with overlap
     c_bands:  1 eigenvalues not converged
     c_bands:  1 eigenvalues not converged
     c_bands:  1 eigenvalues not converged
     c_bands:  1 eigenvalues not converged
     c_bands:  1 eigenvalues not converged
     c_bands:  1 eigenvalues not converged
     c_bands:  1 eigenvalues not converged
     c_bands:  1 eigenvalues not converged
     ethr =  1.00E-06,  avg # of iterations =  6.3

     total cpu time spent up to now is    18967.9 secs

     total energy              =    -704.94128177 Ry
     Harris-Foulkes estimate   =    -704.88286191 Ry
     estimated scf accuracy    <       0.00020861 Ry

     iteration #  2     ecut=    40.00 Ry     beta=0.60
     Davidson diagonalization with overlap
     ethr =  2.74E-07,  avg # of iterations =  5.3

     total cpu time spent up to now is    19275.1 secs

     total energy              =    -704.94121292 Ry
     Harris-Foulkes estimate   =    -704.94156166 Ry
     estimated scf accuracy    <       0.00187214 Ry

     iteration #  3     ecut=    40.00 Ry     beta=0.60
     Davidson diagonalization with overlap
     ethr =  2.74E-07,  avg # of iterations =  4.4

     total cpu time spent up to now is    19505.9 secs

     total energy              =    -704.94136983 Ry
     Harris-Foulkes estimate   =    -704.94141578 Ry
     estimated scf accuracy    <       0.00015406 Ry

     iteration #  4     ecut=    40.00 Ry     beta=0.60
     Davidson diagonalization with overlap
     ethr =  2.03E-07,  avg # of iterations =  2.8

     total cpu time spent up to now is    19660.8 secs

     total energy              =    -704.94138908 Ry
     Harris-Foulkes estimate   =    -704.94139108 Ry
     estimated scf accuracy    <       0.00000901 Ry

     iteration #  5     ecut=    40.00 Ry     beta=0.60
     Davidson diagonalization with overlap
     ethr =  1.19E-08,  avg # of iterations =  4.2

     total cpu time spent up to now is    19859.1 secs

     total energy              =    -704.94138787 Ry
     Harris-Foulkes estimate   =    -704.94139332 Ry
     estimated scf accuracy    <       0.00003239 Ry

     iteration #  6     ecut=    40.00 Ry     beta=0.60
     Davidson diagonalization with overlap
     ethr =  1.19E-08,  avg # of iterations =  4.0

     total cpu time spent up to now is    20040.0 secs

     total energy              =    -704.94139041 Ry
     Harris-Foulkes estimate   =    -704.94139218 Ry
     estimated scf accuracy    <       0.00001402 Ry

     iteration #  7     ecut=    40.00 Ry     beta=0.60
     Davidson diagonalization with overlap
     ethr =  1.19E-08,  avg # of iterations =  1.0

     total cpu time spent up to now is    20173.5 secs

     total energy              =    -704.94139096 Ry
     Harris-Foulkes estimate   =    -704.94139112 Ry
     estimated scf accuracy    <       0.00000098 Ry

     iteration #  8     ecut=    40.00 Ry     beta=0.60
     Davidson diagonalization with overlap
     ethr =  1.29E-09,  avg # of iterations =  4.3

     total cpu time spent up to now is    20369.9 secs

     total energy              =    -704.94139118 Ry
     Harris-Foulkes estimate   =    -704.94139137 Ry
     estimated scf accuracy    <       0.00000124 Ry

     iteration #  9     ecut=    40.00 Ry     beta=0.60
     Davidson diagonalization with overlap
     ethr =  1.29E-09,  avg # of iterations =  2.3

     total cpu time spent up to now is    20508.1 secs

     total energy              =    -704.94139124 Ry
     Harris-Foulkes estimate   =    -704.94139128 Ry
     estimated scf accuracy    <       0.00000052 Ry

     iteration # 10     ecut=    40.00 Ry     beta=0.60
     Davidson diagonalization with overlap
     ethr =  6.85E-10,  avg # of iterations =  2.9

     total cpu time spent up to now is    20654.7 secs

     total energy              =    -704.94139125 Ry
     Harris-Foulkes estimate   =    -704.94139126 Ry
     estimated scf accuracy    <       0.00000012 Ry

     iteration # 11     ecut=    40.00 Ry     beta=0.60
     Davidson diagonalization with overlap
     ethr =  1.59E-10,  avg # of iterations =  2.9

     total cpu time spent up to now is    20799.6 secs

     total energy              =    -704.94139125 Ry
     Harris-Foulkes estimate   =    -704.94139126 Ry
     estimated scf accuracy    <       0.00000002 Ry

     iteration # 12     ecut=    40.00 Ry     beta=0.60
     Davidson diagonalization with overlap
     ethr =  3.19E-11,  avg # of iterations =  4.0

     total cpu time spent up to now is    20984.1 secs

     total energy              =    -704.94139126 Ry
     Harris-Foulkes estimate   =    -704.94139126 Ry
     estimated scf accuracy    <          5.2E-09 Ry

     iteration # 13     ecut=    40.00 Ry     beta=0.60
     Davidson diagonalization with overlap
     ethr =  6.90E-12,  avg # of iterations =  1.4

     total cpu time spent up to now is    21116.0 secs

     total energy              =    -704.94139126 Ry
     Harris-Foulkes estimate   =    -704.94139126 Ry
     estimated scf accuracy    <          8.5E-10 Ry

     iteration # 14     ecut=    40.00 Ry     beta=0.60
     Davidson diagonalization with overlap
     ethr =  1.12E-12,  avg # of iterations =  4.0

     total cpu time spent up to now is    21311.4 secs

     total energy              =    -704.94139126 Ry
     Harris-Foulkes estimate   =    -704.94139126 Ry
     estimated scf accuracy    <          2.9E-10 Ry

     iteration # 15     ecut=    40.00 Ry     beta=0.60
     Davidson diagonalization with overlap
     ethr =  3.76E-13,  avg # of iterations =  1.0

     total cpu time spent up to now is    21442.3 secs

     total energy              =    -704.94139126 Ry
     Harris-Foulkes estimate   =    -704.94139126 Ry
     estimated scf accuracy    <          1.0E-10 Ry

     iteration # 16     ecut=    40.00 Ry     beta=0.60
     Davidson diagonalization with overlap
     ethr =  1.33E-13,  avg # of iterations =  3.3

     total cpu time spent up to now is    21605.1 secs

     End of self-consistent calculation

     Number of k-points >= 100: set verbosity='high' to print the bands.

     the Fermi energy is    16.5269 ev

!    total energy              =    -704.94139126 Ry
     Harris-Foulkes estimate   =    -704.94139126 Ry
     estimated scf accuracy    <          9.2E-12 Ry

     The total energy is the sum of the following terms:

     one-electron contribution =    -150.14236303 Ry
     hartree contribution      =     109.69319700 Ry
     xc contribution           =    -102.76193420 Ry
     ewald contribution        =    -561.72743660 Ry
     smearing contrib. (-TS)   =      -0.00285443 Ry

     convergence has been achieved in  16 iterations

     Forces acting on atoms (Ry/au):

     atom    1 type  2   force =    -0.00136949   -0.00079068    0.00000000
     atom    2 type  2   force =     0.00136947    0.00079067   -0.00000000
     atom    3 type  1   force =     0.00002209    0.00288990    0.00102149
     atom    4 type  1   force =    -0.00251378    0.00142586    0.00102152
     atom    5 type  1   force =     0.00251377   -0.00142582   -0.00102149
     atom    6 type  1   force =    -0.00002206   -0.00288993   -0.00102152

     Total force =     0.006526     Total SCF correction =     0.000001


     entering subroutine stress ...

          total   stress  (Ry/bohr**3)                   (kbar)     P=    7.57
  -0.00002574   0.00000204   0.00000640         -3.79      0.30      0.94
   0.00000204  -0.00002809  -0.00001108          0.30     -4.13     -1.63
   0.00000640  -0.00001108   0.00020814          0.94     -1.63     30.62


     number of scf cycles    =   5
     number of bfgs steps    =   4

     enthalpy old            =    -704.9396137857 Ry
     enthalpy new            =    -704.9413912588 Ry

     CASE: enthalpy_new < enthalpy_old

     new trust radius        =       0.0713618398 bohr
     new conv_thr            =            1.0E-10 Ry

     new unit-cell volume =    728.78767 a.u.^3 (   107.99519 Ang^3 )

CELL_PARAMETERS (alat=  1.88972599)
   2.887029758  -0.009234371   5.009067342
  -1.435450901   2.486274084   4.999183102
  -1.435517678  -2.504858489   5.009067342

ATOMIC_POSITIONS (angstrom)
Ti       0.003091700  -0.022942807  10.011545191
Ti       0.015625618  -1.673224066   7.511953643
Nb       0.014490575  -0.014238868  15.023574294
Nb       1.437905675   0.826114960   7.514915746
Nb       0.016328970  -0.017423061   4.999516088
Nb      -1.431224089   0.804345633   7.499107301


     NEW-OLD atomic charge density approx. for the potential

     Check: negative/imaginary core charge=   -0.000001    0.000000
     extrapolated charge   76.02739, renormalised to   76.00000

     total cpu time spent up to now is    21672.2 secs

     per-process dynamical memory:   401.9 Mb

     Self-consistent Calculation

     iteration #  1     ecut=    40.00 Ry     beta=0.60
     Davidson diagonalization with overlap
     c_bands:  2 eigenvalues not converged
     c_bands:  1 eigenvalues not converged
     c_bands:  1 eigenvalues not converged
     c_bands:  1 eigenvalues not converged
     c_bands:  1 eigenvalues not converged
     c_bands:  1 eigenvalues not converged
     c_bands:  1 eigenvalues not converged
     c_bands:  1 eigenvalues not converged
     c_bands:  1 eigenvalues not converged
     c_bands:  1 eigenvalues not converged
     c_bands:  1 eigenvalues not converged
     c_bands:  1 eigenvalues not converged
     c_bands:  1 eigenvalues not converged
     ethr =  1.00E-06,  avg # of iterations =  8.4

     total cpu time spent up to now is    22171.0 secs

     total energy              =    -704.94331431 Ry
     Harris-Foulkes estimate   =    -704.90490758 Ry
     estimated scf accuracy    <       0.00036835 Ry

     iteration #  2     ecut=    40.00 Ry     beta=0.60
     Davidson diagonalization with overlap
     c_bands:  1 eigenvalues not converged
     ethr =  4.85E-07,  avg # of iterations =  4.1

     total cpu time spent up to now is    22369.5 secs

     total energy              =    -704.94329659 Ry
     Harris-Foulkes estimate   =    -704.94340022 Ry
     estimated scf accuracy    <       0.00019060 Ry

     iteration #  3     ecut=    40.00 Ry     beta=0.60
     Davidson diagonalization with overlap
     ethr =  2.51E-07,  avg # of iterations =  4.8

     total cpu time spent up to now is    22608.7 secs

     total energy              =    -704.94321991 Ry
     Harris-Foulkes estimate   =    -704.94352430 Ry
     estimated scf accuracy    <       0.00178921 Ry

     iteration #  4     ecut=    40.00 Ry     beta=0.60
     Davidson diagonalization with overlap
     ethr =  2.51E-07,  avg # of iterations =  4.2

     total cpu time spent up to now is    22812.8 secs

     total energy              =    -704.94337528 Ry
     Harris-Foulkes estimate   =    -704.94338084 Ry
     estimated scf accuracy    <       0.00002401 Ry

     iteration #  5     ecut=    40.00 Ry     beta=0.60
     Davidson diagonalization with overlap
     ethr =  3.16E-08,  avg # of iterations =  3.8

     total cpu time spent up to now is    22984.5 secs

     total energy              =    -704.94337413 Ry
     Harris-Foulkes estimate   =    -704.94338176 Ry
     estimated scf accuracy    <       0.00005064 Ry

     iteration #  6     ecut=    40.00 Ry     beta=0.60
     Davidson diagonalization with overlap
     ethr =  3.16E-08,  avg # of iterations =  3.1

     total cpu time spent up to now is    23125.7 secs

     total energy              =    -704.94337825 Ry
     Harris-Foulkes estimate   =    -704.94337865 Ry
     estimated scf accuracy    <       0.00000248 Ry

     iteration #  7     ecut=    40.00 Ry     beta=0.60
     Davidson diagonalization with overlap
     ethr =  3.26E-09,  avg # of iterations =  4.1

     total cpu time spent up to now is    23311.1 secs

     total energy              =    -704.94337861 Ry
     Harris-Foulkes estimate   =    -704.94337899 Ry
     estimated scf accuracy    <       0.00000186 Ry

     iteration #  8     ecut=    40.00 Ry     beta=0.60
     Davidson diagonalization with overlap
     ethr =  2.44E-09,  avg # of iterations =  3.5

     total cpu time spent up to now is    23469.6 secs

     total energy              =    -704.94337876 Ry
     Harris-Foulkes estimate   =    -704.94337892 Ry
     estimated scf accuracy    <       0.00000091 Ry

     iteration #  9     ecut=    40.00 Ry     beta=0.60
     Davidson diagonalization with overlap
     ethr =  1.20E-09,  avg # of iterations =  2.0

     total cpu time spent up to now is    23605.4 secs

     total energy              =    -704.94337883 Ry
     Harris-Foulkes estimate   =    -704.94337884 Ry
     estimated scf accuracy    <       0.00000003 Ry

     iteration # 10     ecut=    40.00 Ry     beta=0.60
     Davidson diagonalization with overlap
     ethr =  3.74E-11,  avg # of iterations =  4.7

     total cpu time spent up to now is    23824.1 secs

     total energy              =    -704.94337885 Ry
     Harris-Foulkes estimate   =    -704.94337885 Ry
     estimated scf accuracy    <       0.00000002 Ry

     iteration # 11     ecut=    40.00 Ry     beta=0.60
     Davidson diagonalization with overlap
     ethr =  2.60E-11,  avg # of iterations =  1.0

     total cpu time spent up to now is    23950.3 secs

     total energy              =    -704.94337885 Ry
     Harris-Foulkes estimate   =    -704.94337885 Ry
     estimated scf accuracy    <          4.2E-09 Ry

     iteration # 12     ecut=    40.00 Ry     beta=0.60
     Davidson diagonalization with overlap
     ethr =  5.49E-12,  avg # of iterations =  3.5

     total cpu time spent up to now is    24128.8 secs

     total energy              =    -704.94337885 Ry
     Harris-Foulkes estimate   =    -704.94337885 Ry
     estimated scf accuracy    <          8.0E-10 Ry

     iteration # 13     ecut=    40.00 Ry     beta=0.60
     Davidson diagonalization with overlap
     ethr =  1.05E-12,  avg # of iterations =  1.3

     total cpu time spent up to now is    24260.6 secs

     total energy              =    -704.94337885 Ry
     Harris-Foulkes estimate   =    -704.94337885 Ry
     estimated scf accuracy    <          2.3E-10 Ry

     iteration # 14     ecut=    40.00 Ry     beta=0.60
     Davidson diagonalization with overlap
     ethr =  3.05E-13,  avg # of iterations =  3.0

     total cpu time spent up to now is    24416.4 secs

     End of self-consistent calculation

     Number of k-points >= 100: set verbosity='high' to print the bands.

     the Fermi energy is    16.5044 ev

!    total energy              =    -704.94337885 Ry
     Harris-Foulkes estimate   =    -704.94337885 Ry
     estimated scf accuracy    <          2.5E-11 Ry

     The total energy is the sum of the following terms:

     one-electron contribution =    -150.58725441 Ry
     hartree contribution      =     109.90347150 Ry
     xc contribution           =    -102.76972153 Ry
     ewald contribution        =    -561.48710630 Ry
     smearing contrib. (-TS)   =      -0.00276811 Ry

     convergence has been achieved in  14 iterations

     Forces acting on atoms (Ry/au):

     atom    1 type  2   force =    -0.00039617   -0.00022873    0.00000000
     atom    2 type  2   force =     0.00039595    0.00022860   -0.00000000
     atom    3 type  1   force =     0.00054001    0.00172665    0.00106874
     atom    4 type  1   force =    -0.00176490    0.00039520    0.00106846
     atom    5 type  1   force =     0.00176532   -0.00039567   -0.00106874
     atom    6 type  1   force =    -0.00054020   -0.00172605   -0.00106846

     Total force =     0.004251     Total SCF correction =     0.000003


     entering subroutine stress ...

          total   stress  (Ry/bohr**3)                   (kbar)     P=    5.77
  -0.00001023   0.00000321   0.00000797         -1.50      0.47      1.17
   0.00000321  -0.00001394  -0.00001381          0.47     -2.05     -2.03
   0.00000797  -0.00001381   0.00014176          1.17     -2.03     20.85


     number of scf cycles    =   6
     number of bfgs steps    =   5

     enthalpy old            =    -704.9413912588 Ry
     enthalpy new            =    -704.9433788482 Ry

     CASE: enthalpy_new < enthalpy_old

     new trust radius        =       0.1056658437 bohr
     new conv_thr            =            1.0E-10 Ry

     new unit-cell volume =    729.73699 a.u.^3 (   108.13586 Ang^3 )

[...]
     c_bands:  1 eigenvalues not converged
     c_bands:  1 eigenvalues not converged
     c_bands:  2 eigenvalues not converged
     c_bands:  1 eigenvalues not converged
     c_bands:  1 eigenvalues not converged
     c_bands:  2 eigenvalues not converged
     c_bands:  2 eigenvalues not converged
     c_bands:  1 eigenvalues not converged
     ethr =  1.00E-06,  avg # of iterations = 16.2

     total cpu time spent up to now is   150618.0 secs

     total energy              =    -704.95328676 Ry
     Harris-Foulkes estimate   =    -704.45118414 Ry
     estimated scf accuracy    <       0.02892788 Ry

     iteration #  2     ecut=    40.00 Ry     beta=0.60
     Davidson diagonalization with overlap
     ethr =  3.81E-05,  avg # of iterations =  3.4

     total cpu time spent up to now is   150866.1 secs

     total energy              =    -704.96503781 Ry
     Harris-Foulkes estimate   =    -704.97672618 Ry
     estimated scf accuracy    <       0.02689540 Ry

     iteration #  3     ecut=    40.00 Ry     beta=0.60
     Davidson diagonalization with overlap
     ethr =  3.54E-05,  avg # of iterations =  3.0

     total cpu time spent up to now is   151029.1 secs

     total energy              =    -704.96797741 Ry
     Harris-Foulkes estimate   =    -704.97171366 Ry
     estimated scf accuracy    <       0.02522611 Ry

     iteration #  4     ecut=    40.00 Ry     beta=0.60
     Davidson diagonalization with overlap
     ethr =  3.32E-05,  avg # of iterations =  1.0

     total cpu time spent up to now is   151157.4 secs

     total energy              =    -704.96858337 Ry
     Harris-Foulkes estimate   =    -704.96933131 Ry
     estimated scf accuracy    <       0.00240893 Ry

     iteration #  5     ecut=    40.00 Ry     beta=0.60
     Davidson diagonalization with overlap
     ethr =  3.17E-06,  avg # of iterations =  5.2

     total cpu time spent up to now is   151392.7 secs

     total energy              =    -704.96937986 Ry
     Harris-Foulkes estimate   =    -704.96964050 Ry
     estimated scf accuracy    <       0.00248897 Ry

     iteration #  6     ecut=    40.00 Ry     beta=0.60
     Davidson diagonalization with overlap
     ethr =  3.17E-06,  avg # of iterations =  1.0

     total cpu time spent up to now is   151520.0 secs

     total energy              =    -704.96938812 Ry
     Harris-Foulkes estimate   =    -704.96947105 Ry
     estimated scf accuracy    <       0.00109390 Ry

     iteration #  7     ecut=    40.00 Ry     beta=0.60
     Davidson diagonalization with overlap
     ethr =  1.44E-06,  avg # of iterations =  1.4

     total cpu time spent up to now is   151649.0 secs

     total energy              =    -704.96935222 Ry
     Harris-Foulkes estimate   =    -704.96943456 Ry
     estimated scf accuracy    <       0.00052473 Ry

     iteration #  8     ecut=    40.00 Ry     beta=0.60
     Davidson diagonalization with overlap
     ethr =  6.90E-07,  avg # of iterations =  4.0

     total cpu time spent up to now is   151809.5 secs

     total energy              =    -704.96940467 Ry
     Harris-Foulkes estimate   =    -704.96941568 Ry
     estimated scf accuracy    <       0.00005336 Ry

     iteration #  9     ecut=    40.00 Ry     beta=0.60
     Davidson diagonalization with overlap
     ethr =  7.02E-08,  avg # of iterations =  4.0

     total cpu time spent up to now is   151992.8 secs

     total energy              =    -704.96941100 Ry
     Harris-Foulkes estimate   =    -704.96941808 Ry
     estimated scf accuracy    <       0.00002902 Ry

     iteration # 10     ecut=    40.00 Ry     beta=0.60
     Davidson diagonalization with overlap
     ethr =  3.82E-08,  avg # of iterations =  3.8

     total cpu time spent up to now is   152152.1 secs

     total energy              =    -704.96941522 Ry
     Harris-Foulkes estimate   =    -704.96941665 Ry
     estimated scf accuracy    <       0.00000983 Ry

     iteration # 11     ecut=    40.00 Ry     beta=0.60
     Davidson diagonalization with overlap
     ethr =  1.29E-08,  avg # of iterations =  2.1

     total cpu time spent up to now is   152288.9 secs

     total energy              =    -704.96941549 Ry
     Harris-Foulkes estimate   =    -704.96941582 Ry
     estimated scf accuracy    <       0.00000276 Ry

     iteration # 12     ecut=    40.00 Ry     beta=0.60
     Davidson diagonalization with overlap
     ethr =  3.64E-09,  avg # of iterations =  3.7

     total cpu time spent up to now is   152448.7 secs

     total energy              =    -704.96941576 Ry
     Harris-Foulkes estimate   =    -704.96941578 Ry
     estimated scf accuracy    <       0.00000008 Ry

     iteration # 13     ecut=    40.00 Ry     beta=0.60
     Davidson diagonalization with overlap
     ethr =  1.12E-10,  avg # of iterations =  4.5

     total cpu time spent up to now is   152649.0 secs

     total energy              =    -704.96941579 Ry
     Harris-Foulkes estimate   =    -704.96941579 Ry
     estimated scf accuracy    <          3.5E-09 Ry

     iteration # 14     ecut=    40.00 Ry     beta=0.60
     Davidson diagonalization with overlap
     ethr =  4.62E-12,  avg # of iterations =  3.1

     total cpu time spent up to now is   152822.5 secs

     total energy              =    -704.96941579 Ry
     Harris-Foulkes estimate   =    -704.96941579 Ry
     estimated scf accuracy    <          5.5E-10 Ry

     iteration # 15     ecut=    40.00 Ry     beta=0.60
     Davidson diagonalization with overlap
     ethr =  7.28E-13,  avg # of iterations =  3.4

     total cpu time spent up to now is   152990.1 secs

     total energy              =    -704.96941579 Ry
     Harris-Foulkes estimate   =    -704.96941579 Ry
     estimated scf accuracy    <          1.7E-10 Ry

     iteration # 16     ecut=    40.00 Ry     beta=0.60
     Davidson diagonalization with overlap
     ethr =  2.30E-13,  avg # of iterations =  1.7

     total cpu time spent up to now is   153122.7 secs

     End of self-consistent calculation

     Number of k-points >= 100: set verbosity='high' to print the bands.

     the Fermi energy is    16.4803 ev

!    total energy              =    -704.96941579 Ry
     Harris-Foulkes estimate   =    -704.96941579 Ry
     estimated scf accuracy    <          2.9E-11 Ry

     The total energy is the sum of the following terms:

     one-electron contribution =    -150.99297505 Ry
     hartree contribution      =     110.44147807 Ry
     xc contribution           =    -102.85476649 Ry
     ewald contribution        =    -561.56324735 Ry
     smearing contrib. (-TS)   =       0.00009502 Ry

     convergence has been achieved in  16 iterations

     Forces acting on atoms (Ry/au):

     atom    1 type  2   force =    -0.00249477   -0.00144035    0.00000000
     atom    2 type  2   force =     0.00249083    0.00143808   -0.00000000
     atom    3 type  1   force =     0.00171472    0.00913860   -0.00990008
     atom    4 type  1   force =    -0.00874214    0.00303779   -0.00992470
     atom    5 type  1   force =     0.00877162   -0.00308431    0.00990008
     atom    6 type  1   force =    -0.00174026   -0.00908981    0.00992470

     Total force =     0.027456     Total SCF correction =     0.000009


     entering subroutine stress ...

          total   stress  (Ry/bohr**3)                   (kbar)     P=    9.13
   0.00008218   0.00005198  -0.00001492         12.09      7.65     -2.19
   0.00005198   0.00002217   0.00002584          7.65      3.26      3.80
  -0.00001492   0.00002584   0.00008193         -2.19      3.80     12.05


     number of scf cycles    =  49
     number of bfgs steps    =  47

     enthalpy old            =    -704.9692307804 Ry
     enthalpy new            =    -704.9694157927 Ry

     CASE: enthalpy_new < enthalpy_old

     new trust radius        =       0.0638077863 bohr
     new conv_thr            =            1.0E-10 Ry

     new unit-cell volume =    723.36904 a.u.^3 (   107.19223 Ang^3 )

CELL_PARAMETERS (alat=  1.88972599)
   3.213247113  -0.555177488   5.337247782
  -1.098805496   1.903187249   4.630141078
  -1.125825662  -3.060342509   5.337247755

ATOMIC_POSITIONS (angstrom)
Ti       0.799241893  -1.060631107  10.203091079
Ti       0.345123580  -2.591609557   7.888020766
Nb       1.087867246  -1.659140705  15.390670466
Nb       1.844887316  -0.080300440   7.738421561
Nb       0.425229959  -0.511419471   5.015511690
Nb      -1.042189835  -0.090065795   7.330513296


     NEW-OLD atomic charge density approx. for the potential

     Check: negative/imaginary core charge=   -0.000001    0.000000
     extrapolated charge   75.92358, renormalised to   76.00000

     total cpu time spent up to now is   153185.4 secs

     per-process dynamical memory:   401.8 Mb

     Self-consistent Calculation

     iteration #  1     ecut=    40.00 Ry     beta=0.60
     Davidson diagonalization with overlap
     c_bands:  1 eigenvalues not converged
     c_bands:  1 eigenvalues not converged
     c_bands:  1 eigenvalues not converged
     c_bands:  1 eigenvalues not converged
     c_bands:  1 eigenvalues not converged
     c_bands:  1 eigenvalues not converged
     c_bands:  1 eigenvalues not converged
     c_bands:  1 eigenvalues not converged
     ethr =  1.00E-06,  avg # of iterations = 11.6

     total cpu time spent up to now is   153758.1 secs

     total energy              =    -704.96799797 Ry
     Harris-Foulkes estimate   =    -705.07925135 Ry
     estimated scf accuracy    <       0.00416822 Ry

     iteration #  2     ecut=    40.00 Ry     beta=0.60
     Davidson diagonalization with overlap
     ethr =  5.48E-06,  avg # of iterations =  4.4

     total cpu time spent up to now is   154001.4 secs

     total energy              =    -704.96696667 Ry
     Harris-Foulkes estimate   =    -704.97140486 Ry
     estimated scf accuracy    <       0.01384804 Ry

     iteration #  3     ecut=    40.00 Ry     beta=0.60
     Davidson diagonalization with overlap
     ethr =  5.48E-06,  avg # of iterations =  5.5

     total cpu time spent up to now is   154264.8 secs

     total energy              =    -704.96849625 Ry
     Harris-Foulkes estimate   =    -704.97152068 Ry
     estimated scf accuracy    <       0.01957154 Ry

     iteration #  4     ecut=    40.00 Ry     beta=0.60
     Davidson diagonalization with overlap
     ethr =  5.48E-06,  avg # of iterations =  4.8

     total cpu time spent up to now is   154462.3 secs

     total energy              =    -704.96982396 Ry
     Harris-Foulkes estimate   =    -704.96984599 Ry
     estimated scf accuracy    <       0.00008942 Ry

     iteration #  5     ecut=    40.00 Ry     beta=0.60
     Davidson diagonalization with overlap
     ethr =  1.18E-07,  avg # of iterations =  4.1

     total cpu time spent up to now is   154663.2 secs

     total energy              =    -704.96984661 Ry
     Harris-Foulkes estimate   =    -704.96985400 Ry
     estimated scf accuracy    <       0.00002185 Ry

     iteration #  6     ecut=    40.00 Ry     beta=0.60
     Davidson diagonalization with overlap
     ethr =  2.88E-08,  avg # of iterations =  4.1

     total cpu time spent up to now is   154860.0 secs

     total energy              =    -704.96984338 Ry
     Harris-Foulkes estimate   =    -704.96985991 Ry
     estimated scf accuracy    <       0.00013107 Ry

     iteration #  7     ecut=    40.00 Ry     beta=0.60
     Davidson diagonalization with overlap
     ethr =  2.88E-08,  avg # of iterations =  3.9

     total cpu time spent up to now is   155032.3 secs

     total energy              =    -704.96985029 Ry
     Harris-Foulkes estimate   =    -704.96985168 Ry
     estimated scf accuracy    <       0.00000723 Ry

     iteration #  8     ecut=    40.00 Ry     beta=0.60
     Davidson diagonalization with overlap
     ethr =  9.51E-09,  avg # of iterations =  3.1

     total cpu time spent up to now is   155182.4 secs

     total energy              =    -704.96985077 Ry
     Harris-Foulkes estimate   =    -704.96985112 Ry
     estimated scf accuracy    <       0.00000105 Ry

     iteration #  9     ecut=    40.00 Ry     beta=0.60
     Davidson diagonalization with overlap
     ethr =  1.38E-09,  avg # of iterations =  4.1

     total cpu time spent up to now is   155376.6 secs

     total energy              =    -704.96985104 Ry
     Harris-Foulkes estimate   =    -704.96985124 Ry
     estimated scf accuracy    <       0.00000115 Ry

     iteration # 10     ecut=    40.00 Ry     beta=0.60
     Davidson diagonalization with overlap
     ethr =  1.38E-09,  avg # of iterations =  1.0

     total cpu time spent up to now is   155504.3 secs

     total energy              =    -704.96985108 Ry
     Harris-Foulkes estimate   =    -704.96985112 Ry
     estimated scf accuracy    <       0.00000020 Ry

     iteration # 11     ecut=    40.00 Ry     beta=0.60
     Davidson diagonalization with overlap
     ethr =  2.66E-10,  avg # of iterations =  4.0

     total cpu time spent up to now is   155693.5 secs

     total energy              =    -704.96985113 Ry
     Harris-Foulkes estimate   =    -704.96985114 Ry
     estimated scf accuracy    <       0.00000009 Ry

     iteration # 12     ecut=    40.00 Ry     beta=0.60
     Davidson diagonalization with overlap
     ethr =  1.14E-10,  avg # of iterations =  1.0

     total cpu time spent up to now is   155821.7 secs

     total energy              =    -704.96985113 Ry
     Harris-Foulkes estimate   =    -704.96985113 Ry
     estimated scf accuracy    <       0.00000003 Ry

     iteration # 13     ecut=    40.00 Ry     beta=0.60
     Davidson diagonalization with overlap
     ethr =  3.35E-11,  avg # of iterations =  3.4

     total cpu time spent up to now is   155992.6 secs

     total energy              =    -704.96985113 Ry
     Harris-Foulkes estimate   =    -704.96985113 Ry
     estimated scf accuracy    <          2.3E-09 Ry

     iteration # 14     ecut=    40.00 Ry     beta=0.60
     Davidson diagonalization with overlap
     ethr =  3.03E-12,  avg # of iterations =  2.8

     total cpu time spent up to now is   156143.5 secs

     End of self-consistent calculation

     Number of k-points >= 100: set verbosity='high' to print the bands.

     the Fermi energy is    16.4954 ev

!    total energy              =    -704.96985113 Ry
     Harris-Foulkes estimate   =    -704.96985113 Ry
     estimated scf accuracy    <          1.3E-11 Ry

     The total energy is the sum of the following terms:

     one-electron contribution =    -150.74407554 Ry
     hartree contribution      =     110.37949722 Ry
     xc contribution           =    -102.85767619 Ry
     ewald contribution        =    -561.74749812 Ry
     smearing contrib. (-TS)   =      -0.00009850 Ry

     convergence has been achieved in  14 iterations

     Forces acting on atoms (Ry/au):

     atom    1 type  2   force =    -0.00496124   -0.00286437    0.00000000
     atom    2 type  2   force =     0.00495692    0.00286188   -0.00000000
     atom    3 type  1   force =     0.00162686    0.01045812   -0.01142631
     atom    4 type  1   force =    -0.00982741    0.00375063   -0.01145943
     atom    5 type  1   force =     0.00987043   -0.00382016    0.01142631
     atom    6 type  1   force =    -0.00166556   -0.01038610    0.01145943

     Total force =     0.032166     Total SCF correction =     0.000010


     entering subroutine stress ...

          total   stress  (Ry/bohr**3)                   (kbar)     P=   10.93
   0.00010864   0.00006191  -0.00001527         15.98      9.11     -2.25
   0.00006191   0.00003714   0.00002645          9.11      5.46      3.89
  -0.00001527   0.00002645   0.00007708         -2.25      3.89     11.34


     number of scf cycles    =  50
     number of bfgs steps    =  48

     enthalpy old            =    -704.9694157927 Ry
     enthalpy new            =    -704.9698511292 Ry

     CASE: enthalpy_new < enthalpy_old

     new trust radius        =       0.0529558955 bohr
     new conv_thr            =            1.0E-10 Ry

     new unit-cell volume =    724.07003 a.u.^3 (   107.29611 Ang^3 )

CELL_PARAMETERS (alat=  1.88972599)
   3.200357130  -0.536529703   5.357829962
  -1.100640150   1.906364967   4.667040097
  -1.135530123  -3.039855563   5.357829934

ATOMIC_POSITIONS (angstrom)
Ti       0.807087024  -1.018490656  10.255133332
Ti       0.306137810  -2.578625408   7.921613503
Nb       1.080596723  -1.607122275  15.463494871
Nb       1.814597976  -0.069696145   7.772250488
Nb       0.434071842  -0.487308551   5.046771792
Nb      -1.067833075  -0.083830458   7.380186684


     NEW-OLD atomic charge density approx. for the potential

     Check: negative/imaginary core charge=   -0.000001    0.000000
     extrapolated charge   76.07163, renormalised to   76.00000

     init_run     :     79.29s CPU     82.87s WALL (       1 calls)
     electrons    : 149478.75s CPU 152915.80s WALL (      50 calls)
     update_pot   :    141.73s CPU    146.33s WALL (      50 calls)
     forces       :   1222.35s CPU   1242.37s WALL (      50 calls)
     stress       :   1761.98s CPU   1796.72s WALL (      50 calls)

     Called by init_run:
     wfcinit      :     76.53s CPU     79.68s WALL (       1 calls)
     potinit      :      0.91s CPU      0.93s WALL (       1 calls)

     Called by electrons:
     c_bands      : 131856.46s CPU 134734.33s WALL (     779 calls)
     sum_band     :  17209.63s CPU  17717.84s WALL (     779 calls)
     v_of_rho     :     98.71s CPU    102.88s WALL (     829 calls)
     newd         :    313.04s CPU    361.49s WALL (     829 calls)
     mix_rho      :     15.00s CPU     16.02s WALL (     779 calls)

     Called by c_bands:
     init_us_2    :   1203.17s CPU   1237.65s WALL (  789684 calls)
     cegterg      : 129239.33s CPU 132058.87s WALL (  370804 calls)

     Called by sum_band:
     sum_band:bec :     71.04s CPU     72.43s WALL (  370804 calls)
     addusdens    :    389.19s CPU    450.90s WALL (     779 calls)

     Called by *egterg:
     h_psi        :  70690.63s CPU  72729.11s WALL ( 1671614 calls)
     s_psi        :   9890.99s CPU  10024.81s WALL ( 1671614 calls)
     g_psi        :    193.37s CPU    195.39s WALL ( 1300334 calls)
     cdiaghg      :  11975.01s CPU  12069.03s WALL ( 1647338 calls)

     Called by h_psi:
     h_psi:pot    :  70012.78s CPU  72031.39s WALL ( 1671614 calls)
     h_psi:calbec :  11441.73s CPU  11696.85s WALL ( 1671614 calls)
     vloc_psi     :  49340.56s CPU  50987.47s WALL ( 1671614 calls)
     add_vuspsi   :   9211.68s CPU   9335.35s WALL ( 1671614 calls)

     General routines
     calbec       :  16502.60s CPU  16850.24s WALL ( 2161418 calls)
     fft          :     83.30s CPU     91.17s WALL (   14366 calls)
     ffts         :      1.51s CPU      1.57s WALL (    1608 calls)
     fftw         :  41823.26s CPU  43167.45s WALL (******** calls)
     interpolate  :     13.13s CPU     13.97s WALL (    1608 calls)
     davcio       :      0.17s CPU     25.60s WALL (     476 calls)

     Parallel routines
     fft_scatter  :   7092.91s CPU   7394.22s WALL (******** calls)

     PWSCF        :     1d   18h25m CPU        1d   19h24m WALL


   This run was terminated on:   7:27:23  11May2018            

=------------------------------------------------------------------------------=
   JOB DONE.
=------------------------------------------------------------------------------=
-------------------------------------------------------
Primary job  terminated normally, but 1 process returned
a non-zero exit code.. Per user-direction, the job has been aborted.
-------------------------------------------------------
--------------------------------------------------------------------------
mpirun detected that one or more processes exited with non-zero status, thus causing
the job to be terminated. The first process to do so was:

  Process name: [[33263,1],0]
  Exit code:    3
--------------------------------------------------------------------------
