
     Program PWSCF v.6.0 (svn rev. 13079) starts on 10Mar2018 at 11:54:31 

     This program is part of the open-source Quantum ESPRESSO suite
     for quantum simulation of materials; please cite
         "P. Giannozzi et al., J. Phys.:Condens. Matter 21 395502 (2009);
          URL http://www.quantum-espresso.org", 
     in publications or presentations arising from this work. More details at
     http://www.quantum-espresso.org/quote

     Parallel version (MPI), running on     4 processors
     R & G space division:  proc/nbgrp/npool/nimage =       4
     Waiting for input...
     Reading input from standard input

     Current dimensions of program PWSCF are:
     Max number of different atomic species (ntypx) = 10
     Max number of k-points (npk) =  40000
     Max angular momentum in pseudopotentials (lmaxx) =  3

     Subspace diagonalization in iterative solution of the eigenvalue problem:
     a serial algorithm will be used


     Parallelization info
     --------------------
     sticks:   dense  smooth     PW     G-vecs:    dense   smooth      PW
     Min         565     225     81                20489     5191    1118
     Max         567     226     83                20490     5194    1119
     Sum        2263     901    327                81957    20767    4475



     bravais-lattice index     =            0
     lattice parameter (alat)  =       1.8897  a.u.
     unit-cell volume          =     808.3427 (a.u.)^3
     number of atoms/cell      =            6
     number of atomic types    =            2
     number of electrons       =        75.00
     number of Kohn-Sham states=           46
     kinetic-energy cutoff     =      33.0700  Ry
     charge density cutoff     =     330.7000  Ry
     convergence threshold     =      1.0E-10
     mixing beta               =       0.6000
     number of iterations used =            8  plain     mixing
     Exchange-correlation      = SLA  PW   PBE  PBE ( 1  4  3  4 0 0)
     nstep                     =           50


     celldm(1)=   1.889726  celldm(2)=   0.000000  celldm(3)=   0.000000
     celldm(4)=   0.000000  celldm(5)=   0.000000  celldm(6)=   0.000000

     crystal axes: (cart. coord. in units of alat)
               a(1) = (   6.090008   5.274102   0.000000 )  
               a(2) = (  -7.612510  -2.637051   0.000000 )  
               a(3) = (   0.000000   0.000000   4.972461 )  

     reciprocal axes: (cart. coord. in units 2 pi/alat)
               b(1) = ( -0.109469  0.316010  0.000000 )  
               b(2) = ( -0.218938  0.252808  0.000000 )  
               b(3) = (  0.000000 -0.000000  0.201108 )  


     PseudoPot. # 1 for Nb read from file:
     ./Nb.pbe-nsp-van.UPF
     MD5 check sum: 2636d8d3a061c4aefa0a317108b12435
     Pseudo is Ultrasoft + core correction, Zval = 13.0
     Generated by new atomic code, or converted to UPF format
     Using radial grid of  887 points,  6 beta functions with: 
                l(1) =   0
                l(2) =   0
                l(3) =   1
                l(4) =   1
                l(5) =   2
                l(6) =   2
     Q(r) pseudized with  6 coefficients,  rinner =    1.000   1.000   1.000
                                                       1.000   1.000

     PseudoPot. # 2 for Ti read from file:
     ./Ti.pbe-sp-van_ak.UPF
     MD5 check sum: 8e4df49b7f0d34bbd5052bf3f5ea0213
     Pseudo is Ultrasoft, Zval = 12.0
     Generated by new atomic code, or converted to UPF format
     Using radial grid of  851 points,  6 beta functions with: 
                l(1) =   0
                l(2) =   0
                l(3) =   1
                l(4) =   1
                l(5) =   2
                l(6) =   2
     Q(r) pseudized with  8 coefficients,  rinner =    1.000   1.000   1.000
                                                       1.000   1.000

     atomic species   valence    mass     pseudopotential
        Nb            13.00    92.90600     Nb( 1.00)
        Ti            12.00    47.86700     Ti( 1.00)

      4 Sym. Ops. (no inversion) found



   Cartesian axes

     site n.     atom                  positions (alat units)
         1           Nb  tau(   1) = (  -1.5225021   2.6370512   4.9724614  )
         2           Ti  tau(   2) = (  -1.5225006   0.8790162   2.4862307  )
         3           Ti  tau(   3) = (   1.5225021   2.6370512   4.9724614  )
         4           Nb  tau(   4) = (  -6.0900069  -1.7580350   2.4862307  )
         5           Ti  tau(   5) = (  -3.0450042   0.0000000   4.9724614  )
         6           Nb  tau(   6) = (   3.0450058   3.5160674   2.4862307  )

     number of k points=   147  Marzari-Vanderbilt smearing, width (Ry)=  0.2000

     Number of k-points >= 100: set verbosity='high' to print them.

     Dense  grid:    81957 G-vectors     FFT dimensions: (  90,  90,  60)

     Smooth grid:    20767 G-vectors     FFT dimensions: (  60,  60,  36)

     Estimated max dynamical RAM per process >      89.99Mb

     Estimated total allocated dynamical RAM >     359.95Mb

     Check: negative/imaginary core charge=   -0.000002    0.000000

     Initial potential from superposition of free atoms

     starting charge   71.99167, renormalised to   75.00000
     Starting wfc are   69 randomized atomic wfcs

     total cpu time spent up to now is       17.4 secs

     per-process dynamical memory:    96.3 Mb

     Self-consistent Calculation

     iteration #  1     ecut=    33.07 Ry     beta=0.60
     Davidson diagonalization with overlap
     ethr =  1.00E-02,  avg # of iterations =  3.0

     total cpu time spent up to now is       55.9 secs

     total energy              =    -677.64267831 Ry
     Harris-Foulkes estimate   =    -707.02401589 Ry
     estimated scf accuracy    <      36.45148666 Ry

     iteration #  2     ecut=    33.07 Ry     beta=0.60
     Davidson diagonalization with overlap
     ethr =  1.00E-02,  avg # of iterations =  7.7

     total cpu time spent up to now is      130.6 secs

     total energy              =    -676.08473221 Ry
     Harris-Foulkes estimate   =    -766.20162958 Ry
     estimated scf accuracy    <     354.93327360 Ry

     iteration #  3     ecut=    33.07 Ry     beta=0.60
     Davidson diagonalization with overlap
     ethr =  1.00E-02,  avg # of iterations =  6.0

     total cpu time spent up to now is      199.0 secs

     total energy              =    -702.47948465 Ry
     Harris-Foulkes estimate   =    -712.14070744 Ry
     estimated scf accuracy    <      45.73458136 Ry

     iteration #  4     ecut=    33.07 Ry     beta=0.60
     Davidson diagonalization with overlap
     ethr =  1.00E-02,  avg # of iterations =  4.7

     total cpu time spent up to now is      239.8 secs

     total energy              =    -703.92524017 Ry
     Harris-Foulkes estimate   =    -706.59846536 Ry
     estimated scf accuracy    <      28.23760745 Ry

     iteration #  5     ecut=    33.07 Ry     beta=0.60
     Davidson diagonalization with overlap
     ethr =  1.00E-02,  avg # of iterations =  4.0

     total cpu time spent up to now is      273.5 secs

     total energy              =    -704.58551150 Ry
     Harris-Foulkes estimate   =    -705.07612295 Ry
     estimated scf accuracy    <      13.54242832 Ry

     iteration #  6     ecut=    33.07 Ry     beta=0.60
     Davidson diagonalization with overlap
     ethr =  1.00E-02,  avg # of iterations =  1.0

     total cpu time spent up to now is      302.7 secs

     total energy              =    -704.23978678 Ry
     Harris-Foulkes estimate   =    -704.66479031 Ry
     estimated scf accuracy    <       9.11642052 Ry

     iteration #  7     ecut=    33.07 Ry     beta=0.60
     Davidson diagonalization with overlap
     ethr =  1.00E-02,  avg # of iterations =  1.0

     total cpu time spent up to now is      331.8 secs

     total energy              =    -704.20025396 Ry
     Harris-Foulkes estimate   =    -704.28679307 Ry
     estimated scf accuracy    <       6.95772566 Ry

     iteration #  8     ecut=    33.07 Ry     beta=0.60
     Davidson diagonalization with overlap
     ethr =  9.28E-03,  avg # of iterations =  1.0

     total cpu time spent up to now is      360.3 secs

     total energy              =    -703.03132137 Ry
     Harris-Foulkes estimate   =    -704.22319621 Ry
     estimated scf accuracy    <       6.41993354 Ry

     iteration #  9     ecut=    33.07 Ry     beta=0.60
     Davidson diagonalization with overlap
     ethr =  8.56E-03,  avg # of iterations =  5.3

     total cpu time spent up to now is      406.1 secs

     total energy              =    -704.03437449 Ry
     Harris-Foulkes estimate   =    -704.13573027 Ry
     estimated scf accuracy    <       7.18683274 Ry

     iteration # 10     ecut=    33.07 Ry     beta=0.60
     Davidson diagonalization with overlap
     ethr =  8.56E-03,  avg # of iterations =  1.0

     total cpu time spent up to now is      434.4 secs

     total energy              =    -703.81213053 Ry
     Harris-Foulkes estimate   =    -704.07820686 Ry
     estimated scf accuracy    <       5.27736549 Ry

     iteration # 11     ecut=    33.07 Ry     beta=0.60
     Davidson diagonalization with overlap
     ethr =  7.04E-03,  avg # of iterations =  1.0

     total cpu time spent up to now is      462.8 secs

     total energy              =    -703.76305545 Ry
     Harris-Foulkes estimate   =    -703.87517732 Ry
     estimated scf accuracy    <       1.71516352 Ry

     iteration # 12     ecut=    33.07 Ry     beta=0.60
     Davidson diagonalization with overlap
     ethr =  2.29E-03,  avg # of iterations =  5.2

     total cpu time spent up to now is      497.6 secs

     total energy              =    -703.79970496 Ry
     Harris-Foulkes estimate   =    -703.82462436 Ry
     estimated scf accuracy    <       0.17215166 Ry

     iteration # 13     ecut=    33.07 Ry     beta=0.60
     Davidson diagonalization with overlap
     ethr =  2.30E-04,  avg # of iterations =  6.7

     total cpu time spent up to now is      549.0 secs

     total energy              =    -703.82321997 Ry
     Harris-Foulkes estimate   =    -703.85466081 Ry
     estimated scf accuracy    <       0.21007632 Ry

     iteration # 14     ecut=    33.07 Ry     beta=0.60
     Davidson diagonalization with overlap
     ethr =  2.30E-04,  avg # of iterations =  6.2

     total cpu time spent up to now is      587.6 secs

     total energy              =    -703.83713524 Ry
     Harris-Foulkes estimate   =    -703.84399302 Ry
     estimated scf accuracy    <       0.06329377 Ry

     iteration # 15     ecut=    33.07 Ry     beta=0.60
     Davidson diagonalization with overlap
     ethr =  8.44E-05,  avg # of iterations =  5.6

     total cpu time spent up to now is      624.4 secs

     total energy              =    -703.84013782 Ry
     Harris-Foulkes estimate   =    -703.84288387 Ry
     estimated scf accuracy    <       0.02324806 Ry

     iteration # 16     ecut=    33.07 Ry     beta=0.60
     Davidson diagonalization with overlap
     ethr =  3.10E-05,  avg # of iterations =  6.1

     total cpu time spent up to now is      662.4 secs

     total energy              =    -703.84170091 Ry
     Harris-Foulkes estimate   =    -703.84188547 Ry
     estimated scf accuracy    <       0.00117311 Ry

     iteration # 17     ecut=    33.07 Ry     beta=0.60
     Davidson diagonalization with overlap
     ethr =  1.56E-06,  avg # of iterations =  6.8

     total cpu time spent up to now is      716.3 secs

     total energy              =    -703.84207501 Ry
     Harris-Foulkes estimate   =    -703.84213998 Ry
     estimated scf accuracy    <       0.00065510 Ry

     iteration # 18     ecut=    33.07 Ry     beta=0.60
     Davidson diagonalization with overlap
     ethr =  8.73E-07,  avg # of iterations =  2.1

     total cpu time spent up to now is      746.2 secs

     total energy              =    -703.84207328 Ry
     Harris-Foulkes estimate   =    -703.84210433 Ry
     estimated scf accuracy    <       0.00037958 Ry

     iteration # 19     ecut=    33.07 Ry     beta=0.60
     Davidson diagonalization with overlap
     ethr =  5.06E-07,  avg # of iterations =  6.5

     total cpu time spent up to now is      788.0 secs

     total energy              =    -703.84208471 Ry
     Harris-Foulkes estimate   =    -703.84211049 Ry
     estimated scf accuracy    <       0.00038090 Ry

     iteration # 20     ecut=    33.07 Ry     beta=0.60
     Davidson diagonalization with overlap
     ethr =  5.06E-07,  avg # of iterations =  1.1

     total cpu time spent up to now is      816.5 secs

     total energy              =    -703.84207713 Ry
     Harris-Foulkes estimate   =    -703.84209115 Ry
     estimated scf accuracy    <       0.00016608 Ry

     iteration # 21     ecut=    33.07 Ry     beta=0.60
     Davidson diagonalization with overlap
     c_bands:  1 eigenvalues not converged
     ethr =  2.21E-07,  avg # of iterations =  6.9

     total cpu time spent up to now is      858.7 secs

     total energy              =    -703.84209009 Ry
     Harris-Foulkes estimate   =    -703.84209112 Ry
     estimated scf accuracy    <       0.00001464 Ry

     iteration # 22     ecut=    33.07 Ry     beta=0.60
     Davidson diagonalization with overlap
     c_bands:  2 eigenvalues not converged
     ethr =  1.95E-08,  avg # of iterations =  5.9

     total cpu time spent up to now is      900.0 secs

     total energy              =    -703.84209006 Ry
     Harris-Foulkes estimate   =    -703.84209160 Ry
     estimated scf accuracy    <       0.00001952 Ry

     iteration # 23     ecut=    33.07 Ry     beta=0.60
     Davidson diagonalization with overlap
     ethr =  1.95E-08,  avg # of iterations =  1.7

     total cpu time spent up to now is      930.4 secs

     total energy              =    -703.84209000 Ry
     Harris-Foulkes estimate   =    -703.84209045 Ry
     estimated scf accuracy    <       0.00000513 Ry

     iteration # 24     ecut=    33.07 Ry     beta=0.60
     Davidson diagonalization with overlap
     ethr =  6.84E-09,  avg # of iterations =  6.9

     total cpu time spent up to now is      976.4 secs

     total energy              =    -703.84209052 Ry
     Harris-Foulkes estimate   =    -703.84209057 Ry
     estimated scf accuracy    <       0.00000047 Ry

     iteration # 25     ecut=    33.07 Ry     beta=0.60
     Davidson diagonalization with overlap
     c_bands:  1 eigenvalues not converged
     c_bands:  1 eigenvalues not converged
     c_bands:  1 eigenvalues not converged
     ethr =  6.22E-10,  avg # of iterations =  6.7

     total cpu time spent up to now is     1016.7 secs

     total energy              =    -703.84209053 Ry
     Harris-Foulkes estimate   =    -703.84209056 Ry
     estimated scf accuracy    <       0.00000024 Ry

     iteration # 26     ecut=    33.07 Ry     beta=0.60
     Davidson diagonalization with overlap
     c_bands:  1 eigenvalues not converged
     ethr =  3.23E-10,  avg # of iterations =  7.3

     total cpu time spent up to now is     1059.3 secs

     total energy              =    -703.84209055 Ry
     Harris-Foulkes estimate   =    -703.84209055 Ry
     estimated scf accuracy    <       0.00000002 Ry

     iteration # 27     ecut=    33.07 Ry     beta=0.60
     Davidson diagonalization with overlap
     c_bands:  1 eigenvalues not converged
     ethr =  2.71E-11,  avg # of iterations =  7.6

     total cpu time spent up to now is     1111.5 secs

     total energy              =    -703.84209055 Ry
     Harris-Foulkes estimate   =    -703.84209055 Ry
     estimated scf accuracy    <       0.00000001 Ry

     iteration # 28     ecut=    33.07 Ry     beta=0.60
     Davidson diagonalization with overlap
     ethr =  1.45E-11,  avg # of iterations =  3.3

     total cpu time spent up to now is     1144.4 secs

     total energy              =    -703.84209055 Ry
     Harris-Foulkes estimate   =    -703.84209055 Ry
     estimated scf accuracy    <          1.9E-09 Ry

     iteration # 29     ecut=    33.07 Ry     beta=0.60
     Davidson diagonalization with overlap
     ethr =  2.57E-12,  avg # of iterations =  6.1

     total cpu time spent up to now is     1194.3 secs

     total energy              =    -703.84209055 Ry
     Harris-Foulkes estimate   =    -703.84209055 Ry
     estimated scf accuracy    <          4.6E-10 Ry

     iteration # 30     ecut=    33.07 Ry     beta=0.60
     Davidson diagonalization with overlap
     ethr =  6.09E-13,  avg # of iterations =  5.4

     total cpu time spent up to now is     1230.9 secs

     total energy              =    -703.84209055 Ry
     Harris-Foulkes estimate   =    -703.84209055 Ry
     estimated scf accuracy    <          2.3E-10 Ry

     iteration # 31     ecut=    33.07 Ry     beta=0.60
     Davidson diagonalization with overlap
     ethr =  3.13E-13,  avg # of iterations =  5.7

     total cpu time spent up to now is     1270.0 secs

     End of self-consistent calculation

     Number of k-points >= 100: set verbosity='high' to print the bands.

     the Fermi energy is    14.0351 ev

!    total energy              =    -703.84209055 Ry
     Harris-Foulkes estimate   =    -703.84209055 Ry
     estimated scf accuracy    <          3.6E-11 Ry

     The total energy is the sum of the following terms:

     one-electron contribution =    -204.78061438 Ry
     hartree contribution      =     128.39925786 Ry
     xc contribution           =     -98.35495778 Ry
     ewald contribution        =    -528.53864097 Ry
     smearing contrib. (-TS)   =      -0.56713529 Ry

     convergence has been achieved in  31 iterations

     Forces acting on atoms (Ry/au):

     atom    1 type  1   force =     0.00260547    0.00150427    0.00000000
     atom    2 type  2   force =     0.00151401    0.00087411    0.00000000
     atom    3 type  2   force =    -0.00229824   -0.00132689    0.00000000
     atom    4 type  1   force =     0.00090454    0.00052224    0.00000000
     atom    5 type  2   force =     0.00034809    0.00020097    0.00000000
     atom    6 type  1   force =    -0.00307387   -0.00177470    0.00000000

     Total force =     0.005745     Total SCF correction =     0.000017


     entering subroutine stress ...

          total   stress  (Ry/bohr**3)                   (kbar)     P=  -51.42
  -0.00035870   0.00001622   0.00000000        -52.77      2.39      0.00
   0.00001622  -0.00037742   0.00000000          2.39    -55.52      0.00
   0.00000000   0.00000000  -0.00031254          0.00      0.00    -45.98


     BFGS Geometry Optimization

     number of scf cycles    =   1
     number of bfgs steps    =   0

     enthalpy new            =    -703.8420905529 Ry

     new trust radius        =       0.0537027779 bohr
     new conv_thr            =            1.0E-10 Ry

     new unit-cell volume =    787.33483 a.u.^3 (   116.67098 Ang^3 )

CELL_PARAMETERS (alat=  1.88972599)
   6.037534056   5.226806619   0.000000000
  -7.545314024  -2.615254926   0.000000000
   0.000000000   0.000000000   4.933609200

ATOMIC_POSITIONS (angstrom)
Nb      -1.506413252   2.612340767   4.933609200
Ti      -1.507696963   0.870563412   2.466804600
Ti       1.508712474   2.612090076   4.933609200
Nb      -6.035632689  -1.743641681   2.466804600
Ti      -3.017515405  -0.001128991   4.933609200
Nb       3.017512463   3.483194476   2.466804600


     NEW-OLD atomic charge density approx. for the potential

     Check: negative/imaginary core charge=   -0.000002    0.000000
     extrapolated charge   73.07910, renormalised to   75.00000

     total cpu time spent up to now is     1282.7 secs

     per-process dynamical memory:   107.9 Mb

     Self-consistent Calculation

     iteration #  1     ecut=    33.07 Ry     beta=0.60
     Davidson diagonalization with overlap
     c_bands:  1 eigenvalues not converged
     c_bands:  1 eigenvalues not converged
     ethr =  1.00E-06,  avg # of iterations = 13.7

     total cpu time spent up to now is     1398.2 secs

     total energy              =    -703.26369473 Ry
     Harris-Foulkes estimate   =    -707.51210876 Ry
     estimated scf accuracy    <       0.55893753 Ry

     iteration #  2     ecut=    33.07 Ry     beta=0.60
     Davidson diagonalization with overlap
     ethr =  7.45E-04,  avg # of iterations =  7.1

     total cpu time spent up to now is     1466.4 secs

     total energy              =    -703.43887206 Ry
     Harris-Foulkes estimate   =    -704.89444463 Ry
     estimated scf accuracy    <       6.69741165 Ry

     iteration #  3     ecut=    33.07 Ry     beta=0.60
     Davidson diagonalization with overlap
     ethr =  7.45E-04,  avg # of iterations =  6.2

     total cpu time spent up to now is     1523.8 secs

     total energy              =    -703.78889575 Ry
     Harris-Foulkes estimate   =    -704.00373511 Ry
     estimated scf accuracy    <       0.95689805 Ry

     iteration #  4     ecut=    33.07 Ry     beta=0.60
     Davidson diagonalization with overlap
     ethr =  7.45E-04,  avg # of iterations =  6.0

     total cpu time spent up to now is     1571.5 secs

     total energy              =    -703.78781408 Ry
     Harris-Foulkes estimate   =    -703.98602747 Ry
     estimated scf accuracy    <       1.84516562 Ry

     iteration #  5     ecut=    33.07 Ry     beta=0.60
     Davidson diagonalization with overlap
     ethr =  7.45E-04,  avg # of iterations =  5.9

     total cpu time spent up to now is     1613.0 secs

     total energy              =    -703.86108774 Ry
     Harris-Foulkes estimate   =    -703.89709374 Ry
     estimated scf accuracy    <       0.36713650 Ry

     iteration #  6     ecut=    33.07 Ry     beta=0.60
     Davidson diagonalization with overlap
     ethr =  4.90E-04,  avg # of iterations =  1.5

     total cpu time spent up to now is     1642.2 secs

     total energy              =    -703.86675945 Ry
     Harris-Foulkes estimate   =    -703.87150960 Ry
     estimated scf accuracy    <       0.19023937 Ry

     iteration #  7     ecut=    33.07 Ry     beta=0.60
     Davidson diagonalization with overlap
     ethr =  2.54E-04,  avg # of iterations =  3.1

     total cpu time spent up to now is     1673.9 secs

     total energy              =    -703.86009493 Ry
     Harris-Foulkes estimate   =    -703.86963608 Ry
     estimated scf accuracy    <       0.16296397 Ry

     iteration #  8     ecut=    33.07 Ry     beta=0.60
     Davidson diagonalization with overlap
     ethr =  2.17E-04,  avg # of iterations =  1.5

     total cpu time spent up to now is     1703.6 secs

     total energy              =    -703.84357029 Ry
     Harris-Foulkes estimate   =    -703.86220151 Ry
     estimated scf accuracy    <       0.12286901 Ry

     iteration #  9     ecut=    33.07 Ry     beta=0.60
     Davidson diagonalization with overlap
     ethr =  1.64E-04,  avg # of iterations =  5.5

     total cpu time spent up to now is     1742.4 secs

     total energy              =    -703.85124285 Ry
     Harris-Foulkes estimate   =    -703.85099505 Ry
     estimated scf accuracy    <       0.03034093 Ry

     iteration # 10     ecut=    33.07 Ry     beta=0.60
     Davidson diagonalization with overlap
     ethr =  4.05E-05,  avg # of iterations =  4.0

     total cpu time spent up to now is     1775.8 secs

     total energy              =    -703.84095116 Ry
     Harris-Foulkes estimate   =    -703.85200840 Ry
     estimated scf accuracy    <       0.02927255 Ry

     iteration # 11     ecut=    33.07 Ry     beta=0.60
     Davidson diagonalization with overlap
     ethr =  3.90E-05,  avg # of iterations =  6.4

     total cpu time spent up to now is     1828.3 secs

     total energy              =    -703.84686544 Ry
     Harris-Foulkes estimate   =    -703.84854688 Ry
     estimated scf accuracy    <       0.00864749 Ry

     iteration # 12     ecut=    33.07 Ry     beta=0.60
     Davidson diagonalization with overlap
     ethr =  1.15E-05,  avg # of iterations =  4.9

     total cpu time spent up to now is     1864.1 secs

     total energy              =    -703.84741893 Ry
     Harris-Foulkes estimate   =    -703.84750415 Ry
     estimated scf accuracy    <       0.00076747 Ry

     iteration # 13     ecut=    33.07 Ry     beta=0.60
     Davidson diagonalization with overlap
     ethr =  1.02E-06,  avg # of iterations =  7.1

     total cpu time spent up to now is     1921.7 secs

     total energy              =    -703.84759054 Ry
     Harris-Foulkes estimate   =    -703.84788715 Ry
     estimated scf accuracy    <       0.00207326 Ry

     iteration # 14     ecut=    33.07 Ry     beta=0.60
     Davidson diagonalization with overlap
     c_bands:  1 eigenvalues not converged
     ethr =  1.02E-06,  avg # of iterations =  7.3

     total cpu time spent up to now is     1968.4 secs

     total energy              =    -703.84773420 Ry
     Harris-Foulkes estimate   =    -703.84775336 Ry
     estimated scf accuracy    <       0.00024803 Ry

     iteration # 15     ecut=    33.07 Ry     beta=0.60
     Davidson diagonalization with overlap
     ethr =  3.31E-07,  avg # of iterations =  2.1

     total cpu time spent up to now is     1998.6 secs

     total energy              =    -703.84772796 Ry
     Harris-Foulkes estimate   =    -703.84774106 Ry
     estimated scf accuracy    <       0.00007552 Ry

     iteration # 16     ecut=    33.07 Ry     beta=0.60
     Davidson diagonalization with overlap
     ethr =  1.01E-07,  avg # of iterations =  5.9

     total cpu time spent up to now is     2046.4 secs

     total energy              =    -703.84773985 Ry
     Harris-Foulkes estimate   =    -703.84774443 Ry
     estimated scf accuracy    <       0.00004214 Ry

     iteration # 17     ecut=    33.07 Ry     beta=0.60
     Davidson diagonalization with overlap
     ethr =  5.62E-08,  avg # of iterations =  1.2

     total cpu time spent up to now is     2075.5 secs

     total energy              =    -703.84773917 Ry
     Harris-Foulkes estimate   =    -703.84774102 Ry
     estimated scf accuracy    <       0.00001742 Ry

     iteration # 18     ecut=    33.07 Ry     beta=0.60
     Davidson diagonalization with overlap
     ethr =  2.32E-08,  avg # of iterations =  5.8

     total cpu time spent up to now is     2121.0 secs

     total energy              =    -703.84774119 Ry
     Harris-Foulkes estimate   =    -703.84774184 Ry
     estimated scf accuracy    <       0.00001317 Ry

     iteration # 19     ecut=    33.07 Ry     beta=0.60
     Davidson diagonalization with overlap
     ethr =  1.76E-08,  avg # of iterations =  1.2

     total cpu time spent up to now is     2149.9 secs

     total energy              =    -703.84774093 Ry
     Harris-Foulkes estimate   =    -703.84774131 Ry
     estimated scf accuracy    <       0.00000808 Ry

     iteration # 20     ecut=    33.07 Ry     beta=0.60
     Davidson diagonalization with overlap
     ethr =  1.08E-08,  avg # of iterations =  1.4

     total cpu time spent up to now is     2179.3 secs

     total energy              =    -703.84774069 Ry
     Harris-Foulkes estimate   =    -703.84774101 Ry
     estimated scf accuracy    <       0.00000418 Ry

     iteration # 21     ecut=    33.07 Ry     beta=0.60
     Davidson diagonalization with overlap
     c_bands:  1 eigenvalues not converged
     c_bands:  1 eigenvalues not converged
     c_bands:  1 eigenvalues not converged
     ethr =  5.58E-09,  avg # of iterations =  7.0

     total cpu time spent up to now is     2217.7 secs

     total energy              =    -703.84774084 Ry
     Harris-Foulkes estimate   =    -703.84774087 Ry
     estimated scf accuracy    <       0.00000057 Ry

     iteration # 22     ecut=    33.07 Ry     beta=0.60
     Davidson diagonalization with overlap
     c_bands:  1 eigenvalues not converged
     c_bands:  1 eigenvalues not converged
     ethr =  7.62E-10,  avg # of iterations =  6.6

     total cpu time spent up to now is     2267.0 secs

     total energy              =    -703.84774096 Ry
     Harris-Foulkes estimate   =    -703.84774096 Ry
     estimated scf accuracy    <       0.00000002 Ry

     iteration # 23     ecut=    33.07 Ry     beta=0.60
     Davidson diagonalization with overlap
     ethr =  2.88E-11,  avg # of iterations =  7.7

     total cpu time spent up to now is     2318.3 secs

     total energy              =    -703.84774095 Ry
     Harris-Foulkes estimate   =    -703.84774096 Ry
     estimated scf accuracy    <       0.00000010 Ry

     iteration # 24     ecut=    33.07 Ry     beta=0.60
     Davidson diagonalization with overlap
     ethr =  2.88E-11,  avg # of iterations =  6.7

     total cpu time spent up to now is     2366.0 secs

     total energy              =    -703.84774096 Ry
     Harris-Foulkes estimate   =    -703.84774096 Ry
     estimated scf accuracy    <          4.0E-09 Ry

     iteration # 25     ecut=    33.07 Ry     beta=0.60
     Davidson diagonalization with overlap
     c_bands:  1 eigenvalues not converged
     ethr =  5.35E-12,  avg # of iterations =  5.9

     total cpu time spent up to now is     2402.3 secs

     total energy              =    -703.84774096 Ry
     Harris-Foulkes estimate   =    -703.84774096 Ry
     estimated scf accuracy    <          5.2E-10 Ry

     iteration # 26     ecut=    33.07 Ry     beta=0.60
     Davidson diagonalization with overlap
     ethr =  6.89E-13,  avg # of iterations =  6.7

     total cpu time spent up to now is     2455.7 secs

     total energy              =    -703.84774096 Ry
     Harris-Foulkes estimate   =    -703.84774096 Ry
     estimated scf accuracy    <          7.2E-10 Ry

     iteration # 27     ecut=    33.07 Ry     beta=0.60
     Davidson diagonalization with overlap
     ethr =  6.89E-13,  avg # of iterations =  1.8

     total cpu time spent up to now is     2485.5 secs

     total energy              =    -703.84774096 Ry
     Harris-Foulkes estimate   =    -703.84774096 Ry
     estimated scf accuracy    <          3.9E-10 Ry

     iteration # 28     ecut=    33.07 Ry     beta=0.60
     Davidson diagonalization with overlap
     ethr =  5.14E-13,  avg # of iterations =  6.2

     total cpu time spent up to now is     2522.8 secs

     total energy              =    -703.84774096 Ry
     Harris-Foulkes estimate   =    -703.84774096 Ry
     estimated scf accuracy    <          1.6E-10 Ry

     iteration # 29     ecut=    33.07 Ry     beta=0.60
     Davidson diagonalization with overlap
     ethr =  2.12E-13,  avg # of iterations =  2.4

     total cpu time spent up to now is     2553.1 secs

     total energy              =    -703.84774096 Ry
     Harris-Foulkes estimate   =    -703.84774096 Ry
     estimated scf accuracy    <          2.0E-10 Ry

     iteration # 30     ecut=    33.07 Ry     beta=0.60
     Davidson diagonalization with overlap
     ethr =  2.12E-13,  avg # of iterations =  3.4

     total cpu time spent up to now is     2584.9 secs

     End of self-consistent calculation

     Number of k-points >= 100: set verbosity='high' to print the bands.

     the Fermi energy is    14.4607 ev

!    total energy              =    -703.84774096 Ry
     Harris-Foulkes estimate   =    -703.84774096 Ry
     estimated scf accuracy    <          8.1E-11 Ry

     The total energy is the sum of the following terms:

     one-electron contribution =    -197.93494768 Ry
     hartree contribution      =     126.30492414 Ry
     xc contribution           =     -98.48253878 Ry
     ewald contribution        =    -533.18847813 Ry
     smearing contrib. (-TS)   =      -0.54670050 Ry

     convergence has been achieved in  30 iterations

     Forces acting on atoms (Ry/au):

     atom    1 type  1   force =     0.00176545    0.00101928    0.00000000
     atom    2 type  2   force =     0.00074181    0.00042828    0.00000000
     atom    3 type  2   force =    -0.00119693   -0.00069105    0.00000000
     atom    4 type  1   force =     0.00034081    0.00019677    0.00000000
     atom    5 type  2   force =     0.00020064    0.00011584    0.00000000
     atom    6 type  1   force =    -0.00185179   -0.00106913    0.00000000

     Total force =     0.003403     Total SCF correction =     0.000016


     entering subroutine stress ...

          total   stress  (Ry/bohr**3)                   (kbar)     P=  -26.05
  -0.00018530   0.00001447   0.00000000        -27.26      2.13      0.00
   0.00001447  -0.00020200   0.00000000          2.13    -29.72      0.00
   0.00000000   0.00000000  -0.00014385          0.00      0.00    -21.16


     number of scf cycles    =   2
     number of bfgs steps    =   1

     enthalpy old            =    -703.8420905529 Ry
     enthalpy new            =    -703.8477409573 Ry

     CASE: enthalpy_new < enthalpy_old

     new trust radius        =       0.0567769913 bohr
     new conv_thr            =            1.0E-10 Ry

     new unit-cell volume =    766.64638 a.u.^3 (   113.60527 Ang^3 )

CELL_PARAMETERS (alat=  1.88972599)
   5.985500170   5.178463498   0.000000000
  -7.477430707  -2.594363822   0.000000000
   0.000000000   0.000000000   4.898250170

ATOMIC_POSITIONS (angstrom)
Nb      -1.488746184   2.585938163   4.898250170
Ti      -1.492347386   0.861124168   2.449125085
Ti       1.495419857   2.586114236   4.898250170
Nb      -5.980723521  -1.730241186   2.449125085
Ti      -2.989398029  -0.003196763   4.898250170
Nb       2.990221054   3.449136448   2.449125085


     NEW-OLD atomic charge density approx. for the potential

     Check: negative/imaginary core charge=   -0.000001    0.000000
     extrapolated charge   73.05726, renormalised to   75.00000

     total cpu time spent up to now is     2597.7 secs

     per-process dynamical memory:   107.9 Mb

     Self-consistent Calculation

     iteration #  1     ecut=    33.07 Ry     beta=0.60
     Davidson diagonalization with overlap
     c_bands:  2 eigenvalues not converged
     c_bands:  1 eigenvalues not converged
     c_bands:  1 eigenvalues not converged
     c_bands:  1 eigenvalues not converged
     c_bands:  1 eigenvalues not converged
     c_bands:  1 eigenvalues not converged
     c_bands:  2 eigenvalues not converged
     c_bands:  1 eigenvalues not converged
     c_bands:  1 eigenvalues not converged
     c_bands:  1 eigenvalues not converged
     ethr =  1.00E-06,  avg # of iterations = 14.4

     total cpu time spent up to now is     2714.7 secs

     total energy              =    -703.28572679 Ry
     Harris-Foulkes estimate   =    -707.43861817 Ry
     estimated scf accuracy    <       0.53672891 Ry

     iteration #  2     ecut=    33.07 Ry     beta=0.60
     Davidson diagonalization with overlap
     ethr =  7.16E-04,  avg # of iterations =  6.8

     total cpu time spent up to now is     2783.1 secs

     total energy              =    -703.44841816 Ry
     Harris-Foulkes estimate   =    -704.84530187 Ry
     estimated scf accuracy    <       6.42762574 Ry

     iteration #  3     ecut=    33.07 Ry     beta=0.60
     Davidson diagonalization with overlap
     ethr =  7.16E-04,  avg # of iterations =  6.5

     total cpu time spent up to now is     2841.4 secs

     total energy              =    -703.77985726 Ry
     Harris-Foulkes estimate   =    -704.00536631 Ry
     estimated scf accuracy    <       1.06473513 Ry

     iteration #  4     ecut=    33.07 Ry     beta=0.60
     Davidson diagonalization with overlap
     ethr =  7.16E-04,  avg # of iterations =  6.2

     total cpu time spent up to now is     2889.4 secs

     total energy              =    -703.78780368 Ry
     Harris-Foulkes estimate   =    -703.98502998 Ry
     estimated scf accuracy    <       1.80585747 Ry

     iteration #  5     ecut=    33.07 Ry     beta=0.60
     Davidson diagonalization with overlap
     ethr =  7.16E-04,  avg # of iterations =  6.1

     total cpu time spent up to now is     2931.1 secs

     total energy              =    -703.86156934 Ry
     Harris-Foulkes estimate   =    -703.89691032 Ry
     estimated scf accuracy    <       0.33010024 Ry

     iteration #  6     ecut=    33.07 Ry     beta=0.60
     Davidson diagonalization with overlap
     ethr =  4.40E-04,  avg # of iterations =  1.9

     total cpu time spent up to now is     2961.1 secs

     total energy              =    -703.86410588 Ry
     Harris-Foulkes estimate   =    -703.87134926 Ry
     estimated scf accuracy    <       0.17933786 Ry

     iteration #  7     ecut=    33.07 Ry     beta=0.60
     Davidson diagonalization with overlap
     ethr =  2.39E-04,  avg # of iterations =  3.5

     total cpu time spent up to now is     2993.1 secs

     total energy              =    -703.85413278 Ry
     Harris-Foulkes estimate   =    -703.86745842 Ry
     estimated scf accuracy    <       0.14174982 Ry

     iteration #  8     ecut=    33.07 Ry     beta=0.60
     Davidson diagonalization with overlap
     ethr =  1.89E-04,  avg # of iterations =  3.7

     total cpu time spent up to now is     3025.6 secs

     total energy              =    -703.84659892 Ry
     Harris-Foulkes estimate   =    -703.85761068 Ry
     estimated scf accuracy    <       0.08190784 Ry

     iteration #  9     ecut=    33.07 Ry     beta=0.60
     Davidson diagonalization with overlap
     ethr =  1.09E-04,  avg # of iterations =  5.5

     total cpu time spent up to now is     3066.2 secs

     total energy              =    -703.85335391 Ry
     Harris-Foulkes estimate   =    -703.85299308 Ry
     estimated scf accuracy    <       0.02782077 Ry

     iteration # 10     ecut=    33.07 Ry     beta=0.60
     Davidson diagonalization with overlap
     c_bands:  1 eigenvalues not converged
     ethr =  3.71E-05,  avg # of iterations =  2.9

     total cpu time spent up to now is     3097.5 secs

     total energy              =    -703.84391873 Ry
     Harris-Foulkes estimate   =    -703.85386656 Ry
     estimated scf accuracy    <       0.02742986 Ry

     iteration # 11     ecut=    33.07 Ry     beta=0.60
     Davidson diagonalization with overlap
     ethr =  3.66E-05,  avg # of iterations =  6.3

     total cpu time spent up to now is     3147.6 secs

     total energy              =    -703.84865041 Ry
     Harris-Foulkes estimate   =    -703.85012591 Ry
     estimated scf accuracy    <       0.00658638 Ry

     iteration # 12     ecut=    33.07 Ry     beta=0.60
     Davidson diagonalization with overlap
     ethr =  8.78E-06,  avg # of iterations =  6.0

     total cpu time spent up to now is     3188.4 secs

     total energy              =    -703.84936559 Ry
     Harris-Foulkes estimate   =    -703.84941023 Ry
     estimated scf accuracy    <       0.00021307 Ry

     iteration # 13     ecut=    33.07 Ry     beta=0.60
     Davidson diagonalization with overlap
     ethr =  2.84E-07,  avg # of iterations =  6.9

     total cpu time spent up to now is     3250.1 secs

     total energy              =    -703.84950633 Ry
     Harris-Foulkes estimate   =    -703.84954065 Ry
     estimated scf accuracy    <       0.00019441 Ry

     iteration # 14     ecut=    33.07 Ry     beta=0.60
     Davidson diagonalization with overlap
     c_bands:  1 eigenvalues not converged
     c_bands:  1 eigenvalues not converged
     ethr =  2.59E-07,  avg # of iterations =  6.3

     total cpu time spent up to now is     3287.9 secs

     total energy              =    -703.84952213 Ry
     Harris-Foulkes estimate   =    -703.84952347 Ry
     estimated scf accuracy    <       0.00001742 Ry

     iteration # 15     ecut=    33.07 Ry     beta=0.60
     Davidson diagonalization with overlap
     ethr =  2.32E-08,  avg # of iterations =  6.3

     total cpu time spent up to now is     3336.6 secs

     total energy              =    -703.84952646 Ry
     Harris-Foulkes estimate   =    -703.84952675 Ry
     estimated scf accuracy    <       0.00001478 Ry

     iteration # 16     ecut=    33.07 Ry     beta=0.60
     Davidson diagonalization with overlap
     ethr =  1.97E-08,  avg # of iterations =  5.0

     total cpu time spent up to now is     3371.5 secs

     total energy              =    -703.84952658 Ry
     Harris-Foulkes estimate   =    -703.84952741 Ry
     estimated scf accuracy    <       0.00002031 Ry

     iteration # 17     ecut=    33.07 Ry     beta=0.60
     Davidson diagonalization with overlap
     ethr =  1.97E-08,  avg # of iterations =  1.1

     total cpu time spent up to now is     3400.2 secs

     total energy              =    -703.84952447 Ry
     Harris-Foulkes estimate   =    -703.84952689 Ry
     estimated scf accuracy    <       0.00001674 Ry

     iteration # 18     ecut=    33.07 Ry     beta=0.60
     Davidson diagonalization with overlap
     c_bands:  1 eigenvalues not converged
     ethr =  1.97E-08,  avg # of iterations =  5.2

     total cpu time spent up to now is     3435.5 secs

     total energy              =    -703.84952528 Ry
     Harris-Foulkes estimate   =    -703.84952540 Ry
     estimated scf accuracy    <       0.00000196 Ry

     iteration # 19     ecut=    33.07 Ry     beta=0.60
     Davidson diagonalization with overlap
     ethr =  2.62E-09,  avg # of iterations =  6.1

     total cpu time spent up to now is     3482.5 secs

     total energy              =    -703.84952559 Ry
     Harris-Foulkes estimate   =    -703.84952564 Ry
     estimated scf accuracy    <       0.00000030 Ry

     iteration # 20     ecut=    33.07 Ry     beta=0.60
     Davidson diagonalization with overlap
     ethr =  3.99E-10,  avg # of iterations =  6.4

     total cpu time spent up to now is     3524.5 secs

     total energy              =    -703.84952560 Ry
     Harris-Foulkes estimate   =    -703.84952563 Ry
     estimated scf accuracy    <       0.00000022 Ry

     iteration # 21     ecut=    33.07 Ry     beta=0.60
     Davidson diagonalization with overlap
     c_bands:  1 eigenvalues not converged
     ethr =  2.95E-10,  avg # of iterations =  4.3

     total cpu time spent up to now is     3557.6 secs

     total energy              =    -703.84952561 Ry
     Harris-Foulkes estimate   =    -703.84952561 Ry
     estimated scf accuracy    <       0.00000002 Ry

     iteration # 22     ecut=    33.07 Ry     beta=0.60
     Davidson diagonalization with overlap
     ethr =  3.15E-11,  avg # of iterations =  6.9

     total cpu time spent up to now is     3612.7 secs

     total energy              =    -703.84952561 Ry
     Harris-Foulkes estimate   =    -703.84952562 Ry
     estimated scf accuracy    <       0.00000002 Ry

     iteration # 23     ecut=    33.07 Ry     beta=0.60
     Davidson diagonalization with overlap
     ethr =  3.03E-11,  avg # of iterations =  1.2

     total cpu time spent up to now is     3641.8 secs

     total energy              =    -703.84952561 Ry
     Harris-Foulkes estimate   =    -703.84952561 Ry
     estimated scf accuracy    <          3.6E-09 Ry

     iteration # 24     ecut=    33.07 Ry     beta=0.60
     Davidson diagonalization with overlap
     ethr =  4.80E-12,  avg # of iterations =  6.6

     total cpu time spent up to now is     3694.5 secs

     total energy              =    -703.84952561 Ry
     Harris-Foulkes estimate   =    -703.84952561 Ry
     estimated scf accuracy    <          3.4E-09 Ry

     iteration # 25     ecut=    33.07 Ry     beta=0.60
     Davidson diagonalization with overlap
     ethr =  4.57E-12,  avg # of iterations =  1.0

     total cpu time spent up to now is     3723.3 secs

     total energy              =    -703.84952561 Ry
     Harris-Foulkes estimate   =    -703.84952561 Ry
     estimated scf accuracy    <          1.1E-09 Ry

     iteration # 26     ecut=    33.07 Ry     beta=0.60
     Davidson diagonalization with overlap
     ethr =  1.47E-12,  avg # of iterations =  6.7

     total cpu time spent up to now is     3768.1 secs

     End of self-consistent calculation

     Number of k-points >= 100: set verbosity='high' to print the bands.

     the Fermi energy is    14.9016 ev

!    total energy              =    -703.84952561 Ry
     Harris-Foulkes estimate   =    -703.84952561 Ry
     estimated scf accuracy    <          2.2E-11 Ry

     The total energy is the sum of the following terms:

     one-electron contribution =    -190.98371497 Ry
     hartree contribution      =     124.20467866 Ry
     xc contribution           =     -98.61644947 Ry
     ewald contribution        =    -537.92849872 Ry
     smearing contrib. (-TS)   =      -0.52554112 Ry

     convergence has been achieved in  26 iterations

     Forces acting on atoms (Ry/au):

     atom    1 type  1   force =     0.00072092    0.00041622    0.00000000
     atom    2 type  2   force =    -0.00024047   -0.00013884    0.00000000
     atom    3 type  2   force =     0.00015939    0.00009202    0.00000000
     atom    4 type  1   force =    -0.00033513   -0.00019349    0.00000000
     atom    5 type  2   force =     0.00014414    0.00008322    0.00000000
     atom    6 type  1   force =    -0.00044885   -0.00025914    0.00000000

     Total force =     0.001118     Total SCF correction =     0.000012


     entering subroutine stress ...

          total   stress  (Ry/bohr**3)                   (kbar)     P=    2.53
   0.00001184   0.00001046   0.00000000          1.74      1.54      0.00
   0.00001046  -0.00000024   0.00000000          1.54     -0.04      0.00
   0.00000000   0.00000000   0.00003998          0.00      0.00      5.88


     number of scf cycles    =   3
     number of bfgs steps    =   2

     enthalpy old            =    -703.8477409573 Ry
     enthalpy new            =    -703.8495256137 Ry

     CASE: enthalpy_new < enthalpy_old

     new trust radius        =       0.0061837350 bohr
     new conv_thr            =            7.2E-11 Ry

     new unit-cell volume =    768.14555 a.u.^3 (   113.82742 Ang^3 )

CELL_PARAMETERS (alat=  1.88972599)
   5.989875742   5.181280924   0.000000000
  -7.482058456  -2.596744465   0.000000000
   0.000000000   0.000000000   4.903719880

ATOMIC_POSITIONS (angstrom)
Nb      -1.488708881   2.586542078   4.903719880
Ti      -1.493109351   0.860975436   2.451859940
Ti       1.496904935   2.587262835   4.903719880
Nb      -5.984519552  -1.732141637   2.451859940
Ti      -2.990962098  -0.003808589   4.903719880
Nb       2.992437567   3.450707341   2.451859940


     NEW-OLD atomic charge density approx. for the potential

     Check: negative/imaginary core charge=   -0.000001    0.000000
     extrapolated charge   75.14050, renormalised to   75.00000

     total cpu time spent up to now is     3780.9 secs

     per-process dynamical memory:   107.9 Mb

     Self-consistent Calculation

     iteration #  1     ecut=    33.07 Ry     beta=0.60
     Davidson diagonalization with overlap
     ethr =  1.00E-06,  avg # of iterations =  6.1

     total cpu time spent up to now is     3845.4 secs

     total energy              =    -703.84748549 Ry
     Harris-Foulkes estimate   =    -703.59483783 Ry
     estimated scf accuracy    <       0.00183672 Ry

     iteration #  2     ecut=    33.07 Ry     beta=0.60
     Davidson diagonalization with overlap
     c_bands:  1 eigenvalues not converged
     c_bands:  2 eigenvalues not converged
     c_bands:  1 eigenvalues not converged
     c_bands:  1 eigenvalues not converged
     c_bands:  1 eigenvalues not converged
     c_bands:  1 eigenvalues not converged
     c_bands:  2 eigenvalues not converged
     c_bands:  1 eigenvalues not converged
     ethr =  2.45E-06,  avg # of iterations = 11.4

     total cpu time spent up to now is     3917.9 secs

     total energy              =    -703.84663024 Ry
     Harris-Foulkes estimate   =    -703.85358393 Ry
     estimated scf accuracy    <       0.04267395 Ry

     iteration #  3     ecut=    33.07 Ry     beta=0.60
     Davidson diagonalization with overlap
     ethr =  2.45E-06,  avg # of iterations =  6.9

     total cpu time spent up to now is     3980.0 secs

     total energy              =    -703.84885050 Ry
     Harris-Foulkes estimate   =    -703.85031481 Ry
     estimated scf accuracy    <       0.00975900 Ry

     iteration #  4     ecut=    33.07 Ry     beta=0.60
     Davidson diagonalization with overlap
     ethr =  2.45E-06,  avg # of iterations =  6.4

     total cpu time spent up to now is     4031.8 secs

     total energy              =    -703.84925277 Ry
     Harris-Foulkes estimate   =    -703.85009990 Ry
     estimated scf accuracy    <       0.00797547 Ry

     iteration #  5     ecut=    33.07 Ry     beta=0.60
     Davidson diagonalization with overlap
     ethr =  2.45E-06,  avg # of iterations =  6.6

     total cpu time spent up to now is     4077.1 secs

     total energy              =    -703.84961241 Ry
     Harris-Foulkes estimate   =    -703.84969346 Ry
     estimated scf accuracy    <       0.00108646 Ry

     iteration #  6     ecut=    33.07 Ry     beta=0.60
     Davidson diagonalization with overlap
     ethr =  1.45E-06,  avg # of iterations =  1.4

     total cpu time spent up to now is     4106.2 secs

     total energy              =    -703.84962880 Ry
     Harris-Foulkes estimate   =    -703.84964970 Ry
     estimated scf accuracy    <       0.00059237 Ry

     iteration #  7     ecut=    33.07 Ry     beta=0.60
     Davidson diagonalization with overlap
     ethr =  7.90E-07,  avg # of iterations =  1.4

     total cpu time spent up to now is     4135.3 secs

     total energy              =    -703.84959323 Ry
     Harris-Foulkes estimate   =    -703.84963672 Ry
     estimated scf accuracy    <       0.00048666 Ry

     iteration #  8     ecut=    33.07 Ry     beta=0.60
     Davidson diagonalization with overlap
     c_bands:  1 eigenvalues not converged
     ethr =  6.49E-07,  avg # of iterations =  1.5

     total cpu time spent up to now is     4164.7 secs

     total energy              =    -703.84957275 Ry
     Harris-Foulkes estimate   =    -703.84959873 Ry
     estimated scf accuracy    <       0.00032631 Ry

     iteration #  9     ecut=    33.07 Ry     beta=0.60
     Davidson diagonalization with overlap
     c_bands:  1 eigenvalues not converged
     ethr =  4.35E-07,  avg # of iterations =  3.8

     total cpu time spent up to now is     4197.0 secs

     total energy              =    -703.84954608 Ry
     Harris-Foulkes estimate   =    -703.84957894 Ry
     estimated scf accuracy    <       0.00018954 Ry

     iteration # 10     ecut=    33.07 Ry     beta=0.60
     Davidson diagonalization with overlap
     ethr =  2.53E-07,  avg # of iterations =  5.7

     total cpu time spent up to now is     4235.9 secs

     total energy              =    -703.84954767 Ry
     Harris-Foulkes estimate   =    -703.84955838 Ry
     estimated scf accuracy    <       0.00003392 Ry

     iteration # 11     ecut=    33.07 Ry     beta=0.60
     Davidson diagonalization with overlap
     ethr =  4.52E-08,  avg # of iterations =  6.3

     total cpu time spent up to now is     4288.3 secs

     total energy              =    -703.84955604 Ry
     Harris-Foulkes estimate   =    -703.84955758 Ry
     estimated scf accuracy    <       0.00001134 Ry

     iteration # 12     ecut=    33.07 Ry     beta=0.60
     Davidson diagonalization with overlap
     ethr =  1.51E-08,  avg # of iterations =  1.9

     total cpu time spent up to now is     4318.2 secs

     total energy              =    -703.84955569 Ry
     Harris-Foulkes estimate   =    -703.84955646 Ry
     estimated scf accuracy    <       0.00000294 Ry

     iteration # 13     ecut=    33.07 Ry     beta=0.60
     Davidson diagonalization with overlap
     ethr =  3.92E-09,  avg # of iterations =  6.2

     total cpu time spent up to now is     4370.4 secs

     total energy              =    -703.84955655 Ry
     Harris-Foulkes estimate   =    -703.84955729 Ry
     estimated scf accuracy    <       0.00000705 Ry

     iteration # 14     ecut=    33.07 Ry     beta=0.60
     Davidson diagonalization with overlap
     ethr =  3.92E-09,  avg # of iterations =  1.7

     total cpu time spent up to now is     4399.9 secs

     total energy              =    -703.84955650 Ry
     Harris-Foulkes estimate   =    -703.84955668 Ry
     estimated scf accuracy    <       0.00000291 Ry

     iteration # 15     ecut=    33.07 Ry     beta=0.60
     Davidson diagonalization with overlap
     ethr =  3.88E-09,  avg # of iterations =  5.2

     total cpu time spent up to now is     4435.5 secs

     total energy              =    -703.84955655 Ry
     Harris-Foulkes estimate   =    -703.84955662 Ry
     estimated scf accuracy    <       0.00000103 Ry

     iteration # 16     ecut=    33.07 Ry     beta=0.60
     Davidson diagonalization with overlap
     ethr =  1.37E-09,  avg # of iterations =  5.4

     total cpu time spent up to now is     4476.3 secs

     total energy              =    -703.84955667 Ry
     Harris-Foulkes estimate   =    -703.84955666 Ry
     estimated scf accuracy    <       0.00000027 Ry

     iteration # 17     ecut=    33.07 Ry     beta=0.60
     Davidson diagonalization with overlap
     ethr =  3.63E-10,  avg # of iterations =  3.1

     total cpu time spent up to now is     4507.9 secs

     total energy              =    -703.84955669 Ry
     Harris-Foulkes estimate   =    -703.84955668 Ry
     estimated scf accuracy    <       0.00000032 Ry

     iteration # 18     ecut=    33.07 Ry     beta=0.60
     Davidson diagonalization with overlap
     ethr =  3.63E-10,  avg # of iterations =  6.0

     total cpu time spent up to now is     4551.8 secs

     total energy              =    -703.84955660 Ry
     Harris-Foulkes estimate   =    -703.84955673 Ry
     estimated scf accuracy    <       0.00000090 Ry

     iteration # 19     ecut=    33.07 Ry     beta=0.60
     Davidson diagonalization with overlap
     ethr =  3.63E-10,  avg # of iterations =  6.1

     total cpu time spent up to now is     4601.5 secs

     total energy              =    -703.84955663 Ry
     Harris-Foulkes estimate   =    -703.84955668 Ry
     estimated scf accuracy    <       0.00000048 Ry

     iteration # 20     ecut=    33.07 Ry     beta=0.60
     Davidson diagonalization with overlap
     c_bands:  1 eigenvalues not converged
     c_bands:  1 eigenvalues not converged
     c_bands:  1 eigenvalues not converged
     ethr =  3.63E-10,  avg # of iterations =  4.5

     total cpu time spent up to now is     4634.9 secs

     total energy              =    -703.84955663 Ry
     Harris-Foulkes estimate   =    -703.84955664 Ry
     estimated scf accuracy    <       0.00000014 Ry

     iteration # 21     ecut=    33.07 Ry     beta=0.60
     Davidson diagonalization with overlap
     c_bands:  1 eigenvalues not converged
     c_bands:  1 eigenvalues not converged
     ethr =  1.80E-10,  avg # of iterations =  6.2

     total cpu time spent up to now is     4678.7 secs

     total energy              =    -703.84955665 Ry
     Harris-Foulkes estimate   =    -703.84955665 Ry
     estimated scf accuracy    <       0.00000001 Ry

     iteration # 22     ecut=    33.07 Ry     beta=0.60
     Davidson diagonalization with overlap
     ethr =  1.95E-11,  avg # of iterations =  6.6

     total cpu time spent up to now is     4731.0 secs

     total energy              =    -703.84955664 Ry
     Harris-Foulkes estimate   =    -703.84955665 Ry
     estimated scf accuracy    <       0.00000008 Ry

     iteration # 23     ecut=    33.07 Ry     beta=0.60
     Davidson diagonalization with overlap
     ethr =  1.95E-11,  avg # of iterations =  4.0

     total cpu time spent up to now is     4764.3 secs

     total energy              =    -703.84955664 Ry
     Harris-Foulkes estimate   =    -703.84955665 Ry
     estimated scf accuracy    <       0.00000003 Ry

     iteration # 24     ecut=    33.07 Ry     beta=0.60
     Davidson diagonalization with overlap
     ethr =  1.95E-11,  avg # of iterations =  6.3

     total cpu time spent up to now is     4813.6 secs

     total energy              =    -703.84955664 Ry
     Harris-Foulkes estimate   =    -703.84955664 Ry
     estimated scf accuracy    <          3.5E-09 Ry

     iteration # 25     ecut=    33.07 Ry     beta=0.60
     Davidson diagonalization with overlap
     ethr =  4.70E-12,  avg # of iterations =  1.8

     total cpu time spent up to now is     4843.3 secs

     total energy              =    -703.84955664 Ry
     Harris-Foulkes estimate   =    -703.84955664 Ry
     estimated scf accuracy    <          1.5E-09 Ry

     iteration # 26     ecut=    33.07 Ry     beta=0.60
     Davidson diagonalization with overlap
     ethr =  2.03E-12,  avg # of iterations =  5.9

     total cpu time spent up to now is     4886.1 secs

     End of self-consistent calculation

     Number of k-points >= 100: set verbosity='high' to print the bands.

     the Fermi energy is    14.8689 ev

!    total energy              =    -703.84955664 Ry
     Harris-Foulkes estimate   =    -703.84955664 Ry
     estimated scf accuracy    <          4.5E-11 Ry

     The total energy is the sum of the following terms:

     one-electron contribution =    -191.49902818 Ry
     hartree contribution      =     124.36036892 Ry
     xc contribution           =     -98.60657316 Ry
     ewald contribution        =    -537.57728610 Ry
     smearing contrib. (-TS)   =      -0.52703812 Ry

     convergence has been achieved in  26 iterations

     Forces acting on atoms (Ry/au):

     atom    1 type  1   force =     0.00076732    0.00044301    0.00000000
     atom    2 type  2   force =    -0.00023040   -0.00013302    0.00000000
     atom    3 type  2   force =     0.00013845    0.00007993    0.00000000
     atom    4 type  1   force =    -0.00033104   -0.00019113    0.00000000
     atom    5 type  2   force =     0.00022010    0.00012707    0.00000000
     atom    6 type  1   force =    -0.00056442   -0.00032587    0.00000000

     Total force =     0.001232     Total SCF correction =     0.000025


     entering subroutine stress ...

          total   stress  (Ry/bohr**3)                   (kbar)     P=    0.32
  -0.00000164   0.00000945   0.00000000         -0.24      1.39      0.00
   0.00000945  -0.00001255   0.00000000          1.39     -1.85      0.00
   0.00000000   0.00000000   0.00002074          0.00      0.00      3.05


     number of scf cycles    =   4
     number of bfgs steps    =   3

     enthalpy old            =    -703.8495256137 Ry
     enthalpy new            =    -703.8495566444 Ry

     CASE: enthalpy_new < enthalpy_old

     new trust radius        =       0.0079327048 bohr
     new conv_thr            =            7.7E-11 Ry

     new unit-cell volume =    768.97621 a.u.^3 (   113.95052 Ang^3 )

CELL_PARAMETERS (alat=  1.88972599)
   5.993456848   5.181982638   0.000000000
  -7.484456710  -2.599494936   0.000000000
   0.000000000   0.000000000   4.910737587

ATOMIC_POSITIONS (angstrom)
Nb      -1.486660517   2.584993024   4.910737587
Ti      -1.493123446   0.859601461   2.455368793
Ti       1.498665174   2.586913271   4.910737587
Nb      -5.986639242  -1.734731278   2.455368793
Ti      -2.991133734  -0.005273522   4.910737587
Nb       2.994077804   3.450288495   2.455368793


     NEW-OLD atomic charge density approx. for the potential

     Check: negative/imaginary core charge=   -0.000001    0.000000
     extrapolated charge   75.07777, renormalised to   75.00000

     total cpu time spent up to now is     4898.9 secs

     per-process dynamical memory:   107.9 Mb

     Self-consistent Calculation

     iteration #  1     ecut=    33.07 Ry     beta=0.60
     Davidson diagonalization with overlap
     ethr =  1.00E-06,  avg # of iterations =  4.3

     total cpu time spent up to now is     4960.7 secs

     total energy              =    -703.84898941 Ry
     Harris-Foulkes estimate   =    -703.70833039 Ry
     estimated scf accuracy    <       0.00051984 Ry

     iteration #  2     ecut=    33.07 Ry     beta=0.60
     Davidson diagonalization with overlap
     c_bands:  2 eigenvalues not converged
     c_bands:  2 eigenvalues not converged
     c_bands:  1 eigenvalues not converged
     c_bands:  1 eigenvalues not converged
     c_bands:  1 eigenvalues not converged
     c_bands:  1 eigenvalues not converged
     c_bands:  2 eigenvalues not converged
     c_bands:  1 eigenvalues not converged
     ethr =  6.93E-07,  avg # of iterations = 11.2

     total cpu time spent up to now is     5033.2 secs

     total energy              =    -703.84879433 Ry
     Harris-Foulkes estimate   =    -703.85064792 Ry
     estimated scf accuracy    <       0.01119019 Ry

     iteration #  3     ecut=    33.07 Ry     beta=0.60
     Davidson diagonalization with overlap
     ethr =  6.93E-07,  avg # of iterations =  6.9

     total cpu time spent up to now is     5094.7 secs

     total energy              =    -703.84934334 Ry
     Harris-Foulkes estimate   =    -703.84984085 Ry
     estimated scf accuracy    <       0.00359721 Ry

     iteration #  4     ecut=    33.07 Ry     beta=0.60
     Davidson diagonalization with overlap
     ethr =  6.93E-07,  avg # of iterations =  6.5

     total cpu time spent up to now is     5147.4 secs

     total energy              =    -703.84950312 Ry
     Harris-Foulkes estimate   =    -703.84973713 Ry
     estimated scf accuracy    <       0.00204780 Ry

     iteration #  5     ecut=    33.07 Ry     beta=0.60
     Davidson diagonalization with overlap
     ethr =  6.93E-07,  avg # of iterations =  6.5

     total cpu time spent up to now is     5192.9 secs

     total energy              =    -703.84960205 Ry
     Harris-Foulkes estimate   =    -703.84962579 Ry
     estimated scf accuracy    <       0.00032943 Ry

     iteration #  6     ecut=    33.07 Ry     beta=0.60
     Davidson diagonalization with overlap
     ethr =  4.39E-07,  avg # of iterations =  1.3

     total cpu time spent up to now is     5222.0 secs

     total energy              =    -703.84960638 Ry
     Harris-Foulkes estimate   =    -703.84961300 Ry
     estimated scf accuracy    <       0.00016406 Ry

     iteration #  7     ecut=    33.07 Ry     beta=0.60
     Davidson diagonalization with overlap
     ethr =  2.19E-07,  avg # of iterations =  1.8

     total cpu time spent up to now is     5251.8 secs

     total energy              =    -703.84959220 Ry
     Harris-Foulkes estimate   =    -703.84960859 Ry
     estimated scf accuracy    <       0.00013580 Ry

     iteration #  8     ecut=    33.07 Ry     beta=0.60
     Davidson diagonalization with overlap
     c_bands:  1 eigenvalues not converged
     c_bands:  1 eigenvalues not converged
     ethr =  1.81E-07,  avg # of iterations =  1.8

     total cpu time spent up to now is     5281.5 secs

     total energy              =    -703.84958567 Ry
     Harris-Foulkes estimate   =    -703.84959452 Ry
     estimated scf accuracy    <       0.00007821 Ry

     iteration #  9     ecut=    33.07 Ry     beta=0.60
     Davidson diagonalization with overlap
     ethr =  1.04E-07,  avg # of iterations =  5.9

     total cpu time spent up to now is     5320.0 secs

     total energy              =    -703.84958465 Ry
     Harris-Foulkes estimate   =    -703.84958933 Ry
     estimated scf accuracy    <       0.00002798 Ry

     iteration # 10     ecut=    33.07 Ry     beta=0.60
     Davidson diagonalization with overlap
     c_bands:  1 eigenvalues not converged
     ethr =  3.73E-08,  avg # of iterations =  4.0

     total cpu time spent up to now is     5354.3 secs

     total energy              =    -703.84958366 Ry
     Harris-Foulkes estimate   =    -703.84958605 Ry
     estimated scf accuracy    <       0.00000833 Ry

     iteration # 11     ecut=    33.07 Ry     beta=0.60
     Davidson diagonalization with overlap
     ethr =  1.11E-08,  avg # of iterations =  6.2

     total cpu time spent up to now is     5405.3 secs

     total energy              =    -703.84958556 Ry
     Harris-Foulkes estimate   =    -703.84958570 Ry
     estimated scf accuracy    <       0.00000108 Ry

     iteration # 12     ecut=    33.07 Ry     beta=0.60
     Davidson diagonalization with overlap
     ethr =  1.44E-09,  avg # of iterations =  2.7

     total cpu time spent up to now is     5437.4 secs

     total energy              =    -703.84958554 Ry
     Harris-Foulkes estimate   =    -703.84958560 Ry
     estimated scf accuracy    <       0.00000033 Ry

     iteration # 13     ecut=    33.07 Ry     beta=0.60
     Davidson diagonalization with overlap
     ethr =  4.38E-10,  avg # of iterations =  5.9

     total cpu time spent up to now is     5486.8 secs

     total energy              =    -703.84958560 Ry
     Harris-Foulkes estimate   =    -703.84958563 Ry
     estimated scf accuracy    <       0.00000018 Ry

     iteration # 14     ecut=    33.07 Ry     beta=0.60
     Davidson diagonalization with overlap
     ethr =  2.36E-10,  avg # of iterations =  1.7

     total cpu time spent up to now is     5516.5 secs

     total energy              =    -703.84958561 Ry
     Harris-Foulkes estimate   =    -703.84958561 Ry
     estimated scf accuracy    <       0.00000004 Ry

     iteration # 15     ecut=    33.07 Ry     beta=0.60
     Davidson diagonalization with overlap
     ethr =  4.90E-11,  avg # of iterations =  5.8

     total cpu time spent up to now is     5565.0 secs

     total energy              =    -703.84958562 Ry
     Harris-Foulkes estimate   =    -703.84958561 Ry
     estimated scf accuracy    <          4.5E-09 Ry

     iteration # 16     ecut=    33.07 Ry     beta=0.60
     Davidson diagonalization with overlap
     ethr =  6.05E-12,  avg # of iterations =  5.9

     total cpu time spent up to now is     5603.2 secs

     total energy              =    -703.84958561 Ry
     Harris-Foulkes estimate   =    -703.84958562 Ry
     estimated scf accuracy    <       0.00000001 Ry

     iteration # 17     ecut=    33.07 Ry     beta=0.60
     Davidson diagonalization with overlap
     ethr =  6.05E-12,  avg # of iterations =  6.3

     total cpu time spent up to now is     5650.3 secs

     total energy              =    -703.84958561 Ry
     Harris-Foulkes estimate   =    -703.84958561 Ry
     estimated scf accuracy    <          3.2E-10 Ry

     iteration # 18     ecut=    33.07 Ry     beta=0.60
     Davidson diagonalization with overlap
     ethr =  4.26E-13,  avg # of iterations =  6.9

     total cpu time spent up to now is     5699.9 secs

     total energy              =    -703.84958561 Ry
     Harris-Foulkes estimate   =    -703.84958561 Ry
     estimated scf accuracy    <          1.7E-10 Ry

     iteration # 19     ecut=    33.07 Ry     beta=0.60
     Davidson diagonalization with overlap
     c_bands:  1 eigenvalues not converged
     ethr =  2.28E-13,  avg # of iterations =  1.8

     total cpu time spent up to now is     5729.5 secs

     total energy              =    -703.84958561 Ry
     Harris-Foulkes estimate   =    -703.84958561 Ry
     estimated scf accuracy    <          1.4E-10 Ry

     iteration # 20     ecut=    33.07 Ry     beta=0.60
     Davidson diagonalization with overlap
     ethr =  1.84E-13,  avg # of iterations =  1.1

     total cpu time spent up to now is     5758.2 secs

     total energy              =    -703.84958561 Ry
     Harris-Foulkes estimate   =    -703.84958561 Ry
     estimated scf accuracy    <          9.4E-11 Ry

     iteration # 21     ecut=    33.07 Ry     beta=0.60
     Davidson diagonalization with overlap
     ethr =  1.26E-13,  avg # of iterations =  3.9

     total cpu time spent up to now is     5790.8 secs

     End of self-consistent calculation

     Number of k-points >= 100: set verbosity='high' to print the bands.

     the Fermi energy is    14.8507 ev

!    total energy              =    -703.84958561 Ry
     Harris-Foulkes estimate   =    -703.84958561 Ry
     estimated scf accuracy    <          3.0E-11 Ry

     The total energy is the sum of the following terms:

     one-electron contribution =    -191.79039858 Ry
     hartree contribution      =     124.44934271 Ry
     xc contribution           =     -98.60118711 Ry
     ewald contribution        =    -537.37956435 Ry
     smearing contrib. (-TS)   =      -0.52777828 Ry

     convergence has been achieved in  21 iterations

     Forces acting on atoms (Ry/au):

     atom    1 type  1   force =     0.00076319    0.00044063    0.00000000
     atom    2 type  2   force =    -0.00032700   -0.00018879    0.00000000
     atom    3 type  2   force =     0.00024919    0.00014387    0.00000000
     atom    4 type  1   force =    -0.00040796   -0.00023553    0.00000000
     atom    5 type  2   force =     0.00038104    0.00022000    0.00000000
     atom    6 type  1   force =    -0.00065847   -0.00038017    0.00000000

     Total force =     0.001413     Total SCF correction =     0.000004


     entering subroutine stress ...

          total   stress  (Ry/bohr**3)                   (kbar)     P=   -0.87
  -0.00000621   0.00000757   0.00000000         -0.91      1.11      0.00
   0.00000757  -0.00001495   0.00000000          1.11     -2.20      0.00
   0.00000000   0.00000000   0.00000342          0.00      0.00      0.50


     number of scf cycles    =   5
     number of bfgs steps    =   4

     enthalpy old            =    -703.8495566444 Ry
     enthalpy new            =    -703.8495856146 Ry

     CASE: enthalpy_new < enthalpy_old

     new trust radius        =       0.0082570520 bohr
     new conv_thr            =            7.6E-11 Ry

     new unit-cell volume =    769.07829 a.u.^3 (   113.96564 Ang^3 )

CELL_PARAMETERS (alat=  1.88972599)
   5.996705809   5.181012833   0.000000000
  -7.485241315  -2.602793521   0.000000000
   0.000000000   0.000000000   4.918048730

ATOMIC_POSITIONS (angstrom)
Nb      -1.482685139   2.581597023   4.918048730
Ti      -1.492656362   0.857025542   2.459024365
Ti       1.500941419   2.585381868   4.918048730
Nb      -5.987698754  -1.738188578   2.459024365
Ti      -2.990018016  -0.007474955   4.918048730
Nb       2.995255871   3.448123062   2.459024365


     NEW-OLD atomic charge density approx. for the potential

     Check: negative/imaginary core charge=   -0.000001    0.000000
     extrapolated charge   75.00956, renormalised to   75.00000

     total cpu time spent up to now is     5803.6 secs

     per-process dynamical memory:   107.9 Mb

     Self-consistent Calculation

     iteration #  1     ecut=    33.07 Ry     beta=0.60
     Davidson diagonalization with overlap
     ethr =  1.00E-06,  avg # of iterations =  3.3

     Threshold (ethr) on eigenvalues was too large:
     Diagonalizing with lowered threshold

     Davidson diagonalization with overlap
     c_bands:  1 eigenvalues not converged
     ethr =  2.32E-08,  avg # of iterations =  8.2

     total cpu time spent up to now is     5911.4 secs

     total energy              =    -703.84959231 Ry
     Harris-Foulkes estimate   =    -703.83223783 Ry
     estimated scf accuracy    <       0.00001986 Ry

     iteration #  2     ecut=    33.07 Ry     beta=0.60
     Davidson diagonalization with overlap
     c_bands:  2 eigenvalues not converged
     c_bands:  1 eigenvalues not converged
     c_bands:  2 eigenvalues not converged
     c_bands:  1 eigenvalues not converged
     ethr =  2.65E-08,  avg # of iterations =  7.4

     total cpu time spent up to now is     5979.9 secs

     total energy              =    -703.84954125 Ry
     Harris-Foulkes estimate   =    -703.84966924 Ry
     estimated scf accuracy    <       0.00131747 Ry

     iteration #  3     ecut=    33.07 Ry     beta=0.60
     Davidson diagonalization with overlap
     ethr =  2.65E-08,  avg # of iterations =  6.8

     total cpu time spent up to now is     6041.4 secs

     total energy              =    -703.84960078 Ry
     Harris-Foulkes estimate   =    -703.84961358 Ry
     estimated scf accuracy    <       0.00007950 Ry

     iteration #  4     ecut=    33.07 Ry     beta=0.60
     Davidson diagonalization with overlap
     ethr =  2.65E-08,  avg # of iterations =  6.7

     total cpu time spent up to now is     6093.8 secs

     total energy              =    -703.84960358 Ry
     Harris-Foulkes estimate   =    -703.84960981 Ry
     estimated scf accuracy    <       0.00003263 Ry

     iteration #  5     ecut=    33.07 Ry     beta=0.60
     Davidson diagonalization with overlap
     ethr =  2.65E-08,  avg # of iterations =  7.0

     total cpu time spent up to now is     6141.7 secs

     total energy              =    -703.84960421 Ry
     Harris-Foulkes estimate   =    -703.84960971 Ry
     estimated scf accuracy    <       0.00005763 Ry

     iteration #  6     ecut=    33.07 Ry     beta=0.60
     Davidson diagonalization with overlap
     c_bands:  1 eigenvalues not converged
     ethr =  2.65E-08,  avg # of iterations =  6.9

     total cpu time spent up to now is     6181.6 secs

     total energy              =    -703.84960659 Ry
     Harris-Foulkes estimate   =    -703.84960716 Ry
     estimated scf accuracy    <       0.00000226 Ry

     iteration #  7     ecut=    33.07 Ry     beta=0.60
     Davidson diagonalization with overlap
     ethr =  3.02E-09,  avg # of iterations =  6.6

     total cpu time spent up to now is     6236.4 secs

     total energy              =    -703.84960648 Ry
     Harris-Foulkes estimate   =    -703.84960779 Ry
     estimated scf accuracy    <       0.00000852 Ry

     iteration #  8     ecut=    33.07 Ry     beta=0.60
     Davidson diagonalization with overlap
     ethr =  3.02E-09,  avg # of iterations =  6.6

     total cpu time spent up to now is     6285.6 secs

     total energy              =    -703.84960706 Ry
     Harris-Foulkes estimate   =    -703.84960715 Ry
     estimated scf accuracy    <       0.00000065 Ry

     iteration #  9     ecut=    33.07 Ry     beta=0.60
     Davidson diagonalization with overlap
     c_bands:  1 eigenvalues not converged
     c_bands:  1 eigenvalues not converged
     c_bands:  1 eigenvalues not converged
     ethr =  8.71E-10,  avg # of iterations =  5.9

     total cpu time spent up to now is     6324.7 secs

     total energy              =    -703.84960708 Ry
     Harris-Foulkes estimate   =    -703.84960713 Ry
     estimated scf accuracy    <       0.00000038 Ry

     iteration # 10     ecut=    33.07 Ry     beta=0.60
     Davidson diagonalization with overlap
     ethr =  5.03E-10,  avg # of iterations =  4.0

     total cpu time spent up to now is     6357.3 secs

     total energy              =    -703.84960710 Ry
     Harris-Foulkes estimate   =    -703.84960710 Ry
     estimated scf accuracy    <       0.00000006 Ry

     iteration # 11     ecut=    33.07 Ry     beta=0.60
     Davidson diagonalization with overlap
     ethr =  8.38E-11,  avg # of iterations =  6.6

     total cpu time spent up to now is     6409.1 secs

     total energy              =    -703.84960711 Ry
     Harris-Foulkes estimate   =    -703.84960711 Ry
     estimated scf accuracy    <       0.00000005 Ry

     iteration # 12     ecut=    33.07 Ry     beta=0.60
     Davidson diagonalization with overlap
     ethr =  7.22E-11,  avg # of iterations =  1.2

     total cpu time spent up to now is     6437.9 secs

     total energy              =    -703.84960711 Ry
     Harris-Foulkes estimate   =    -703.84960711 Ry
     estimated scf accuracy    <       0.00000002 Ry

     iteration # 13     ecut=    33.07 Ry     beta=0.60
     Davidson diagonalization with overlap
     ethr =  2.12E-11,  avg # of iterations =  6.2

     total cpu time spent up to now is     6482.8 secs

     total energy              =    -703.84960711 Ry
     Harris-Foulkes estimate   =    -703.84960711 Ry
     estimated scf accuracy    <       0.00000004 Ry

     iteration # 14     ecut=    33.07 Ry     beta=0.60
     Davidson diagonalization with overlap
     ethr =  2.12E-11,  avg # of iterations =  7.1

     total cpu time spent up to now is     6524.8 secs

     total energy              =    -703.84960711 Ry
     Harris-Foulkes estimate   =    -703.84960711 Ry
     estimated scf accuracy    <       0.00000001 Ry

     iteration # 15     ecut=    33.07 Ry     beta=0.60
     Davidson diagonalization with overlap
     ethr =  1.47E-11,  avg # of iterations =  2.1

     total cpu time spent up to now is     6554.8 secs

     total energy              =    -703.84960711 Ry
     Harris-Foulkes estimate   =    -703.84960711 Ry
     estimated scf accuracy    <          2.7E-09 Ry

     iteration # 16     ecut=    33.07 Ry     beta=0.60
     Davidson diagonalization with overlap
     ethr =  3.66E-12,  avg # of iterations =  6.5

     total cpu time spent up to now is     6602.1 secs

     total energy              =    -703.84960711 Ry
     Harris-Foulkes estimate   =    -703.84960711 Ry
     estimated scf accuracy    <          4.6E-10 Ry

     iteration # 17     ecut=    33.07 Ry     beta=0.60
     Davidson diagonalization with overlap
     c_bands:  1 eigenvalues not converged
     ethr =  6.07E-13,  avg # of iterations =  3.1

     total cpu time spent up to now is     6634.0 secs

     total energy              =    -703.84960711 Ry
     Harris-Foulkes estimate   =    -703.84960711 Ry
     estimated scf accuracy    <          3.4E-10 Ry

     iteration # 18     ecut=    33.07 Ry     beta=0.60
     Davidson diagonalization with overlap
     ethr =  4.54E-13,  avg # of iterations =  1.3

     total cpu time spent up to now is     6663.1 secs

     total energy              =    -703.84960711 Ry
     Harris-Foulkes estimate   =    -703.84960711 Ry
     estimated scf accuracy    <          2.0E-10 Ry

     iteration # 19     ecut=    33.07 Ry     beta=0.60
     Davidson diagonalization with overlap
     ethr =  2.71E-13,  avg # of iterations =  3.7

     total cpu time spent up to now is     6695.4 secs

     total energy              =    -703.84960711 Ry
     Harris-Foulkes estimate   =    -703.84960711 Ry
     estimated scf accuracy    <          9.3E-11 Ry

     iteration # 20     ecut=    33.07 Ry     beta=0.60
     Davidson diagonalization with overlap
     ethr =  1.25E-13,  avg # of iterations =  6.7

     total cpu time spent up to now is     6740.2 secs

     End of self-consistent calculation

     Number of k-points >= 100: set verbosity='high' to print the bands.

     the Fermi energy is    14.8484 ev

!    total energy              =    -703.84960711 Ry
     Harris-Foulkes estimate   =    -703.84960711 Ry
     estimated scf accuracy    <          5.1E-12 Ry

     The total energy is the sum of the following terms:

     one-electron contribution =    -191.84000759 Ry
     hartree contribution      =     124.46728693 Ry
     xc contribution           =     -98.60087305 Ry
     ewald contribution        =    -537.34833741 Ry
     smearing contrib. (-TS)   =      -0.52767598 Ry

     convergence has been achieved in  20 iterations

     Forces acting on atoms (Ry/au):

     atom    1 type  1   force =     0.00066895    0.00038622    0.00000000
     atom    2 type  2   force =    -0.00049830   -0.00028769    0.00000000
     atom    3 type  2   force =     0.00047412    0.00027373    0.00000000
     atom    4 type  1   force =    -0.00054049   -0.00031205    0.00000000
     atom    5 type  2   force =     0.00057037    0.00032930    0.00000000
     atom    6 type  1   force =    -0.00067465   -0.00038951    0.00000000

     Total force =     0.001630     Total SCF correction =     0.000005


     entering subroutine stress ...

          total   stress  (Ry/bohr**3)                   (kbar)     P=   -1.00
  -0.00000293   0.00000388   0.00000000         -0.43      0.57      0.00
   0.00000388  -0.00000742   0.00000000          0.57     -1.09      0.00
   0.00000000   0.00000000  -0.00001002          0.00      0.00     -1.47


     number of scf cycles    =   6
     number of bfgs steps    =   5

     enthalpy old            =    -703.8495856146 Ry
     enthalpy new            =    -703.8496071093 Ry

     CASE: enthalpy_new < enthalpy_old

     new trust radius        =       0.0040898985 bohr
[...]
         1           Nb  tau(   1) = (  -1.4406968   2.5740818   4.9129714  )
         2           Ti  tau(   2) = (  -1.5193484   0.8257363   2.4564857  )
         3           Ti  tau(   3) = (   1.5558063   2.6011795   4.9129714  )
         4           Nb  tau(   4) = (  -6.0576462  -1.7944513   2.4564857  )
         5           Ti  tau(   5) = (  -2.9771907  -0.0159477   4.9129714  )
         6           Nb  tau(   6) = (   3.0092263   3.4403103   2.4564857  )

     number of k points=   147  Marzari-Vanderbilt smearing, width (Ry)=  0.2000

     Number of k-points >= 100: set verbosity='high' to print them.

     Dense  grid:    78029 G-vectors     FFT dimensions: (  90,  90,  60)

     Smooth grid:    19729 G-vectors     FFT dimensions: (  60,  60,  36)

     Estimated max dynamical RAM per process >      85.92Mb

     Estimated total allocated dynamical RAM >     343.67Mb

     Check: negative/imaginary core charge=   -0.000002    0.000000

     Initial potential from superposition of free atoms

     starting charge   71.99167, renormalised to   75.00000
     Starting wfc are   69 randomized atomic wfcs

     total cpu time spent up to now is    19558.7 secs

     per-process dynamical memory:    98.3 Mb

     Self-consistent Calculation

     iteration #  1     ecut=    33.07 Ry     beta=0.60
     Davidson diagonalization with overlap
     c_bands:  1 eigenvalues not converged
     c_bands:  1 eigenvalues not converged
     c_bands:  1 eigenvalues not converged
     c_bands:  2 eigenvalues not converged
     c_bands:  3 eigenvalues not converged
     c_bands:  2 eigenvalues not converged
     c_bands:  1 eigenvalues not converged
     c_bands:  1 eigenvalues not converged
     c_bands:  1 eigenvalues not converged
     c_bands:  1 eigenvalues not converged
     c_bands:  2 eigenvalues not converged
     c_bands:  1 eigenvalues not converged
     c_bands:  1 eigenvalues not converged
     c_bands:  1 eigenvalues not converged
     c_bands:  2 eigenvalues not converged
     c_bands:  1 eigenvalues not converged
     c_bands:  1 eigenvalues not converged
     c_bands:  1 eigenvalues not converged
     c_bands:  2 eigenvalues not converged
     c_bands:  2 eigenvalues not converged
     c_bands:  2 eigenvalues not converged
     c_bands:  1 eigenvalues not converged
     c_bands:  1 eigenvalues not converged
     c_bands:  1 eigenvalues not converged
     c_bands:  1 eigenvalues not converged
     c_bands:  1 eigenvalues not converged
     c_bands:  2 eigenvalues not converged
     c_bands:  2 eigenvalues not converged
     c_bands:  1 eigenvalues not converged
     c_bands:  1 eigenvalues not converged
     c_bands:  1 eigenvalues not converged
     c_bands:  2 eigenvalues not converged
     c_bands:  2 eigenvalues not converged
     c_bands:  2 eigenvalues not converged
     c_bands:  1 eigenvalues not converged
     c_bands:  1 eigenvalues not converged
     c_bands:  1 eigenvalues not converged
     c_bands:  1 eigenvalues not converged
     c_bands:  1 eigenvalues not converged
     c_bands:  1 eigenvalues not converged
     c_bands:  1 eigenvalues not converged
     c_bands:  1 eigenvalues not converged
     c_bands:  1 eigenvalues not converged
     c_bands:  1 eigenvalues not converged
     ethr =  1.00E-06,  avg # of iterations = 14.9

     total cpu time spent up to now is    19678.1 secs

     total energy              =    -675.48058343 Ry
     Harris-Foulkes estimate   =    -707.18770155 Ry
     estimated scf accuracy    <      39.26469877 Ry

     iteration #  2     ecut=    33.07 Ry     beta=0.60
     Davidson diagonalization with overlap
     ethr =  1.00E-02,  avg # of iterations =  8.6

     total cpu time spent up to now is    19756.1 secs

     total energy              =    -670.86651126 Ry
     Harris-Foulkes estimate   =    -773.00279953 Ry
     estimated scf accuracy    <     411.34466370 Ry

     iteration #  3     ecut=    33.07 Ry     beta=0.60
     Davidson diagonalization with overlap
     ethr =  1.00E-02,  avg # of iterations =  6.7

     total cpu time spent up to now is    19823.3 secs

     total energy              =    -702.79916399 Ry
     Harris-Foulkes estimate   =    -711.27628588 Ry
     estimated scf accuracy    <      37.97128777 Ry

     iteration #  4     ecut=    33.07 Ry     beta=0.60
     Davidson diagonalization with overlap
     ethr =  1.00E-02,  avg # of iterations =  5.6

     total cpu time spent up to now is    19864.8 secs

     total energy              =    -704.15041628 Ry
     Harris-Foulkes estimate   =    -706.24579859 Ry
     estimated scf accuracy    <      28.30692602 Ry

     iteration #  5     ecut=    33.07 Ry     beta=0.60
     Davidson diagonalization with overlap
     ethr =  1.00E-02,  avg # of iterations =  4.9

     total cpu time spent up to now is    19900.2 secs

     total energy              =    -704.24448229 Ry
     Harris-Foulkes estimate   =    -705.16659843 Ry
     estimated scf accuracy    <      15.27253097 Ry

     iteration #  6     ecut=    33.07 Ry     beta=0.60
     Davidson diagonalization with overlap
     ethr =  1.00E-02,  avg # of iterations =  1.3

     total cpu time spent up to now is    19929.0 secs

     total energy              =    -704.29414684 Ry
     Harris-Foulkes estimate   =    -704.42278766 Ry
     estimated scf accuracy    <       6.79365937 Ry

     iteration #  7     ecut=    33.07 Ry     beta=0.60
     Davidson diagonalization with overlap
     ethr =  9.06E-03,  avg # of iterations =  1.0

     total cpu time spent up to now is    19957.6 secs

     total energy              =    -704.14380474 Ry
     Harris-Foulkes estimate   =    -704.31866024 Ry
     estimated scf accuracy    <       6.27929364 Ry

     iteration #  8     ecut=    33.07 Ry     beta=0.60
     Davidson diagonalization with overlap
     ethr =  8.37E-03,  avg # of iterations =  1.0

     total cpu time spent up to now is    19986.2 secs

     total energy              =    -703.26197364 Ry
     Harris-Foulkes estimate   =    -704.17090574 Ry
     estimated scf accuracy    <       5.39704243 Ry

     iteration #  9     ecut=    33.07 Ry     beta=0.60
     Davidson diagonalization with overlap
     ethr =  7.20E-03,  avg # of iterations =  5.4

     total cpu time spent up to now is    20028.7 secs

     total energy              =    -703.93974954 Ry
     Harris-Foulkes estimate   =    -703.93593556 Ry
     estimated scf accuracy    <       1.95257225 Ry

     iteration # 10     ecut=    33.07 Ry     beta=0.60
     Davidson diagonalization with overlap
     ethr =  2.60E-03,  avg # of iterations =  1.5

     total cpu time spent up to now is    20057.9 secs

     total energy              =    -703.70944259 Ry
     Harris-Foulkes estimate   =    -703.96691360 Ry
     estimated scf accuracy    <       2.47055011 Ry

     iteration # 11     ecut=    33.07 Ry     beta=0.60
     Davidson diagonalization with overlap
     ethr =  2.60E-03,  avg # of iterations =  2.2

     total cpu time spent up to now is    20088.0 secs

     total energy              =    -703.81800967 Ry
     Harris-Foulkes estimate   =    -703.82280691 Ry
     estimated scf accuracy    <       0.05092975 Ry

     iteration # 12     ecut=    33.07 Ry     beta=0.60
     Davidson diagonalization with overlap
     ethr =  6.79E-05,  avg # of iterations =  6.8

     total cpu time spent up to now is    20146.5 secs

     total energy              =    -703.85296553 Ry
     Harris-Foulkes estimate   =    -703.85003772 Ry
     estimated scf accuracy    <       0.06143220 Ry

     iteration # 13     ecut=    33.07 Ry     beta=0.60
     Davidson diagonalization with overlap
     ethr =  6.79E-05,  avg # of iterations =  6.7

     total cpu time spent up to now is    20193.8 secs

     total energy              =    -703.84878452 Ry
     Harris-Foulkes estimate   =    -703.86725365 Ry
     estimated scf accuracy    <       0.30802962 Ry

     iteration # 14     ecut=    33.07 Ry     beta=0.60
     Davidson diagonalization with overlap
     ethr =  6.79E-05,  avg # of iterations =  3.4

     total cpu time spent up to now is    20225.6 secs

     total energy              =    -703.83634017 Ry
     Harris-Foulkes estimate   =    -703.85093648 Ry
     estimated scf accuracy    <       0.16906701 Ry

     iteration # 15     ecut=    33.07 Ry     beta=0.60
     Davidson diagonalization with overlap
     ethr =  6.79E-05,  avg # of iterations =  5.8

     total cpu time spent up to now is    20270.0 secs

     total energy              =    -703.84373306 Ry
     Harris-Foulkes estimate   =    -703.84628396 Ry
     estimated scf accuracy    <       0.02170797 Ry

     iteration # 16     ecut=    33.07 Ry     beta=0.60
     Davidson diagonalization with overlap
     ethr =  2.89E-05,  avg # of iterations =  7.4

     total cpu time spent up to now is    20313.5 secs

     total energy              =    -703.84391009 Ry
     Harris-Foulkes estimate   =    -703.84733027 Ry
     estimated scf accuracy    <       0.03327736 Ry

     iteration # 17     ecut=    33.07 Ry     beta=0.60
     Davidson diagonalization with overlap
     ethr =  2.89E-05,  avg # of iterations =  3.6

     total cpu time spent up to now is    20345.6 secs

     total energy              =    -703.84435778 Ry
     Harris-Foulkes estimate   =    -703.84484572 Ry
     estimated scf accuracy    <       0.00592229 Ry

     iteration # 18     ecut=    33.07 Ry     beta=0.60
     Davidson diagonalization with overlap
     ethr =  7.90E-06,  avg # of iterations =  6.7

     total cpu time spent up to now is    20392.4 secs

     total energy              =    -703.84532122 Ry
     Harris-Foulkes estimate   =    -703.84531197 Ry
     estimated scf accuracy    <       0.00045129 Ry

     iteration # 19     ecut=    33.07 Ry     beta=0.60
     Davidson diagonalization with overlap
     c_bands:  1 eigenvalues not converged
     c_bands:  1 eigenvalues not converged
     ethr =  6.02E-07,  avg # of iterations =  7.7

     total cpu time spent up to now is    20434.2 secs

     total energy              =    -703.84530547 Ry
     Harris-Foulkes estimate   =    -703.84537091 Ry
     estimated scf accuracy    <       0.00100294 Ry

     iteration # 20     ecut=    33.07 Ry     beta=0.60
     Davidson diagonalization with overlap
     ethr =  6.02E-07,  avg # of iterations =  1.2

     total cpu time spent up to now is    20463.0 secs

     total energy              =    -703.84522321 Ry
     Harris-Foulkes estimate   =    -703.84531432 Ry
     estimated scf accuracy    <       0.00058264 Ry

     iteration # 21     ecut=    33.07 Ry     beta=0.60
     Davidson diagonalization with overlap
     ethr =  6.02E-07,  avg # of iterations =  6.3

     total cpu time spent up to now is    20507.1 secs

     total energy              =    -703.84528821 Ry
     Harris-Foulkes estimate   =    -703.84529119 Ry
     estimated scf accuracy    <       0.00004600 Ry

     iteration # 22     ecut=    33.07 Ry     beta=0.60
     Davidson diagonalization with overlap
     c_bands:  1 eigenvalues not converged
     c_bands:  1 eigenvalues not converged
     ethr =  6.13E-08,  avg # of iterations =  3.6

     total cpu time spent up to now is    20540.1 secs

     total energy              =    -703.84528572 Ry
     Harris-Foulkes estimate   =    -703.84528968 Ry
     estimated scf accuracy    <       0.00002430 Ry

     iteration # 23     ecut=    33.07 Ry     beta=0.60
     Davidson diagonalization with overlap
     ethr =  3.24E-08,  avg # of iterations =  6.3

     total cpu time spent up to now is    20583.1 secs

     total energy              =    -703.84528853 Ry
     Harris-Foulkes estimate   =    -703.84528881 Ry
     estimated scf accuracy    <       0.00000232 Ry

     iteration # 24     ecut=    33.07 Ry     beta=0.60
     Davidson diagonalization with overlap
     c_bands:  1 eigenvalues not converged
     ethr =  3.09E-09,  avg # of iterations =  6.2

     total cpu time spent up to now is    20621.3 secs

     total energy              =    -703.84528860 Ry
     Harris-Foulkes estimate   =    -703.84528869 Ry
     estimated scf accuracy    <       0.00000046 Ry

     iteration # 25     ecut=    33.07 Ry     beta=0.60
     Davidson diagonalization with overlap
     c_bands:  1 eigenvalues not converged
     ethr =  6.08E-10,  avg # of iterations =  6.7

     total cpu time spent up to now is    20671.6 secs

     total energy              =    -703.84528870 Ry
     Harris-Foulkes estimate   =    -703.84528872 Ry
     estimated scf accuracy    <       0.00000041 Ry

     iteration # 26     ecut=    33.07 Ry     beta=0.60
     Davidson diagonalization with overlap
     ethr =  5.49E-10,  avg # of iterations =  1.0

     total cpu time spent up to now is    20700.1 secs

     total energy              =    -703.84528869 Ry
     Harris-Foulkes estimate   =    -703.84528871 Ry
     estimated scf accuracy    <       0.00000022 Ry

     iteration # 27     ecut=    33.07 Ry     beta=0.60
     Davidson diagonalization with overlap
     c_bands:  1 eigenvalues not converged
     c_bands:  1 eigenvalues not converged
     ethr =  2.97E-10,  avg # of iterations =  5.7

     total cpu time spent up to now is    20736.6 secs

     total energy              =    -703.84528869 Ry
     Harris-Foulkes estimate   =    -703.84528870 Ry
     estimated scf accuracy    <       0.00000002 Ry

     iteration # 28     ecut=    33.07 Ry     beta=0.60
     Davidson diagonalization with overlap
     ethr =  3.31E-11,  avg # of iterations =  7.1

     total cpu time spent up to now is    20783.3 secs

     total energy              =    -703.84528870 Ry
     Harris-Foulkes estimate   =    -703.84528870 Ry
     estimated scf accuracy    <          2.0E-09 Ry

     iteration # 29     ecut=    33.07 Ry     beta=0.60
     Davidson diagonalization with overlap
     c_bands:  1 eigenvalues not converged
     ethr =  2.62E-12,  avg # of iterations =  6.0

     total cpu time spent up to now is    20824.1 secs

     total energy              =    -703.84528870 Ry
     Harris-Foulkes estimate   =    -703.84528870 Ry
     estimated scf accuracy    <          2.5E-10 Ry

     iteration # 30     ecut=    33.07 Ry     beta=0.60
     Davidson diagonalization with overlap
     ethr =  3.33E-13,  avg # of iterations =  6.5

     total cpu time spent up to now is    20870.9 secs

     total energy              =    -703.84528870 Ry
     Harris-Foulkes estimate   =    -703.84528870 Ry
     estimated scf accuracy    <          6.4E-11 Ry

     iteration # 31     ecut=    33.07 Ry     beta=0.60
     Davidson diagonalization with overlap
     ethr =  1.00E-13,  avg # of iterations =  5.5

     total cpu time spent up to now is    20906.2 secs

     total energy              =    -703.84528870 Ry
     Harris-Foulkes estimate   =    -703.84528870 Ry
     estimated scf accuracy    <          8.8E-12 Ry

     iteration # 32     ecut=    33.07 Ry     beta=0.60
     Davidson diagonalization with overlap
     ethr =  1.00E-13,  avg # of iterations =  4.4

     total cpu time spent up to now is    20941.6 secs

     total energy              =    -703.84528870 Ry
     Harris-Foulkes estimate   =    -703.84528870 Ry
     estimated scf accuracy    <          2.0E-11 Ry

     iteration # 33     ecut=    33.07 Ry     beta=0.60
     Davidson diagonalization with overlap
     ethr =  1.00E-13,  avg # of iterations =  1.1

     total cpu time spent up to now is    20970.2 secs

     total energy              =    -703.84528870 Ry
     Harris-Foulkes estimate   =    -703.84528870 Ry
     estimated scf accuracy    <          9.6E-12 Ry

     iteration # 34     ecut=    33.07 Ry     beta=0.60
     Davidson diagonalization with overlap
     ethr =  1.00E-13,  avg # of iterations =  2.1

     total cpu time spent up to now is    21000.3 secs

     End of self-consistent calculation

     Number of k-points >= 100: set verbosity='high' to print the bands.

     the Fermi energy is    14.8646 ev

!    total energy              =    -703.84528870 Ry
     Harris-Foulkes estimate   =    -703.84528870 Ry
     estimated scf accuracy    <          4.2E-13 Ry

     The total energy is the sum of the following terms:

     one-electron contribution =    -191.63586287 Ry
     hartree contribution      =     124.41084857 Ry
     xc contribution           =     -98.60404803 Ry
     ewald contribution        =    -537.49092853 Ry
     smearing contrib. (-TS)   =      -0.52529785 Ry

     convergence has been achieved in  34 iterations

     Forces acting on atoms (Ry/au):

     atom    1 type  1   force =    -0.00000661   -0.00000381    0.00000000
     atom    2 type  2   force =    -0.00002219   -0.00001281    0.00000000
     atom    3 type  2   force =    -0.00001433   -0.00000827    0.00000000
     atom    4 type  1   force =     0.00001195    0.00000690    0.00000000
     atom    5 type  2   force =     0.00003202    0.00001848    0.00000000
     atom    6 type  1   force =    -0.00000084   -0.00000048    0.00000000

     Total force =     0.000050     Total SCF correction =     0.000002


     entering subroutine stress ...

          total   stress  (Ry/bohr**3)                   (kbar)     P=   -1.22
  -0.00000707   0.00000324   0.00000000         -1.04      0.48      0.00
   0.00000324  -0.00001081   0.00000000          0.48     -1.59      0.00
   0.00000000   0.00000000  -0.00000694          0.00      0.00     -1.02


     init_run     :     33.53s CPU     33.94s WALL (       2 calls)
     electrons    :  20384.71s CPU  20697.82s WALL (      22 calls)
     update_pot   :     31.38s CPU     31.49s WALL (      20 calls)
     forces       :     96.24s CPU     97.31s WALL (      22 calls)
     stress       :    142.54s CPU    145.09s WALL (      22 calls)

     Called by init_run:
     wfcinit      :     31.07s CPU     31.42s WALL (       2 calls)
     potinit      :      0.82s CPU      0.83s WALL (       2 calls)

     Called by electrons:
     c_bands      :  17362.45s CPU  17599.21s WALL (     474 calls)
     sum_band     :   2895.19s CPU   2958.28s WALL (     474 calls)
     v_of_rho     :     42.23s CPU     42.67s WALL (     489 calls)
     newd         :     81.56s CPU     94.90s WALL (     489 calls)
     mix_rho      :      4.32s CPU      4.40s WALL (     474 calls)

     Called by c_bands:
     init_us_2    :     88.16s CPU     88.86s WALL (  146118 calls)
     cegterg      :  17135.88s CPU  17370.82s WALL (   69678 calls)

     Called by sum_band:
     sum_band:bec :     10.38s CPU     10.42s WALL (   69678 calls)
     addusdens    :     69.30s CPU     83.19s WALL (     474 calls)

     Called by *egterg:
     h_psi        :  10625.43s CPU  10826.97s WALL (  436583 calls)
     s_psi        :    779.09s CPU    782.55s WALL (  436583 calls)
     g_psi        :     10.84s CPU     10.90s WALL (  366611 calls)
     cdiaghg      :   2712.96s CPU   2722.15s WALL (  432320 calls)

     Called by h_psi:
     h_psi:pot    :  10579.03s CPU  10780.11s WALL (  436583 calls)
     h_psi:calbec :   1117.15s CPU   1134.44s WALL (  436583 calls)
     vloc_psi     :   8678.45s CPU   8858.50s WALL (  436583 calls)
     add_vuspsi   :    781.21s CPU    785.36s WALL (  436583 calls)

     General routines
     calbec       :   1556.50s CPU   1578.75s WALL (  522431 calls)
     fft          :     25.00s CPU     25.51s WALL (    8334 calls)
     ffts         :      0.44s CPU      0.45s WALL (     963 calls)
     fftw         :   7829.86s CPU   7984.04s WALL (20632662 calls)
     interpolate  :      4.55s CPU      4.62s WALL (     963 calls)

     Parallel routines
     fft_scatter  :   1344.35s CPU   1375.50s WALL (20641959 calls)

     PWSCF        :     5h44m CPU        5h50m WALL


   This run was terminated on:  17:44:41  10Mar2018            

=------------------------------------------------------------------------------=
   JOB DONE.
=------------------------------------------------------------------------------=
