
     Program PWSCF v.6.3MaX starts on 27Jan2020 at 16:51:34 

     This program is part of the open-source Quantum ESPRESSO suite
     for quantum simulation of materials; please cite
         "P. Giannozzi et al., J. Phys.:Condens. Matter 21 395502 (2009);
         "P. Giannozzi et al., J. Phys.:Condens. Matter 29 465901 (2017);
          URL http://www.quantum-espresso.org", 
     in publications or presentations arising from this work. More details at
     http://www.quantum-espresso.org/quote

     Parallel version (MPI), running on     4 processors

     MPI processes distributed on     1 nodes
     R & G space division:  proc/nbgrp/npool/nimage =       4
     Waiting for input...
     Reading input from standard input

     Current dimensions of program PWSCF are:
     Max number of different atomic species (ntypx) = 10
     Max number of k-points (npk) =  40000
     Max angular momentum in pseudopotentials (lmaxx) =  3
     Message from routine iosys:
     minimal I/O required, wf_collect reset to FALSE

     Subspace diagonalization in iterative solution of the eigenvalue problem:
     a serial algorithm will be used

 
     Parallelization info
     --------------------
     sticks:   dense  smooth     PW     G-vecs:    dense   smooth      PW
     Min         487     195     64                27318     6914    1354
     Max         488     196     66                27322     6917    1355
     Sum        1949     781    259               109279    27659    5417
 


     bravais-lattice index     =            0
     lattice parameter (alat)  =       1.8897  a.u.
     unit-cell volume          =     808.3427 (a.u.)^3
     number of atoms/cell      =            6
     number of atomic types    =            2
     number of electrons       =        76.00
     number of Kohn-Sham states=           46
     kinetic-energy cutoff     =      40.0000  Ry
     charge density cutoff     =     400.0000  Ry
     convergence threshold     =      1.0E-10
     mixing beta               =       0.6000
     number of iterations used =            8  plain     mixing
     Exchange-correlation      = SLA PW PBE PBE ( 1  4  3  4 0 0)
     nstep                     =           50


     celldm(1)=   1.889726  celldm(2)=   0.000000  celldm(3)=   0.000000
     celldm(4)=   0.000000  celldm(5)=   0.000000  celldm(6)=   0.000000

     crystal axes: (cart. coord. in units of alat)
               a(1) = (  -3.045004   0.000000   4.972461 )  
               a(2) = (  -1.522502   2.637051   4.972461 )  
               a(3) = (  -4.567506   2.637051  -4.972461 )  

     reciprocal axes: (cart. coord. in units 2 pi/alat)
               b(1) = ( -0.218938 -0.252808  0.067036 )  
               b(2) = (  0.109469  0.316010  0.067036 )  
               b(3) = ( -0.109469  0.063202 -0.067036 )  


     PseudoPot. # 1 for Nb read from file:
     ./Nb.pbe-nsp-van.UPF
     MD5 check sum: 0a22fc7fb0ba19a08ca5db297a5d2854
     Pseudo is Ultrasoft + core correction, Zval = 13.0
     Generated by new atomic code, or converted to UPF format
     Using radial grid of  887 points,  6 beta functions with: 
                l(1) =   0
                l(2) =   0
                l(3) =   1
                l(4) =   1
                l(5) =   2
                l(6) =   2
     Q(r) pseudized with  6 coefficients,  rinner =    1.000   1.000   1.000
                                                       1.000   1.000

     PseudoPot. # 2 for Ti read from file:
     ./Ti.pbe-sp-van_ak.UPF
     MD5 check sum: f98fea3e8887528921fefa5636a534ca
     Pseudo is Ultrasoft, Zval = 12.0
     Generated by new atomic code, or converted to UPF format
     Using radial grid of  851 points,  6 beta functions with: 
                l(1) =   0
                l(2) =   0
                l(3) =   1
                l(4) =   1
                l(5) =   2
                l(6) =   2
     Q(r) pseudized with  8 coefficients,  rinner =    1.000   1.000   1.000
                                                       1.000   1.000

     atomic species   valence    mass     pseudopotential
        Nb            13.00    92.90638     Nb( 1.00)
        Ti            12.00    47.86700     Ti( 1.00)

      2 Sym. Ops. (no inversion) found



   Cartesian axes

     site n.     atom                  positions (alat units)
         1           Nb  tau(   1) = (  -4.5675063   2.6370512   0.0000000  )
         2           Ti  tau(   2) = (  -6.0900069   3.5160674   2.4862307  )
         3           Ti  tau(   3) = (  -4.5675063   2.6370512   4.9724614  )
         4           Nb  tau(   4) = (  -6.0900069   3.5160674   7.4586921  )
         5           Nb  tau(   5) = (  -9.1350127   5.2741024   4.9724614  )
         6           Nb  tau(   6) = (  -1.5225006   0.8790162   2.4862307  )

     number of k points=   398  Marzari-Vanderbilt smearing, width (Ry)=  0.0200

     Number of k-points >= 100: set verbosity='high' to print them.

     Dense  grid:   109279 G-vectors     FFT dimensions: (  72,  72,  90)

     Smooth grid:    27659 G-vectors     FFT dimensions: (  45,  45,  60)

     Estimated max dynamical RAM per process >     349.73 MB

     Estimated total dynamical RAM >       1.37 GB

     Initial potential from superposition of free atoms

     starting charge   73.98898, renormalised to   76.00000
     Starting wfcs are   72 randomized atomic wfcs

     total cpu time spent up to now is       30.7 secs

     Self-consistent Calculation

     iteration #  1     ecut=    40.00 Ry     beta= 0.60
     Davidson diagonalization with overlap
     ethr =  1.00E-02,  avg # of iterations =  2.7

     total cpu time spent up to now is       89.5 secs

     total energy              =    -666.30576496 Ry
     Harris-Foulkes estimate   =    -708.85187270 Ry
     estimated scf accuracy    <      53.04029028 Ry

     iteration #  2     ecut=    40.00 Ry     beta= 0.60
     Davidson diagonalization with overlap
     ethr =  1.00E-02,  avg # of iterations =  6.8

     total cpu time spent up to now is      198.0 secs

     total energy              =    -679.10451241 Ry
     Harris-Foulkes estimate   =    -774.77893911 Ry
     estimated scf accuracy    <     316.63256881 Ry

     iteration #  3     ecut=    40.00 Ry     beta= 0.60
     Davidson diagonalization with overlap
     ethr =  1.00E-02,  avg # of iterations =  5.2

     total cpu time spent up to now is      294.8 secs

     total energy              =    -705.20252747 Ry
     Harris-Foulkes estimate   =    -714.20804428 Ry
     estimated scf accuracy    <      57.74558323 Ry

     iteration #  4     ecut=    40.00 Ry     beta= 0.60
     Davidson diagonalization with overlap
     ethr =  1.00E-02,  avg # of iterations =  3.2

     total cpu time spent up to now is      352.2 secs

     total energy              =    -707.01058636 Ry
     Harris-Foulkes estimate   =    -708.88233005 Ry
     estimated scf accuracy    <      19.64116265 Ry

     iteration #  5     ecut=    40.00 Ry     beta= 0.60
     Davidson diagonalization with overlap
     ethr =  1.00E-02,  avg # of iterations =  1.0

     total cpu time spent up to now is      398.5 secs

     total energy              =    -706.14815504 Ry
     Harris-Foulkes estimate   =    -707.18673485 Ry
     estimated scf accuracy    <      12.15261694 Ry

     iteration #  6     ecut=    40.00 Ry     beta= 0.60
     Davidson diagonalization with overlap
     ethr =  1.00E-02,  avg # of iterations =  1.0

     total cpu time spent up to now is      444.7 secs

     total energy              =    -705.57435425 Ry
     Harris-Foulkes estimate   =    -706.22548932 Ry
     estimated scf accuracy    <       8.56739846 Ry

     iteration #  7     ecut=    40.00 Ry     beta= 0.60
     Davidson diagonalization with overlap
     ethr =  1.00E-02,  avg # of iterations =  1.0

     total cpu time spent up to now is      491.0 secs

     total energy              =    -704.55991794 Ry
     Harris-Foulkes estimate   =    -705.62609056 Ry
     estimated scf accuracy    <       6.75352972 Ry

     iteration #  8     ecut=    40.00 Ry     beta= 0.60
     Davidson diagonalization with overlap
     ethr =  8.89E-03,  avg # of iterations =  2.2

     total cpu time spent up to now is      540.9 secs

     total energy              =    -704.22724461 Ry
     Harris-Foulkes estimate   =    -704.84654681 Ry
     estimated scf accuracy    <       2.25959636 Ry

     iteration #  9     ecut=    40.00 Ry     beta= 0.60
     Davidson diagonalization with overlap
     ethr =  2.97E-03,  avg # of iterations =  4.3

     total cpu time spent up to now is      618.6 secs

     total energy              =    -704.88730155 Ry
     Harris-Foulkes estimate   =    -705.70200097 Ry
     estimated scf accuracy    <      18.23801616 Ry

     iteration # 10     ecut=    40.00 Ry     beta= 0.60
     Davidson diagonalization with overlap
     ethr =  2.97E-03,  avg # of iterations =  1.0

     total cpu time spent up to now is      664.8 secs

     total energy              =    -704.44499416 Ry
     Harris-Foulkes estimate   =    -705.13200483 Ry
     estimated scf accuracy    <       7.69236959 Ry

     iteration # 11     ecut=    40.00 Ry     beta= 0.60
     Davidson diagonalization with overlap
     ethr =  2.97E-03,  avg # of iterations =  4.0

     total cpu time spent up to now is      724.3 secs

     total energy              =    -704.90340363 Ry
     Harris-Foulkes estimate   =    -704.91891138 Ry
     estimated scf accuracy    <       0.09449039 Ry

     iteration # 12     ecut=    40.00 Ry     beta= 0.60
     Davidson diagonalization with overlap
     ethr =  1.24E-04,  avg # of iterations =  6.1

     total cpu time spent up to now is      853.0 secs

     total energy              =    -704.91077897 Ry
     Harris-Foulkes estimate   =    -704.91849110 Ry
     estimated scf accuracy    <       0.08301352 Ry

     iteration # 13     ecut=    40.00 Ry     beta= 0.60
     Davidson diagonalization with overlap
     ethr =  1.09E-04,  avg # of iterations =  2.3

     total cpu time spent up to now is      903.7 secs

     total energy              =    -704.91292212 Ry
     Harris-Foulkes estimate   =    -704.91842956 Ry
     estimated scf accuracy    <       0.06770566 Ry

     iteration # 14     ecut=    40.00 Ry     beta= 0.60
     Davidson diagonalization with overlap
     ethr =  8.91E-05,  avg # of iterations =  4.4

     total cpu time spent up to now is      968.6 secs

     total energy              =    -704.92003338 Ry
     Harris-Foulkes estimate   =    -704.92543183 Ry
     estimated scf accuracy    <       0.20642512 Ry

     iteration # 15     ecut=    40.00 Ry     beta= 0.60
     Davidson diagonalization with overlap
     ethr =  8.91E-05,  avg # of iterations =  1.2

     total cpu time spent up to now is     1015.4 secs

     total energy              =    -704.89719550 Ry
     Harris-Foulkes estimate   =    -704.92245678 Ry
     estimated scf accuracy    <       0.21549560 Ry

     iteration # 16     ecut=    40.00 Ry     beta= 0.60
     Davidson diagonalization with overlap
     ethr =  8.91E-05,  avg # of iterations =  3.1

     total cpu time spent up to now is     1070.1 secs

     total energy              =    -704.89951952 Ry
     Harris-Foulkes estimate   =    -704.90422566 Ry
     estimated scf accuracy    <       0.03306781 Ry

     iteration # 17     ecut=    40.00 Ry     beta= 0.60
     Davidson diagonalization with overlap
     ethr =  4.35E-05,  avg # of iterations =  3.2

     total cpu time spent up to now is     1123.3 secs

     total energy              =    -704.90049677 Ry
     Harris-Foulkes estimate   =    -704.90161281 Ry
     estimated scf accuracy    <       0.00689463 Ry

     iteration # 18     ecut=    40.00 Ry     beta= 0.60
     Davidson diagonalization with overlap
     ethr =  9.07E-06,  avg # of iterations =  5.2

     total cpu time spent up to now is     1200.5 secs

     total energy              =    -704.90234288 Ry
     Harris-Foulkes estimate   =    -704.90262397 Ry
     estimated scf accuracy    <       0.00713769 Ry

     iteration # 19     ecut=    40.00 Ry     beta= 0.60
     Davidson diagonalization with overlap
     ethr =  9.07E-06,  avg # of iterations =  1.0

     total cpu time spent up to now is     1246.6 secs

     total energy              =    -704.90123494 Ry
     Harris-Foulkes estimate   =    -704.90239199 Ry
     estimated scf accuracy    <       0.00463251 Ry

     iteration # 20     ecut=    40.00 Ry     beta= 0.60
     Davidson diagonalization with overlap
     ethr =  6.10E-06,  avg # of iterations =  5.2

     total cpu time spent up to now is     1321.4 secs

     total energy              =    -704.90082725 Ry
     Harris-Foulkes estimate   =    -704.90363922 Ry
     estimated scf accuracy    <       0.02905238 Ry

     iteration # 21     ecut=    40.00 Ry     beta= 0.60
     Davidson diagonalization with overlap
     ethr =  6.10E-06,  avg # of iterations =  4.7

     total cpu time spent up to now is     1382.4 secs

     total energy              =    -704.90205402 Ry
     Harris-Foulkes estimate   =    -704.90214510 Ry
     estimated scf accuracy    <       0.00079140 Ry

     iteration # 22     ecut=    40.00 Ry     beta= 0.60
     Davidson diagonalization with overlap
     ethr =  1.04E-06,  avg # of iterations =  4.4

     total cpu time spent up to now is     1445.1 secs

     total energy              =    -704.90213267 Ry
     Harris-Foulkes estimate   =    -704.90217246 Ry
     estimated scf accuracy    <       0.00027802 Ry

     iteration # 23     ecut=    40.00 Ry     beta= 0.60
     Davidson diagonalization with overlap
     ethr =  3.66E-07,  avg # of iterations =  2.5

     total cpu time spent up to now is     1495.9 secs

     total energy              =    -704.90215137 Ry
     Harris-Foulkes estimate   =    -704.90215343 Ry
     estimated scf accuracy    <       0.00001488 Ry

     iteration # 24     ecut=    40.00 Ry     beta= 0.60
     Davidson diagonalization with overlap
     ethr =  1.96E-08,  avg # of iterations =  4.6

     total cpu time spent up to now is     1566.4 secs

     total energy              =    -704.90215588 Ry
     Harris-Foulkes estimate   =    -704.90215768 Ry
     estimated scf accuracy    <       0.00001136 Ry

     iteration # 25     ecut=    40.00 Ry     beta= 0.60
     Davidson diagonalization with overlap
     ethr =  1.50E-08,  avg # of iterations =  2.4

     total cpu time spent up to now is     1616.4 secs

     total energy              =    -704.90215653 Ry
     Harris-Foulkes estimate   =    -704.90215698 Ry
     estimated scf accuracy    <       0.00000375 Ry

     iteration # 26     ecut=    40.00 Ry     beta= 0.60
     Davidson diagonalization with overlap
     ethr =  4.94E-09,  avg # of iterations =  3.0

     total cpu time spent up to now is     1670.3 secs

     total energy              =    -704.90215674 Ry
     Harris-Foulkes estimate   =    -704.90215689 Ry
     estimated scf accuracy    <       0.00000114 Ry

     iteration # 27     ecut=    40.00 Ry     beta= 0.60
     Davidson diagonalization with overlap
     ethr =  1.49E-09,  avg # of iterations =  2.2

     total cpu time spent up to now is     1720.6 secs

     total energy              =    -704.90215680 Ry
     Harris-Foulkes estimate   =    -704.90215683 Ry
     estimated scf accuracy    <       0.00000028 Ry

     iteration # 28     ecut=    40.00 Ry     beta= 0.60
     Davidson diagonalization with overlap
     ethr =  3.63E-10,  avg # of iterations =  3.4

     total cpu time spent up to now is     1780.0 secs

     total energy              =    -704.90215682 Ry
     Harris-Foulkes estimate   =    -704.90215683 Ry
     estimated scf accuracy    <       0.00000002 Ry

     iteration # 29     ecut=    40.00 Ry     beta= 0.60
     Davidson diagonalization with overlap
     ethr =  2.48E-11,  avg # of iterations =  4.6

     total cpu time spent up to now is     1851.2 secs

     total energy              =    -704.90215683 Ry
     Harris-Foulkes estimate   =    -704.90215683 Ry
     estimated scf accuracy    <          5.4E-09 Ry

     iteration # 30     ecut=    40.00 Ry     beta= 0.60
     Davidson diagonalization with overlap
     ethr =  7.11E-12,  avg # of iterations =  2.5

     total cpu time spent up to now is     1903.8 secs

     total energy              =    -704.90215683 Ry
     Harris-Foulkes estimate   =    -704.90215683 Ry
     estimated scf accuracy    <          1.1E-09 Ry

     iteration # 31     ecut=    40.00 Ry     beta= 0.60
     Davidson diagonalization with overlap
     ethr =  1.51E-12,  avg # of iterations =  3.7

     total cpu time spent up to now is     1965.9 secs

     total energy              =    -704.90215683 Ry
     Harris-Foulkes estimate   =    -704.90215683 Ry
     estimated scf accuracy    <          3.2E-10 Ry

     iteration # 32     ecut=    40.00 Ry     beta= 0.60
     Davidson diagonalization with overlap
     ethr =  4.24E-13,  avg # of iterations =  2.2

     total cpu time spent up to now is     2017.1 secs

     total energy              =    -704.90215683 Ry
     Harris-Foulkes estimate   =    -704.90215683 Ry
     estimated scf accuracy    <          1.0E-10 Ry

     iteration # 33     ecut=    40.00 Ry     beta= 0.60
     Davidson diagonalization with overlap
     ethr =  1.35E-13,  avg # of iterations =  2.9

     total cpu time spent up to now is     2071.7 secs

     End of self-consistent calculation

     Number of k-points >= 100: set verbosity='high' to print the bands.

     the Fermi energy is    14.6571 ev

!    total energy              =    -704.90215683 Ry
     Harris-Foulkes estimate   =    -704.90215683 Ry
     estimated scf accuracy    <          1.9E-11 Ry

     The total energy is the sum of the following terms:

     one-electron contribution =    -177.62542852 Ry
     hartree contribution      =     117.53197899 Ry
     xc contribution           =    -102.15997593 Ry
     ewald contribution        =    -542.64465575 Ry
     smearing contrib. (-TS)   =      -0.00407561 Ry

     convergence has been achieved in  33 iterations

     Forces acting on atoms (cartesian axes, Ry/au):

     atom    1 type  1   force =     0.00208469   -0.00120360   -0.00705221
     atom    2 type  2   force =    -0.00002540    0.00001467    0.00582199
     atom    3 type  2   force =     0.00002569   -0.00001483   -0.00582184
     atom    4 type  1   force =    -0.00208481    0.00120367    0.00705240
     atom    5 type  1   force =    -0.00384475    0.00221977    0.01410692
     atom    6 type  1   force =     0.00384458   -0.00221967   -0.01410726

     Total force =     0.024825     Total SCF correction =     0.000013


     Computing stress (Cartesian axis) and pressure

          total   stress  (Ry/bohr**3)                   (kbar)     P= -118.74
  -0.00088478  -0.00004076  -0.00002103       -130.16     -6.00     -3.09
  -0.00004076  -0.00093184   0.00001214         -6.00   -137.08      1.79
  -0.00002103   0.00001214  -0.00060496         -3.09      1.79    -88.99


     BFGS Geometry Optimization

     number of scf cycles    =   1
     number of bfgs steps    =   0

     enthalpy new            =    -704.9021568287 Ry

     new trust radius        =       0.1326053129 bohr
     new conv_thr            =            1.0E-10 Ry

     new unit-cell volume =    760.37057 a.u.^3 (   112.67529 Ang^3 )
     density =      6.88766 g/cm^3

CELL_PARAMETERS (alat=  1.88972599)
  -2.980264967   0.004612309   4.898859141
  -1.494126860   2.578679203   4.898859141
  -4.466547898   2.578762816  -4.894055725

ATOMIC_POSITIONS (angstrom)
Nb      -4.468081162   2.579648047  -0.000473925
Ti      -5.960203992   3.441125626   2.455932984
Ti      -4.471762260   2.581773330   4.897426077
Nb      -5.963885306   3.443251034   7.353833008
Nb      -8.942934398   5.163205952   4.911016142
Nb      -1.489032093   0.859693142   2.442342664


     NEW-OLD atomic charge density approx. for the potential

     Check: negative/imaginary core charge=   -0.000001    0.000000
     extrapolated charge   71.33200, renormalised to   76.00000

     total cpu time spent up to now is     2090.0 secs

     Self-consistent Calculation

     iteration #  1     ecut=    40.00 Ry     beta= 0.60
     Davidson diagonalization with overlap
     c_bands:  1 eigenvalues not converged
     c_bands:  1 eigenvalues not converged
     c_bands:  1 eigenvalues not converged
     c_bands:  2 eigenvalues not converged
     c_bands:  1 eigenvalues not converged
     c_bands:  1 eigenvalues not converged
     c_bands:  1 eigenvalues not converged
     c_bands:  1 eigenvalues not converged
     c_bands:  1 eigenvalues not converged
     c_bands:  1 eigenvalues not converged
     c_bands:  1 eigenvalues not converged
     c_bands:  1 eigenvalues not converged
     c_bands:  1 eigenvalues not converged
     c_bands:  1 eigenvalues not converged
     c_bands:  1 eigenvalues not converged
     c_bands:  1 eigenvalues not converged
     c_bands:  1 eigenvalues not converged
     c_bands:  2 eigenvalues not converged
     c_bands:  1 eigenvalues not converged
     c_bands:  2 eigenvalues not converged
     c_bands:  2 eigenvalues not converged
     c_bands:  1 eigenvalues not converged
     c_bands:  1 eigenvalues not converged
     c_bands:  1 eigenvalues not converged
     c_bands:  1 eigenvalues not converged
     c_bands:  1 eigenvalues not converged
     c_bands:  1 eigenvalues not converged
     c_bands:  1 eigenvalues not converged
     c_bands:  1 eigenvalues not converged
     c_bands:  1 eigenvalues not converged
     c_bands:  1 eigenvalues not converged
     c_bands:  1 eigenvalues not converged
     c_bands:  1 eigenvalues not converged
     c_bands:  1 eigenvalues not converged
     c_bands:  1 eigenvalues not converged
     c_bands:  1 eigenvalues not converged
     c_bands:  1 eigenvalues not converged
     c_bands:  1 eigenvalues not converged
     c_bands:  1 eigenvalues not converged
     c_bands:  1 eigenvalues not converged
     c_bands:  2 eigenvalues not converged
     c_bands:  1 eigenvalues not converged
     c_bands:  1 eigenvalues not converged
     c_bands:  1 eigenvalues not converged
     c_bands:  1 eigenvalues not converged
     c_bands:  1 eigenvalues not converged
     c_bands:  1 eigenvalues not converged
     c_bands:  1 eigenvalues not converged
     c_bands:  2 eigenvalues not converged
     c_bands:  1 eigenvalues not converged
     c_bands:  1 eigenvalues not converged
     c_bands:  2 eigenvalues not converged
     c_bands:  1 eigenvalues not converged
     c_bands:  1 eigenvalues not converged
     c_bands:  1 eigenvalues not converged
     c_bands:  1 eigenvalues not converged
     c_bands:  1 eigenvalues not converged
     c_bands:  1 eigenvalues not converged
     c_bands:  1 eigenvalues not converged
     c_bands:  1 eigenvalues not converged
     c_bands:  1 eigenvalues not converged
     c_bands:  1 eigenvalues not converged
     c_bands:  1 eigenvalues not converged
     c_bands:  1 eigenvalues not converged
     c_bands:  1 eigenvalues not converged
     c_bands:  1 eigenvalues not converged
     c_bands:  1 eigenvalues not converged
     c_bands:  1 eigenvalues not converged
     c_bands:  1 eigenvalues not converged
     c_bands:  1 eigenvalues not converged
     c_bands:  1 eigenvalues not converged
     c_bands:  1 eigenvalues not converged
     c_bands:  2 eigenvalues not converged
     c_bands:  1 eigenvalues not converged
     c_bands:  1 eigenvalues not converged
     c_bands:  1 eigenvalues not converged
     c_bands:  1 eigenvalues not converged
     c_bands:  1 eigenvalues not converged
     c_bands:  2 eigenvalues not converged
     c_bands:  1 eigenvalues not converged
     c_bands:  1 eigenvalues not converged
     c_bands:  1 eigenvalues not converged
     c_bands:  1 eigenvalues not converged
     c_bands:  1 eigenvalues not converged
     c_bands:  1 eigenvalues not converged
     c_bands:  1 eigenvalues not converged
     c_bands:  1 eigenvalues not converged
     c_bands:  1 eigenvalues not converged
     c_bands:  1 eigenvalues not converged
     c_bands:  1 eigenvalues not converged
     c_bands:  1 eigenvalues not converged
     c_bands:  1 eigenvalues not converged
     c_bands:  1 eigenvalues not converged
     c_bands:  1 eigenvalues not converged
     ethr =  1.00E-06,  avg # of iterations = 16.1

     total cpu time spent up to now is     2280.4 secs

     total energy              =    -699.44519816 Ry
     Harris-Foulkes estimate   =    -712.26198865 Ry
     estimated scf accuracy    <       5.80320942 Ry

     iteration #  2     ecut=    40.00 Ry     beta= 0.60
     Davidson diagonalization with overlap
     ethr =  7.64E-03,  avg # of iterations =  5.7

     total cpu time spent up to now is     2371.5 secs

     total energy              =    -704.52916647 Ry
     Harris-Foulkes estimate   =    -713.19660001 Ry
     estimated scf accuracy    <      27.63698065 Ry

     iteration #  3     ecut=    40.00 Ry     beta= 0.60
     Davidson diagonalization with overlap
     ethr =  7.64E-03,  avg # of iterations =  3.3

     total cpu time spent up to now is     2435.0 secs

     total energy              =    -705.21051176 Ry
     Harris-Foulkes estimate   =    -706.33782657 Ry
     estimated scf accuracy    <       5.64005410 Ry

     iteration #  4     ecut=    40.00 Ry     beta= 0.60
     Davidson diagonalization with overlap
     ethr =  7.42E-03,  avg # of iterations =  1.2

     total cpu time spent up to now is     2482.5 secs

     total energy              =    -705.07168239 Ry
     Harris-Foulkes estimate   =    -705.37819073 Ry
     estimated scf accuracy    <       4.04112571 Ry

     iteration #  5     ecut=    40.00 Ry     beta= 0.60
     Davidson diagonalization with overlap
     ethr =  5.32E-03,  avg # of iterations =  1.2

     total cpu time spent up to now is     2528.8 secs

     total energy              =    -704.56119742 Ry
     Harris-Foulkes estimate   =    -705.19407963 Ry
     estimated scf accuracy    <       3.18442349 Ry

     iteration #  6     ecut=    40.00 Ry     beta= 0.60
     Davidson diagonalization with overlap
     ethr =  4.19E-03,  avg # of iterations =  4.8

     total cpu time spent up to now is     2588.0 secs

     total energy              =    -704.91862287 Ry
     Harris-Foulkes estimate   =    -704.90341894 Ry
     estimated scf accuracy    <       0.13983741 Ry

     iteration #  7     ecut=    40.00 Ry     beta= 0.60
     Davidson diagonalization with overlap
     ethr =  1.84E-04,  avg # of iterations =  5.5

     total cpu time spent up to now is     2671.2 secs

     total energy              =    -704.99441307 Ry
     Harris-Foulkes estimate   =    -705.02436404 Ry
     estimated scf accuracy    <       0.57241635 Ry

     iteration #  8     ecut=    40.00 Ry     beta= 0.60
     Davidson diagonalization with overlap
     ethr =  1.84E-04,  avg # of iterations =  1.0

     total cpu time spent up to now is     2717.0 secs

     total energy              =    -704.95434382 Ry
     Harris-Foulkes estimate   =    -704.99556767 Ry
     estimated scf accuracy    <       0.47086572 Ry

     iteration #  9     ecut=    40.00 Ry     beta= 0.60
     Davidson diagonalization with overlap
     ethr =  1.84E-04,  avg # of iterations =  1.9

     total cpu time spent up to now is     2765.1 secs

     total energy              =    -704.93307265 Ry
     Harris-Foulkes estimate   =    -704.95860928 Ry
     estimated scf accuracy    <       0.26807456 Ry

     iteration # 10     ecut=    40.00 Ry     beta= 0.60
     Davidson diagonalization with overlap
     ethr =  1.84E-04,  avg # of iterations =  3.2

     total cpu time spent up to now is     2839.2 secs

     total energy              =    -704.90663580 Ry
     Harris-Foulkes estimate   =    -704.94063372 Ry
     estimated scf accuracy    <       0.08884740 Ry

     iteration # 11     ecut=    40.00 Ry     beta= 0.60
     Davidson diagonalization with overlap
     ethr =  1.17E-04,  avg # of iterations =  5.3

     total cpu time spent up to now is     2919.5 secs

     total energy              =    -704.93217702 Ry
     Harris-Foulkes estimate   =    -704.94442767 Ry
     estimated scf accuracy    <       0.18812164 Ry

     iteration # 12     ecut=    40.00 Ry     beta= 0.60
     Davidson diagonalization with overlap
     ethr =  1.17E-04,  avg # of iterations =  1.1

     total cpu time spent up to now is     2965.6 secs

     total energy              =    -704.93186991 Ry
     Harris-Foulkes estimate   =    -704.93443596 Ry
     estimated scf accuracy    <       0.07560300 Ry

     iteration # 13     ecut=    40.00 Ry     beta= 0.60
     Davidson diagonalization with overlap
     ethr =  9.95E-05,  avg # of iterations =  1.0

     total cpu time spent up to now is     3011.6 secs

     total energy              =    -704.92952131 Ry
     Harris-Foulkes estimate   =    -704.93262723 Ry
     estimated scf accuracy    <       0.04535419 Ry

     iteration # 14     ecut=    40.00 Ry     beta= 0.60
     Davidson diagonalization with overlap
     ethr =  5.97E-05,  avg # of iterations =  2.9

     total cpu time spent up to now is     3062.6 secs

     total energy              =    -704.93114580 Ry
     Harris-Foulkes estimate   =    -704.93099903 Ry
     estimated scf accuracy    <       0.01246205 Ry

     iteration # 15     ecut=    40.00 Ry     beta= 0.60
     Davidson diagonalization with overlap
     ethr =  1.64E-05,  avg # of iterations =  4.7

     total cpu time spent up to now is     3125.9 secs

     total energy              =    -704.93173897 Ry
     Harris-Foulkes estimate   =    -704.93240885 Ry
     estimated scf accuracy    <       0.00506143 Ry

     iteration # 16     ecut=    40.00 Ry     beta= 0.60
     Davidson diagonalization with overlap
     ethr =  6.66E-06,  avg # of iterations =  2.1

     total cpu time spent up to now is     3174.5 secs

     total energy              =    -704.93202946 Ry
     Harris-Foulkes estimate   =    -704.93201823 Ry
     estimated scf accuracy    <       0.00026504 Ry

     iteration # 17     ecut=    40.00 Ry     beta= 0.60
     Davidson diagonalization with overlap
     ethr =  3.49E-07,  avg # of iterations =  5.1

     total cpu time spent up to now is     3246.6 secs

     total energy              =    -704.93211338 Ry
     Harris-Foulkes estimate   =    -704.93212478 Ry
     estimated scf accuracy    <       0.00008778 Ry

     iteration # 18     ecut=    40.00 Ry     beta= 0.60
     Davidson diagonalization with overlap
     ethr =  1.16E-07,  avg # of iterations =  1.7

     total cpu time spent up to now is     3294.1 secs

     total energy              =    -704.93210243 Ry
     Harris-Foulkes estimate   =    -704.93211912 Ry
     estimated scf accuracy    <       0.00005855 Ry

     iteration # 19     ecut=    40.00 Ry     beta= 0.60
     Davidson diagonalization with overlap
     ethr =  7.70E-08,  avg # of iterations =  3.8

     total cpu time spent up to now is     3355.2 secs

     total energy              =    -704.93211284 Ry
     Harris-Foulkes estimate   =    -704.93212043 Ry
     estimated scf accuracy    <       0.00014825 Ry

     iteration # 20     ecut=    40.00 Ry     beta= 0.60
     Davidson diagonalization with overlap
     ethr =  7.70E-08,  avg # of iterations =  1.9

     total cpu time spent up to now is     3403.2 secs

     total energy              =    -704.93212006 Ry
     Harris-Foulkes estimate   =    -704.93211857 Ry
     estimated scf accuracy    <       0.00012413 Ry

     iteration # 21     ecut=    40.00 Ry     beta= 0.60
     Davidson diagonalization with overlap
     ethr =  7.70E-08,  avg # of iterations =  1.4

     total cpu time spent up to now is     3450.0 secs

     total energy              =    -704.93211903 Ry
     Harris-Foulkes estimate   =    -704.93212175 Ry
     estimated scf accuracy    <       0.00015870 Ry

     iteration # 22     ecut=    40.00 Ry     beta= 0.60
     Davidson diagonalization with overlap
     ethr =  7.70E-08,  avg # of iterations =  1.0

     total cpu time spent up to now is     3496.0 secs

     total energy              =    -704.93211226 Ry
     Harris-Foulkes estimate   =    -704.93211974 Ry
     estimated scf accuracy    <       0.00014001 Ry

     iteration # 23     ecut=    40.00 Ry     beta= 0.60
     Davidson diagonalization with overlap
     ethr =  7.70E-08,  avg # of iterations =  1.0

     total cpu time spent up to now is     3541.9 secs

     total energy              =    -704.93210789 Ry
     Harris-Foulkes estimate   =    -704.93211343 Ry
     estimated scf accuracy    <       0.00007257 Ry

     iteration # 24     ecut=    40.00 Ry     beta= 0.60
     Davidson diagonalization with overlap
     ethr =  7.70E-08,  avg # of iterations =  1.4

     total cpu time spent up to now is     3588.7 secs

     total energy              =    -704.93210754 Ry
     Harris-Foulkes estimate   =    -704.93210935 Ry
     estimated scf accuracy    <       0.00002955 Ry

     iteration # 25     ecut=    40.00 Ry     beta= 0.60
     Davidson diagonalization with overlap
     ethr =  3.89E-08,  avg # of iterations =  3.1

     total cpu time spent up to now is     3641.1 secs

     total energy              =    -704.93210789 Ry
     Harris-Foulkes estimate   =    -704.93210883 Ry
     estimated scf accuracy    <       0.00000517 Ry

     iteration # 26     ecut=    40.00 Ry     beta= 0.60
     Davidson diagonalization with overlap
     ethr =  6.80E-09,  avg # of iterations =  4.2

     total cpu time spent up to now is     3706.7 secs

     total energy              =    -704.93210885 Ry
     Harris-Foulkes estimate   =    -704.93210927 Ry
     estimated scf accuracy    <       0.00000332 Ry

     iteration # 27     ecut=    40.00 Ry     beta= 0.60
     Davidson diagonalization with overlap
     ethr =  4.37E-09,  avg # of iterations =  1.0

     total cpu time spent up to now is     3752.8 secs

     total energy              =    -704.93210891 Ry
     Harris-Foulkes estimate   =    -704.93210897 Ry
     estimated scf accuracy    <       0.00000052 Ry

     iteration # 28     ecut=    40.00 Ry     beta= 0.60
     Davidson diagonalization with overlap
     ethr =  6.85E-10,  avg # of iterations =  4.2

     total cpu time spent up to now is     3817.3 secs

     total energy              =    -704.93210902 Ry
     Harris-Foulkes estimate   =    -704.93210904 Ry
     estimated scf accuracy    <       0.00000016 Ry

     iteration # 29     ecut=    40.00 Ry     beta= 0.60
     Davidson diagonalization with overlap
     ethr =  2.06E-10,  avg # of iterations =  1.2

     total cpu time spent up to now is     3863.7 secs

     total energy              =    -704.93210902 Ry
     Harris-Foulkes estimate   =    -704.93210902 Ry
     estimated scf accuracy    <       0.00000002 Ry

     iteration # 30     ecut=    40.00 Ry     beta= 0.60
     Davidson diagonalization with overlap
     ethr =  2.68E-11,  avg # of iterations =  4.7

     total cpu time spent up to now is     3933.7 secs

     total energy              =    -704.93210902 Ry
     Harris-Foulkes estimate   =    -704.93210903 Ry
     estimated scf accuracy    <       0.00000008 Ry

     iteration # 31     ecut=    40.00 Ry     beta= 0.60
     Davidson diagonalization with overlap
     ethr =  2.68E-11,  avg # of iterations =  4.0

     total cpu time spent up to now is     3994.8 secs

     total energy              =    -704.93210903 Ry
     Harris-Foulkes estimate   =    -704.93210903 Ry
     estimated scf accuracy    <          2.8E-10 Ry

     iteration # 32     ecut=    40.00 Ry     beta= 0.60
     Davidson diagonalization with overlap
     ethr =  3.71E-13,  avg # of iterations =  4.9

     total cpu time spent up to now is     4070.6 secs

     total energy              =    -704.93210903 Ry
     Harris-Foulkes estimate   =    -704.93210903 Ry
     estimated scf accuracy    <          1.2E-09 Ry

     iteration # 33     ecut=    40.00 Ry     beta= 0.60
     Davidson diagonalization with overlap
     ethr =  3.71E-13,  avg # of iterations =  4.1

     total cpu time spent up to now is     4135.6 secs

     End of self-consistent calculation

     Number of k-points >= 100: set verbosity='high' to print the bands.

     the Fermi energy is    15.7447 ev

!    total energy              =    -704.93210903 Ry
     Harris-Foulkes estimate   =    -704.93210903 Ry
     estimated scf accuracy    <          5.9E-11 Ry

     The total energy is the sum of the following terms:

     one-electron contribution =    -161.38229107 Ry
     hartree contribution      =     112.80331651 Ry
     xc contribution           =    -102.49799408 Ry
     ewald contribution        =    -553.85208618 Ry
     smearing contrib. (-TS)   =      -0.00305422 Ry

     convergence has been achieved in  33 iterations

     Forces acting on atoms (cartesian axes, Ry/au):

     atom    1 type  1   force =     0.00483170   -0.00278958   -0.00779174
     atom    2 type  2   force =     0.00164319   -0.00094870    0.00656398
     atom    3 type  2   force =    -0.00164309    0.00094864   -0.00656401
     atom    4 type  1   force =    -0.00483095    0.00278915    0.00779242
     atom    5 type  1   force =    -0.00534380    0.00308525    0.01481296
     atom    6 type  1   force =     0.00534296   -0.00308476   -0.01481362

     Total force =     0.028143     Total SCF correction =     0.000028


     Computing stress (Cartesian axis) and pressure

          total   stress  (Ry/bohr**3)                   (kbar)     P=  -48.81
  -0.00041576  -0.00004567  -0.00002492        -61.16     -6.72     -3.67
  -0.00004567  -0.00046850   0.00001439         -6.72    -68.92      2.12
  -0.00002492   0.00001439  -0.00011121         -3.67      2.12    -16.36


     number of scf cycles    =   2
     number of bfgs steps    =   1

     enthalpy old            =    -704.9021568287 Ry
     enthalpy new            =    -704.9321090269 Ry

     CASE: enthalpy_new < enthalpy_old

     new trust radius        =       0.1203592730 bohr
     new conv_thr            =            1.0E-10 Ry

     new unit-cell volume =    725.31926 a.u.^3 (   107.48122 Ang^3 )
     density =      7.22050 g/cm^3

CELL_PARAMETERS (alat=  1.88972599)
  -2.928112353   0.013820476   4.874229372
  -1.476025061   2.528909634   4.874229372
  -4.380156503   2.528884725  -4.859538888

ATOMIC_POSITIONS (angstrom)
Nb      -4.382802868   2.530412605  -0.001056754
Ti      -5.853466406   3.379500657   2.456782726
Ti      -4.397539335   2.538920708   4.870068005
Nb      -5.868202537   3.388008566   7.327908148
Nb      -8.791058688   5.075520478   4.909923798
Nb      -1.459948123   0.842901505   2.416926109


     NEW-OLD atomic charge density approx. for the potential

     Check: negative/imaginary core charge=   -0.000001    0.000000
     extrapolated charge   72.42446, renormalised to   76.00000

     total cpu time spent up to now is     4153.9 secs

     Self-consistent Calculation

     iteration #  1     ecut=    40.00 Ry     beta= 0.60
     Davidson diagonalization with overlap
     c_bands:  1 eigenvalues not converged
     c_bands:  2 eigenvalues not converged
     c_bands:  1 eigenvalues not converged
     c_bands:  1 eigenvalues not converged
     c_bands:  1 eigenvalues not converged
     c_bands:  1 eigenvalues not converged
     c_bands:  1 eigenvalues not converged
     c_bands:  1 eigenvalues not converged
     c_bands:  1 eigenvalues not converged
     c_bands:  1 eigenvalues not converged
     c_bands:  1 eigenvalues not converged
     c_bands:  1 eigenvalues not converged
     c_bands:  1 eigenvalues not converged
     c_bands:  1 eigenvalues not converged
     c_bands:  1 eigenvalues not converged
     c_bands:  1 eigenvalues not converged
     c_bands:  1 eigenvalues not converged
     c_bands:  1 eigenvalues not converged
     c_bands:  1 eigenvalues not converged
     c_bands:  1 eigenvalues not converged
     c_bands:  1 eigenvalues not converged
     c_bands:  1 eigenvalues not converged
     c_bands:  1 eigenvalues not converged
     c_bands:  2 eigenvalues not converged
     c_bands:  1 eigenvalues not converged
     c_bands:  1 eigenvalues not converged
     c_bands:  1 eigenvalues not converged
     c_bands:  1 eigenvalues not converged
     c_bands:  1 eigenvalues not converged
     c_bands:  1 eigenvalues not converged
     c_bands:  1 eigenvalues not converged
     c_bands:  1 eigenvalues not converged
     c_bands:  1 eigenvalues not converged
     c_bands:  1 eigenvalues not converged
     c_bands:  1 eigenvalues not converged
     c_bands:  1 eigenvalues not converged
     c_bands:  1 eigenvalues not converged
     c_bands:  1 eigenvalues not converged
     c_bands:  1 eigenvalues not converged
     c_bands:  2 eigenvalues not converged
     c_bands:  1 eigenvalues not converged
     c_bands:  1 eigenvalues not converged
     c_bands:  1 eigenvalues not converged
     c_bands:  1 eigenvalues not converged
     c_bands:  1 eigenvalues not converged
     c_bands:  1 eigenvalues not converged
     c_bands:  1 eigenvalues not converged
     c_bands:  1 eigenvalues not converged
     c_bands:  1 eigenvalues not converged
     c_bands:  2 eigenvalues not converged
     c_bands:  2 eigenvalues not converged
     c_bands:  1 eigenvalues not converged
     c_bands:  1 eigenvalues not converged
     c_bands:  2 eigenvalues not converged
     c_bands:  2 eigenvalues not converged
     c_bands:  1 eigenvalues not converged
     c_bands:  1 eigenvalues not converged
     c_bands:  1 eigenvalues not converged
     c_bands:  1 eigenvalues not converged
     c_bands:  1 eigenvalues not converged
     c_bands:  1 eigenvalues not converged
     c_bands:  1 eigenvalues not converged
     c_bands:  1 eigenvalues not converged
     c_bands:  1 eigenvalues not converged
     c_bands:  1 eigenvalues not converged
     c_bands:  1 eigenvalues not converged
     c_bands:  1 eigenvalues not converged
     c_bands:  1 eigenvalues not converged
     c_bands:  1 eigenvalues not converged
     c_bands:  1 eigenvalues not converged
     c_bands:  1 eigenvalues not converged
     c_bands:  1 eigenvalues not converged
     c_bands:  1 eigenvalues not converged
     c_bands:  1 eigenvalues not converged
     c_bands:  1 eigenvalues not converged
     c_bands:  1 eigenvalues not converged
     c_bands:  1 eigenvalues not converged
     c_bands:  1 eigenvalues not converged
     c_bands:  1 eigenvalues not converged
     c_bands:  1 eigenvalues not converged
     ethr =  1.00E-06,  avg # of iterations = 14.6

     total cpu time spent up to now is     4327.4 secs

     total energy              =    -702.75354978 Ry
     Harris-Foulkes estimate   =    -710.08841870 Ry
     estimated scf accuracy    <       2.21962264 Ry

     iteration #  2     ecut=    40.00 Ry     beta= 0.60
     Davidson diagonalization with overlap
     ethr =  2.92E-03,  avg # of iterations =  6.1

     total cpu time spent up to now is     4421.7 secs

     total energy              =    -704.36178752 Ry
     Harris-Foulkes estimate   =    -708.69872248 Ry
     estimated scf accuracy    <      16.21079259 Ry

     iteration #  3     ecut=    40.00 Ry     beta= 0.60
     Davidson diagonalization with overlap
     ethr =  2.92E-03,  avg # of iterations =  4.8

     total cpu time spent up to now is     4497.9 secs

     total energy              =    -705.01383251 Ry
     Harris-Foulkes estimate   =    -705.50418761 Ry
     estimated scf accuracy    <       2.38035728 Ry

     iteration #  4     ecut=    40.00 Ry     beta= 0.60
     Davidson diagonalization with overlap
     ethr =  2.92E-03,  avg # of iterations =  1.6

     total cpu time spent up to now is     4545.2 secs

     total energy              =    -704.97371178 Ry
     Harris-Foulkes estimate   =    -705.20830746 Ry
     estimated scf accuracy    <       2.70715158 Ry

     iteration #  5     ecut=    40.00 Ry     beta= 0.60
     Davidson diagonalization with overlap
     ethr =  2.92E-03,  avg # of iterations =  1.0

     total cpu time spent up to now is     4591.0 secs

     total energy              =    -704.87044656 Ry
     Harris-Foulkes estimate   =    -705.06713483 Ry
     estimated scf accuracy    <       1.21188887 Ry

     iteration #  6     ecut=    40.00 Ry     beta= 0.60
     Davidson diagonalization with overlap
     ethr =  1.59E-03,  avg # of iterations =  3.0

     total cpu time spent up to now is     4641.8 secs

     total energy              =    -704.89642763 Ry
     Harris-Foulkes estimate   =    -704.92302032 Ry
     estimated scf accuracy    <       0.28285844 Ry

     iteration #  7     ecut=    40.00 Ry     beta= 0.60
     Davidson diagonalization with overlap
     ethr =  3.72E-04,  avg # of iterations =  4.8

     total cpu time spent up to now is     4712.1 secs

     total energy              =    -704.95144848 Ry
     Harris-Foulkes estimate   =    -704.94808296 Ry
     estimated scf accuracy    <       0.02235634 Ry

     iteration #  8     ecut=    40.00 Ry     beta= 0.60
     Davidson diagonalization with overlap
     ethr =  2.94E-05,  avg # of iterations =  5.2

     total cpu time spent up to now is     4791.2 secs

     total energy              =    -704.95474234 Ry
     Harris-Foulkes estimate   =    -704.96506309 Ry
     estimated scf accuracy    <       0.17500654 Ry

     iteration #  9     ecut=    40.00 Ry     beta= 0.60
     Davidson diagonalization with overlap
     ethr =  2.94E-05,  avg # of iterations =  1.0

     total cpu time spent up to now is     4837.9 secs

     total energy              =    -704.94286816 Ry
     Harris-Foulkes estimate   =    -704.95534229 Ry
     estimated scf accuracy    <       0.12642817 Ry

     iteration # 10     ecut=    40.00 Ry     beta= 0.60
     Davidson diagonalization with overlap
     ethr =  2.94E-05,  avg # of iterations =  4.0

     total cpu time spent up to now is     4897.5 secs

     total energy              =    -704.93243303 Ry
     Harris-Foulkes estimate   =    -704.94566691 Ry
     estimated scf accuracy    <       0.03776498 Ry

     iteration # 11     ecut=    40.00 Ry     beta= 0.60
     Davidson diagonalization with overlap
     ethr =  2.94E-05,  avg # of iterations =  5.1

     total cpu time spent up to now is     4980.2 secs

     total energy              =    -704.93899079 Ry
     Harris-Foulkes estimate   =    -704.94182452 Ry
     estimated scf accuracy    <       0.02216777 Ry

     iteration # 12     ecut=    40.00 Ry     beta= 0.60
     Davidson diagonalization with overlap
     ethr =  2.92E-05,  avg # of iterations =  1.0

     total cpu time spent up to now is     5026.9 secs

     total energy              =    -704.93954910 Ry
     Harris-Foulkes estimate   =    -704.93984063 Ry
     estimated scf accuracy    <       0.00285955 Ry

     iteration # 13     ecut=    40.00 Ry     beta= 0.60
     Davidson diagonalization with overlap
     ethr =  3.76E-06,  avg # of iterations =  4.6

     total cpu time spent up to now is     5099.6 secs

     total energy              =    -704.94014519 Ry
     Harris-Foulkes estimate   =    -704.94025709 Ry
     estimated scf accuracy    <       0.00074338 Ry

     iteration # 14     ecut=    40.00 Ry     beta= 0.60
     Davidson diagonalization with overlap
     ethr =  9.78E-07,  avg # of iterations =  1.8

     total cpu time spent up to now is     5148.2 secs

     total energy              =    -704.94020087 Ry
     Harris-Foulkes estimate   =    -704.94020252 Ry
     estimated scf accuracy    <       0.00020595 Ry

     iteration # 15     ecut=    40.00 Ry     beta= 0.60
     Davidson diagonalization with overlap
     ethr =  2.71E-07,  avg # of iterations =  2.6

     total cpu time spent up to now is     5202.6 secs

     total energy              =    -704.94020035 Ry
     Harris-Foulkes estimate   =    -704.94023157 Ry
     estimated scf accuracy    <       0.00044527 Ry

     iteration # 16     ecut=    40.00 Ry     beta= 0.60
     Davidson diagonalization with overlap
     ethr =  2.71E-07,  avg # of iterations =  1.0

     total cpu time spent up to now is     5249.3 secs

     total energy              =    -704.94019930 Ry
     Harris-Foulkes estimate   =    -704.94020625 Ry
     estimated scf accuracy    <       0.00019785 Ry

     iteration # 17     ecut=    40.00 Ry     beta= 0.60
     Davidson diagonalization with overlap
     ethr =  2.60E-07,  avg # of iterations =  1.0

     total cpu time spent up to now is     5295.9 secs

     total energy              =    -704.94018452 Ry
     Harris-Foulkes estimate   =    -704.94020147 Ry
     estimated scf accuracy    <       0.00011982 Ry

     iteration # 18     ecut=    40.00 Ry     beta= 0.60
     Davidson diagonalization with overlap
     ethr =  1.58E-07,  avg # of iterations =  3.6

     total cpu time spent up to now is     5351.5 secs

     total energy              =    -704.94019513 Ry
     Harris-Foulkes estimate   =    -704.94019528 Ry
     estimated scf accuracy    <       0.00000090 Ry

     iteration # 19     ecut=    40.00 Ry     beta= 0.60
     Davidson diagonalization with overlap
     ethr =  1.18E-09,  avg # of iterations =  5.4

     total cpu time spent up to now is     5433.3 secs

     total energy              =    -704.94019737 Ry
     Harris-Foulkes estimate   =    -704.94019770 Ry
     estimated scf accuracy    <       0.00000272 Ry

     iteration # 20     ecut=    40.00 Ry     beta= 0.60
     Davidson diagonalization with overlap
     ethr =  1.18E-09,  avg # of iterations =  3.1

     total cpu time spent up to now is     5486.2 secs

     total energy              =    -704.94019745 Ry
     Harris-Foulkes estimate   =    -704.94019748 Ry
     estimated scf accuracy    <       0.00000029 Ry

     iteration # 21     ecut=    40.00 Ry     beta= 0.60
     Davidson diagonalization with overlap
     ethr =  3.87E-10,  avg # of iterations =  3.8

     total cpu time spent up to now is     5547.9 secs

     total energy              =    -704.94019749 Ry
     Harris-Foulkes estimate   =    -704.94019751 Ry
     estimated scf accuracy    <       0.00000016 Ry

     iteration # 22     ecut=    40.00 Ry     beta= 0.60
     Davidson diagonalization with overlap
     ethr =  2.11E-10,  avg # of iterations =  2.8

     total cpu time spent up to now is     5599.9 secs

     total energy              =    -704.94019749 Ry
     Harris-Foulkes estimate   =    -704.94019751 Ry
     estimated scf accuracy    <       0.00000010 Ry

     iteration # 23     ecut=    40.00 Ry     beta= 0.60
     Davidson diagonalization with overlap
     ethr =  1.34E-10,  avg # of iterations =  1.8

     total cpu time spent up to now is     5648.4 secs

     total energy              =    -704.94019750 Ry
     Harris-Foulkes estimate   =    -704.94019750 Ry
     estimated scf accuracy    <       0.00000001 Ry

     iteration # 24     ecut=    40.00 Ry     beta= 0.60
     Davidson diagonalization with overlap
     ethr =  1.32E-11,  avg # of iterations =  4.1

     total cpu time spent up to now is     5711.1 secs

     total energy              =    -704.94019750 Ry
     Harris-Foulkes estimate   =    -704.94019750 Ry
     estimated scf accuracy    <          5.1E-09 Ry

     iteration # 25     ecut=    40.00 Ry     beta= 0.60
     Davidson diagonalization with overlap
     ethr =  6.76E-12,  avg # of iterations =  1.0

     total cpu time spent up to now is     5757.8 secs

     total energy              =    -704.94019750 Ry
     Harris-Foulkes estimate   =    -704.94019750 Ry
     estimated scf accuracy    <          3.2E-09 Ry

     iteration # 26     ecut=    40.00 Ry     beta= 0.60
     Davidson diagonalization with overlap
     ethr =  4.26E-12,  avg # of iterations =  1.3

     total cpu time spent up to now is     5805.1 secs

     total energy              =    -704.94019750 Ry
     Harris-Foulkes estimate   =    -704.94019750 Ry
     estimated scf accuracy    <          1.9E-09 Ry

     iteration # 27     ecut=    40.00 Ry     beta= 0.60
     Davidson diagonalization with overlap
     ethr =  2.46E-12,  avg # of iterations =  1.1

     total cpu time spent up to now is     5852.0 secs

     total energy              =    -704.94019750 Ry
     Harris-Foulkes estimate   =    -704.94019750 Ry
     estimated scf accuracy    <          1.1E-09 Ry

     iteration # 28     ecut=    40.00 Ry     beta= 0.60
     Davidson diagonalization with overlap
     ethr =  1.51E-12,  avg # of iterations =  3.2

     total cpu time spent up to now is     5907.5 secs

     End of self-consistent calculation

     Number of k-points >= 100: set verbosity='high' to print the bands.

     the Fermi energy is    16.6171 ev

!    total energy              =    -704.94019750 Ry
     Harris-Foulkes estimate   =    -704.94019750 Ry
     estimated scf accuracy    <          8.8E-11 Ry

     The total energy is the sum of the following terms:

     one-electron contribution =    -148.74716366 Ry
     hartree contribution      =     109.22308610 Ry
     xc contribution           =    -102.77650346 Ry
     ewald contribution        =    -562.63733945 Ry
     smearing contrib. (-TS)   =      -0.00227703 Ry

     convergence has been achieved in  28 iterations

     Forces acting on atoms (cartesian axes, Ry/au):

     atom    1 type  1   force =     0.00598604   -0.00345604   -0.00624706
     atom    2 type  2   force =     0.00395007   -0.00228057    0.00570391
     atom    3 type  2   force =    -0.00395021    0.00228065   -0.00570395
     atom    4 type  1   force =    -0.00598529    0.00345561    0.00624755
     atom    5 type  1   force =    -0.00529611    0.00305771    0.01023000
     atom    6 type  1   force =     0.00529550   -0.00305736   -0.01023044

     Total force =     0.023757     Total SCF correction =     0.000028


     Computing stress (Cartesian axis) and pressure

          total   stress  (Ry/bohr**3)                   (kbar)     P=   16.23
   0.00003492  -0.00004833  -0.00003141          5.14     -7.11     -4.62
  -0.00004833  -0.00002089   0.00001814         -7.11     -3.07      2.67
  -0.00003141   0.00001814   0.00031695         -4.62      2.67     46.62


     number of scf cycles    =   3
     number of bfgs steps    =   2

     enthalpy old            =    -704.9321090269 Ry
     enthalpy new            =    -704.9401974976 Ry

     CASE: enthalpy_new < enthalpy_old

     new trust radius        =       0.0332751059 bohr
     new conv_thr            =            1.0E-10 Ry

     new unit-cell volume =    726.08973 a.u.^3 (   107.59540 Ang^3 )
     density =      7.21284 g/cm^3

CELL_PARAMETERS (alat=  1.88972599)
  -2.927139154   0.020112417   4.906424003
  -1.480987442   2.524920847   4.906424003
  -4.372089823   2.524227426  -4.884313057

ATOMIC_POSITIONS (angstrom)
Nb      -4.375515232   2.526205087  -0.000020987
Ti      -5.848102170   3.376403614   2.481720476
Ti      -4.399486084   2.540044664   4.901254894
Nb      -5.872072237   3.390242738   7.382997329
Nb      -8.789986604   5.074901509   4.956145016
Nb      -1.457603010   0.841547554   2.426829271


     NEW-OLD atomic charge density approx. for the potential

     Check: negative/imaginary core charge=   -0.000001    0.000000
     extrapolated charge   76.07851, renormalised to   76.00000

     total cpu time spent up to now is     5926.2 secs

     Self-consistent Calculation

     iteration #  1     ecut=    40.00 Ry     beta= 0.60
     Davidson diagonalization with overlap
     ethr =  1.00E-06,  avg # of iterations =  5.1

     total cpu time spent up to now is     6034.2 secs

     total energy              =    -704.94118214 Ry
     Harris-Foulkes estimate   =    -704.83298249 Ry
     estimated scf accuracy    <       0.00138374 Ry

     iteration #  2     ecut=    40.00 Ry     beta= 0.60
     Davidson diagonalization with overlap
     ethr =  1.82E-06,  avg # of iterations =  5.3

     total cpu time spent up to now is     6129.7 secs

     total energy              =    -704.93794104 Ry
     Harris-Foulkes estimate   =    -704.94611766 Ry
     estimated scf accuracy    <       0.06223190 Ry

     iteration #  3     ecut=    40.00 Ry     beta= 0.60
     Davidson diagonalization with overlap
     ethr =  1.82E-06,  avg # of iterations =  5.6

     total cpu time spent up to now is     6216.7 secs

     total energy              =    -704.94214820 Ry
     Harris-Foulkes estimate   =    -704.94238992 Ry
     estimated scf accuracy    <       0.00140331 Ry

     iteration #  4     ecut=    40.00 Ry     beta= 0.60
     Davidson diagonalization with overlap
     ethr =  1.82E-06,  avg # of iterations =  1.0

     total cpu time spent up to now is     6263.2 secs

     total energy              =    -704.94216368 Ry
     Harris-Foulkes estimate   =    -704.94220462 Ry
     estimated scf accuracy    <       0.00024145 Ry

     iteration #  5     ecut=    40.00 Ry     beta= 0.60
     Davidson diagonalization with overlap
     ethr =  3.18E-07,  avg # of iterations =  3.8

     total cpu time spent up to now is     6326.1 secs

     total energy              =    -704.94219296 Ry
     Harris-Foulkes estimate   =    -704.94221890 Ry
     estimated scf accuracy    <       0.00017909 Ry

     iteration #  6     ecut=    40.00 Ry     beta= 0.60
     Davidson diagonalization with overlap
     ethr =  2.36E-07,  avg # of iterations =  1.4

     total cpu time spent up to now is     6373.3 secs

     total energy              =    -704.94220295 Ry
     Harris-Foulkes estimate   =    -704.94221118 Ry
     estimated scf accuracy    <       0.00005595 Ry

     iteration #  7     ecut=    40.00 Ry     beta= 0.60
     Davidson diagonalization with overlap
     ethr =  7.36E-08,  avg # of iterations =  3.8

     total cpu time spent up to now is     6434.6 secs

     total energy              =    -704.94220371 Ry
     Harris-Foulkes estimate   =    -704.94221716 Ry
     estimated scf accuracy    <       0.00010382 Ry

     iteration #  8     ecut=    40.00 Ry     beta= 0.60
     Davidson diagonalization with overlap
     ethr =  7.36E-08,  avg # of iterations =  1.6

     total cpu time spent up to now is     6482.3 secs

     total energy              =    -704.94220568 Ry
     Harris-Foulkes estimate   =    -704.94220800 Ry
     estimated scf accuracy    <       0.00001692 Ry

     iteration #  9     ecut=    40.00 Ry     beta= 0.60
     Davidson diagonalization with overlap
     ethr =  2.23E-08,  avg # of iterations =  3.8

     total cpu time spent up to now is     6545.2 secs

     total energy              =    -704.94220859 Ry
     Harris-Foulkes estimate   =    -704.94220965 Ry
     estimated scf accuracy    <       0.00000716 Ry

     iteration # 10     ecut=    40.00 Ry     beta= 0.60
     Davidson diagonalization with overlap
     ethr =  9.42E-09,  avg # of iterations =  2.1

     total cpu time spent up to now is     6594.8 secs

     total energy              =    -704.94220870 Ry
     Harris-Foulkes estimate   =    -704.94220932 Ry
     estimated scf accuracy    <       0.00000362 Ry

     iteration # 11     ecut=    40.00 Ry     beta= 0.60
     Davidson diagonalization with overlap
     ethr =  4.76E-09,  avg # of iterations =  2.8

     total cpu time spent up to now is     6648.8 secs

     total energy              =    -704.94220906 Ry
     Harris-Foulkes estimate   =    -704.94220910 Ry
     estimated scf accuracy    <       0.00000029 Ry

     iteration # 12     ecut=    40.00 Ry     beta= 0.60
     Davidson diagonalization with overlap
     ethr =  3.79E-10,  avg # of iterations =  3.8

     total cpu time spent up to now is     6712.4 secs

     total energy              =    -704.94220908 Ry
     Harris-Foulkes estimate   =    -704.94220913 Ry
     estimated scf accuracy    <       0.00000043 Ry

     iteration # 13     ecut=    40.00 Ry     beta= 0.60
     Davidson diagonalization with overlap
     ethr =  3.79E-10,  avg # of iterations =  1.6

     total cpu time spent up to now is     6760.4 secs

     total energy              =    -704.94220908 Ry
     Harris-Foulkes estimate   =    -704.94220910 Ry
     estimated scf accuracy    <       0.00000015 Ry

     iteration # 14     ecut=    40.00 Ry     beta= 0.60
     Davidson diagonalization with overlap
     ethr =  1.94E-10,  avg # of iterations =  3.0

     total cpu time spent up to now is     6815.4 secs

     total energy              =    -704.94220909 Ry
     Harris-Foulkes estimate   =    -704.94220910 Ry
     estimated scf accuracy    <       0.00000002 Ry

     iteration # 15     ecut=    40.00 Ry     beta= 0.60
     Davidson diagonalization with overlap
     ethr =  2.07E-11,  avg # of iterations =  3.8

     total cpu time spent up to now is     6878.8 secs

     total energy              =    -704.94220910 Ry
     Harris-Foulkes estimate   =    -704.94220910 Ry
     estimated scf accuracy    <          9.2E-09 Ry

     iteration # 16     ecut=    40.00 Ry     beta= 0.60
     Davidson diagonalization with overlap
     ethr =  1.20E-11,  avg # of iterations =  1.0

     total cpu time spent up to now is     6925.6 secs

     total energy              =    -704.94220910 Ry
     Harris-Foulkes estimate   =    -704.94220910 Ry
     estimated scf accuracy    <          8.5E-10 Ry

     iteration # 17     ecut=    40.00 Ry     beta= 0.60
     Davidson diagonalization with overlap
     ethr =  1.12E-12,  avg # of iterations =  4.2

     total cpu time spent up to now is     6992.7 secs

     total energy              =    -704.94220910 Ry
     Harris-Foulkes estimate   =    -704.94220910 Ry
     estimated scf accuracy    <          1.8E-10 Ry

     iteration # 18     ecut=    40.00 Ry     beta= 0.60
     Davidson diagonalization with overlap
     ethr =  2.33E-13,  avg # of iterations =  1.1

     total cpu time spent up to now is     7039.6 secs

     total energy              =    -704.94220910 Ry
     Harris-Foulkes estimate   =    -704.94220910 Ry
     estimated scf accuracy    <          2.0E-10 Ry

     iteration # 19     ecut=    40.00 Ry     beta= 0.60
     Davidson diagonalization with overlap
     ethr =  2.33E-13,  avg # of iterations =  2.6

     total cpu time spent up to now is     7091.2 secs

     End of self-consistent calculation

     Number of k-points >= 100: set verbosity='high' to print the bands.

     the Fermi energy is    16.5890 ev

!    total energy              =    -704.94220910 Ry
     Harris-Foulkes estimate   =    -704.94220910 Ry
     estimated scf accuracy    <          6.9E-12 Ry

     The total energy is the sum of the following terms:

     one-electron contribution =    -149.10016675 Ry
     hartree contribution      =     109.33695429 Ry
     xc contribution           =    -102.77116109 Ry
     ewald contribution        =    -562.40559096 Ry
     smearing contrib. (-TS)   =      -0.00224458 Ry

     convergence has been achieved in  19 iterations

     Forces acting on atoms (cartesian axes, Ry/au):

     atom    1 type  1   force =     0.00489847   -0.00282813   -0.00462277
     atom    2 type  2   force =     0.00437492   -0.00252586    0.00433253
     atom    3 type  2   force =    -0.00437490    0.00252585   -0.00433286
     atom    4 type  1   force =    -0.00489857    0.00282819    0.00462293
     atom    5 type  1   force =    -0.00460018    0.00265591    0.00690428
     atom    6 type  1   force =     0.00460027   -0.00265596   -0.00690411

     Total force =     0.018630     Total SCF correction =     0.000008


     Computing stress (Cartesian axis) and pressure

          total   stress  (Ry/bohr**3)                   (kbar)     P=   13.59
   0.00003107  -0.00004707  -0.00003422          4.57     -6.92     -5.03
  -0.00004707  -0.00002328   0.00001976         -6.92     -3.42      2.91
  -0.00003422   0.00001976   0.00026939         -5.03      2.91     39.63


     number of scf cycles    =   4
     number of bfgs steps    =   3

     enthalpy old            =    -704.9401974976 Ry
     enthalpy new            =    -704.9422090970 Ry

     CASE: enthalpy_new < enthalpy_old


     WARNING: bfgs curvature condition failed, Theta= 0.951
     new trust radius        =       0.0496301362 bohr
     new conv_thr            =            1.0E-10 Ry

     new unit-cell volume =    727.07265 a.u.^3 (   107.74105 Ang^3 )
     density =      7.20309 g/cm^3

CELL_PARAMETERS (alat=  1.88972599)
  -2.927275064   0.030982959   4.955263089
  -1.490469563   2.519603279   4.955263089
  -4.359702257   2.517075462  -4.919546683

ATOMIC_POSITIONS (angstrom)
Nb      -4.365763111   2.520574697   0.003643167
Ti      -5.841308286   3.372481164   2.520818784
Ti      -4.405493883   2.543513268   4.949776258
Nb      -5.881038294   3.395419293   7.466953355
Nb      -8.791800629   5.075948837   5.027179139
Nb      -1.455002969   0.840046419   2.443415128


     NEW-OLD atomic charge density approx. for the potential

     Check: negative/imaginary core charge=   -0.000001    0.000000
     extrapolated charge   76.10002, renormalised to   76.00000

     total cpu time spent up to now is     7110.4 secs

     Self-consistent Calculation

     iteration #  1     ecut=    40.00 Ry     beta= 0.60
     Davidson diagonalization with overlap
     c_bands:  1 eigenvalues not converged
     c_bands:  1 eigenvalues not converged
     c_bands:  1 eigenvalues not converged
     c_bands:  1 eigenvalues not converged
     c_bands:  1 eigenvalues not converged
     ethr =  1.00E-06,  avg # of iterations =  7.1

     total cpu time spent up to now is     7228.6 secs

     total energy              =    -704.94216388 Ry
     Harris-Foulkes estimate   =    -704.80505023 Ry
     estimated scf accuracy    <       0.00338069 Ry

     iteration #  2     ecut=    40.00 Ry     beta= 0.60
     Davidson diagonalization with overlap
     ethr =  4.45E-06,  avg # of iterations =  5.3

     total cpu time spent up to now is     7321.7 secs

     total energy              =    -704.93333556 Ry
     Harris-Foulkes estimate   =    -704.95527363 Ry
     estimated scf accuracy    <       0.17149188 Ry

     iteration #  3     ecut=    40.00 Ry     beta= 0.60
     Davidson diagonalization with overlap
     ethr =  4.45E-06,  avg # of iterations =  5.7

     total cpu time spent up to now is     7409.9 secs

     total energy              =    -704.94449687 Ry
     Harris-Foulkes estimate   =    -704.94487733 Ry
     estimated scf accuracy    <       0.00207480 Ry

     iteration #  4     ecut=    40.00 Ry     beta= 0.60
     Davidson diagonalization with overlap
     ethr =  2.73E-06,  avg # of iterations =  1.0

     total cpu time spent up to now is     7456.4 secs

     total energy              =    -704.94451626 Ry
     Harris-Foulkes estimate   =    -704.94458605 Ry
     estimated scf accuracy    <       0.00037963 Ry

     iteration #  5     ecut=    40.00 Ry     beta= 0.60
     Davidson diagonalization with overlap
     ethr =  5.00E-07,  avg # of iterations =  3.8

     total cpu time spent up to now is     7519.3 secs

     total energy              =    -704.94457375 Ry
     Harris-Foulkes estimate   =    -704.94460432 Ry
     estimated scf accuracy    <       0.00014115 Ry

     iteration #  6     ecut=    40.00 Ry     beta= 0.60
     Davidson diagonalization with overlap
     ethr =  1.86E-07,  avg # of iterations =  3.9

     total cpu time spent up to now is     7580.1 secs

     total energy              =    -704.94458473 Ry
     Harris-Foulkes estimate   =    -704.94461151 Ry
     estimated scf accuracy    <       0.00024828 Ry

     iteration #  7     ecut=    40.00 Ry     beta= 0.60
     Davidson diagonalization with overlap
     ethr =  1.86E-07,  avg # of iterations =  2.7

     total cpu time spent up to now is     7630.8 secs

     total energy              =    -704.94458411 Ry
     Harris-Foulkes estimate   =    -704.94460416 Ry
     estimated scf accuracy    <       0.00017272 Ry

     iteration #  8     ecut=    40.00 Ry     beta= 0.60
     Davidson diagonalization with overlap
     ethr =  1.86E-07,  avg # of iterations =  1.6

     total cpu time spent up to now is     7678.7 secs

     total energy              =    -704.94459134 Ry
     Harris-Foulkes estimate   =    -704.94459389 Ry
     estimated scf accuracy    <       0.00001991 Ry

     iteration #  9     ecut=    40.00 Ry     beta= 0.60
     Davidson diagonalization with overlap
     ethr =  2.62E-08,  avg # of iterations =  4.0

     total cpu time spent up to now is     7752.5 secs

     total energy              =    -704.94459416 Ry
     Harris-Foulkes estimate   =    -704.94459474 Ry
     estimated scf accuracy    <       0.00000223 Ry

     iteration # 10     ecut=    40.00 Ry     beta= 0.60
     Davidson diagonalization with overlap
     ethr =  2.93E-09,  avg # of iterations =  3.6

     total cpu time spent up to now is     7826.3 secs

     total energy              =    -704.94459426 Ry
     Harris-Foulkes estimate   =    -704.94459493 Ry
     estimated scf accuracy    <       0.00000414 Ry

     iteration # 11     ecut=    40.00 Ry     beta= 0.60
     Davidson diagonalization with overlap
     ethr =  2.93E-09,  avg # of iterations =  2.7

     total cpu time spent up to now is     7888.2 secs

     total energy              =    -704.94459452 Ry
     Harris-Foulkes estimate   =    -704.94459460 Ry
     estimated scf accuracy    <       0.00000033 Ry

     iteration # 12     ecut=    40.00 Ry     beta= 0.60
     Davidson diagonalization with overlap
     ethr =  4.28E-10,  avg # of iterations =  3.4

     total cpu time spent up to now is     7960.6 secs

     total energy              =    -704.94459456 Ry
     Harris-Foulkes estimate   =    -704.94459462 Ry
     estimated scf accuracy    <       0.00000040 Ry

     iteration # 13     ecut=    40.00 Ry     beta= 0.60
     Davidson diagonalization with overlap
     ethr =  4.28E-10,  avg # of iterations =  1.9

     total cpu time spent up to now is     8017.8 secs

     total energy              =    -704.94459458 Ry
     Harris-Foulkes estimate   =    -704.94459459 Ry
     estimated scf accuracy    <       0.00000009 Ry

     iteration # 14     ecut=    40.00 Ry     beta= 0.60
     Davidson diagonalization with overlap
     ethr =  1.17E-10,  avg # of iterations =  2.5

     total cpu time spent up to now is     8079.0 secs

     total energy              =    -704.94459459 Ry
     Harris-Foulkes estimate   =    -704.94459459 Ry
     estimated scf accuracy    <       0.00000001 Ry

     iteration # 15     ecut=    40.00 Ry     beta= 0.60
     Davidson diagonalization with overlap
     ethr =  1.55E-11,  avg # of iterations =  3.7

     total cpu time spent up to now is     8149.8 secs

     total energy              =    -704.94459459 Ry
     Harris-Foulkes estimate   =    -704.94459459 Ry
     estimated scf accuracy    <          1.1E-09 Ry

     iteration # 16     ecut=    40.00 Ry     beta= 0.60
     Davidson diagonalization with overlap
     ethr =  1.40E-12,  avg # of iterations =  3.3

     total cpu time spent up to now is     8219.2 secs

     total energy              =    -704.94459459 Ry
     Harris-Foulkes estimate   =    -704.94459459 Ry
     estimated scf accuracy    <          2.2E-10 Ry

     iteration # 17     ecut=    40.00 Ry     beta= 0.60
     Davidson diagonalization with overlap
     ethr =  2.93E-13,  avg # of iterations =  2.1

     total cpu time spent up to now is     8279.9 secs

     End of self-consistent calculation

     Number of k-points >= 100: set verbosity='high' to print the bands.

     the Fermi energy is    16.5506 ev

!    total energy              =    -704.94459459 Ry
     Harris-Foulkes estimate   =    -704.94459459 Ry
     estimated scf accuracy    <          1.7E-11 Ry

     The total energy is the sum of the following terms:

     one-electron contribution =    -149.65964710 Ry
     hartree contribution      =     109.53834443 Ry
     xc contribution           =    -102.76666850 Ry
     ewald contribution        =    -562.05445049 Ry
     smearing contrib. (-TS)   =      -0.00217293 Ry

     convergence has been achieved in  17 iterations

     Forces acting on atoms (cartesian axes, Ry/au):

     atom    1 type  1   force =     0.00320565   -0.00185079   -0.00235737
     atom    2 type  2   force =     0.00471954   -0.00272483    0.00222639
     atom    3 type  2   force =    -0.00471940    0.00272475   -0.00222619
     atom    4 type  1   force =    -0.00320634    0.00185118    0.00235684
     atom    5 type  1   force =    -0.00389882    0.00225099    0.00285485
     atom    6 type  1   force =     0.00389937   -0.00225130   -0.00285452

     Total force =     0.012832     Total SCF correction =     0.000017


     Computing stress (Cartesian axis) and pressure

          total   stress  (Ry/bohr**3)                   (kbar)     P=   10.34
   0.00002982  -0.00004355  -0.00003853          4.39     -6.41     -5.67
  -0.00004355  -0.00002046   0.00002225         -6.41     -3.01      3.27
  -0.00003853   0.00002225   0.00020154         -5.67      3.27     29.65


     number of scf cycles    =   5
     number of bfgs steps    =   4

     enthalpy old            =    -704.9422090970 Ry
     enthalpy new            =    -704.9445945884 Ry

     CASE: enthalpy_new < enthalpy_old

     new trust radius        =       0.0738075712 bohr
     new conv_thr            =            1.0E-10 Ry

     new unit-cell volume =    728.78142 a.u.^3 (   107.99426 Ang^3 )
     density =      7.18620 g/cm^3

CELL_PARAMETERS (alat=  1.88972599)
  -2.931511751   0.049661223   5.029431985
  -1.508763759   2.513933225   5.029431985
  -4.341855067   2.506771383  -4.968585842

ATOMIC_POSITIONS (angstrom)
Nb      -4.354823660   2.514258803   0.013259719
Ti      -5.835424126   3.369083943   2.582323896
Ti      -4.421328661   2.552655480   5.026050360
Nb      -5.901929015   3.407480556   7.595115698
Nb      -8.803709849   5.082824629   5.137243143
Nb      -1.453044148   0.838915493   2.471130528


     NEW-OLD atomic charge density approx. for the potential

     Check: negative/imaginary core charge=   -0.000001    0.000000
     extrapolated charge   76.17348, renormalised to   76.00000

     total cpu time spent up to now is     8301.9 secs

     Self-consistent Calculation

     iteration #  1     ecut=    40.00 Ry     beta= 0.60
     Davidson diagonalization with overlap
     c_bands:  1 eigenvalues not converged
     c_bands:  1 eigenvalues not converged
     c_bands:  1 eigenvalues not converged
     c_bands:  1 eigenvalues not converged
     c_bands:  1 eigenvalues not converged
     ethr =  1.00E-06,  avg # of iterations =  9.3

     total cpu time spent up to now is     8459.3 secs

     total energy              =    -704.94099154 Ry
     Harris-Foulkes estimate   =    -704.70320286 Ry
     estimated scf accuracy    <       0.00802362 Ry

     iteration #  2     ecut=    40.00 Ry     beta= 0.60
     Davidson diagonalization with overlap
     ethr =  1.06E-05,  avg # of iterations =  5.4

     total cpu time spent up to now is     8571.9 secs

     total energy              =    -704.92060425 Ry
     Harris-Foulkes estimate   =    -704.97187810 Ry
     estimated scf accuracy    <       0.39529984 Ry

     iteration #  3     ecut=    40.00 Ry     beta= 0.60
     Davidson diagonalization with overlap
     ethr =  1.06E-05,  avg # of iterations =  5.8

     total cpu time spent up to now is     8677.9 secs

     total energy              =    -704.94663624 Ry
     Harris-Foulkes estimate   =    -704.94769460 Ry
     estimated scf accuracy    <       0.00579220 Ry

     iteration #  4     ecut=    40.00 Ry     beta= 0.60
     Davidson diagonalization with overlap
     ethr =  7.62E-06,  avg # of iterations =  1.3

     total cpu time spent up to now is     8731.8 secs

     total energy              =    -704.94669319 Ry
     Harris-Foulkes estimate   =    -704.94697249 Ry
     estimated scf accuracy    <       0.00165221 Ry

     iteration #  5     ecut=    40.00 Ry     beta= 0.60
     Davidson diagonalization with overlap
     ethr =  2.17E-06,  avg # of iterations =  3.0

     total cpu time spent up to now is     8797.8 secs

     total energy              =    -704.94682113 Ry
     Harris-Foulkes estimate   =    -704.94698883 Ry
     estimated scf accuracy    <       0.00076323 Ry

     iteration #  6     ecut=    40.00 Ry     beta= 0.60
     Davidson diagonalization with overlap
     ethr =  1.00E-06,  avg # of iterations =  3.5

     total cpu time spent up to now is     8861.8 secs

     total energy              =    -704.94689059 Ry
     Harris-Foulkes estimate   =    -704.94690674 Ry
     estimated scf accuracy    <       0.00004088 Ry

     iteration #  7     ecut=    40.00 Ry     beta= 0.60
     Davidson diagonalization with overlap
     ethr =  5.38E-08,  avg # of iterations =  4.8

     total cpu time spent up to now is     8952.7 secs

     total energy              =    -704.94687937 Ry
     Harris-Foulkes estimate   =    -704.94696520 Ry
     estimated scf accuracy    <       0.00095095 Ry

     iteration #  8     ecut=    40.00 Ry     beta= 0.60
     Davidson diagonalization with overlap
     ethr =  5.38E-08,  avg # of iterations =  4.1

     total cpu time spent up to now is     9029.9 secs

     total energy              =    -704.94691489 Ry
     Harris-Foulkes estimate   =    -704.94692164 Ry
     estimated scf accuracy    <       0.00004580 Ry

     iteration #  9     ecut=    40.00 Ry     beta= 0.60
     Davidson diagonalization with overlap
     ethr =  5.38E-08,  avg # of iterations =  1.0

     total cpu time spent up to now is     9076.5 secs

     total energy              =    -704.94691592 Ry
     Harris-Foulkes estimate   =    -704.94691727 Ry
     estimated scf accuracy    <       0.00000711 Ry

     iteration # 10     ecut=    40.00 Ry     beta= 0.60
     Davidson diagonalization with overlap
     ethr =  9.35E-09,  avg # of iterations =  4.0

     total cpu time spent up to now is     9141.4 secs

     total energy              =    -704.94691752 Ry
     Harris-Foulkes estimate   =    -704.94691826 Ry
     estimated scf accuracy    <       0.00000577 Ry

     iteration # 11     ecut=    40.00 Ry     beta= 0.60
     Davidson diagonalization with overlap
     ethr =  7.59E-09,  avg # of iterations =  1.2

     total cpu time spent up to now is     9188.5 secs

     total energy              =    -704.94691763 Ry
     Harris-Foulkes estimate   =    -704.94691795 Ry
     estimated scf accuracy    <       0.00000213 Ry

     iteration # 12     ecut=    40.00 Ry     beta= 0.60
     Davidson diagonalization with overlap
     ethr =  2.80E-09,  avg # of iterations =  2.7

     total cpu time spent up to now is     9242.1 secs

     total energy              =    -704.94691777 Ry
     Harris-Foulkes estimate   =    -704.94691785 Ry
     estimated scf accuracy    <       0.00000043 Ry

     iteration # 13     ecut=    40.00 Ry     beta= 0.60
     Davidson diagonalization with overlap
     ethr =  5.70E-10,  avg # of iterations =  2.8

     total cpu time spent up to now is     9297.3 secs

     total energy              =    -704.94691781 Ry
     Harris-Foulkes estimate   =    -704.94691783 Ry
     estimated scf accuracy    <       0.00000006 Ry

     iteration # 14     ecut=    40.00 Ry     beta= 0.60
     Davidson diagonalization with overlap
     ethr =  7.52E-11,  avg # of iterations =  4.0

     total cpu time spent up to now is     9364.8 secs

     total energy              =    -704.94691782 Ry
     Harris-Foulkes estimate   =    -704.94691784 Ry
     estimated scf accuracy    <       0.00000015 Ry

     iteration # 15     ecut=    40.00 Ry     beta= 0.60
     Davidson diagonalization with overlap
     ethr =  7.52E-11,  avg # of iterations =  3.3

     total cpu time spent up to now is     9422.1 secs

[...]

     PseudoPot. # 2 for Ti read from file:
     ./Ti.pbe-sp-van_ak.UPF
     MD5 check sum: f98fea3e8887528921fefa5636a534ca
     Pseudo is Ultrasoft, Zval = 12.0
     Generated by new atomic code, or converted to UPF format
     Using radial grid of  851 points,  6 beta functions with: 
                l(1) =   0
                l(2) =   0
                l(3) =   1
                l(4) =   1
                l(5) =   2
                l(6) =   2
     Q(r) pseudized with  8 coefficients,  rinner =    1.000   1.000   1.000
                                                       1.000   1.000

     atomic species   valence    mass     pseudopotential
        Nb            13.00    92.90638     Nb( 1.00)
        Ti            12.00    47.86700     Ti( 1.00)

      2 Sym. Ops. (no inversion) found



   Cartesian axes

     site n.     atom                  positions (alat units)
         1           Nb  tau(   1) = (  -4.3811399   2.5294525   0.6357893  )
         2           Ti  tau(   2) = (  -6.1972724   3.5779971   3.3785290  )
         3           Ti  tau(   3) = (  -4.9093771   2.8344303   5.7058748  )
         4           Nb  tau(   4) = (  -6.7255102   3.8829753   8.4486153  )
         5           Nb  tau(   5) = (  -9.3566120   5.4020428   6.3942274  )
         6           Nb  tau(   6) = (  -1.7500396   1.0103859   2.6901764  )

     number of k points=   398  Marzari-Vanderbilt smearing, width (Ry)=  0.0200

     Number of k-points >= 100: set verbosity='high' to print them.

     Dense  grid:    98435 G-vectors     FFT dimensions: (  80,  80,  75)

     Smooth grid:    24881 G-vectors     FFT dimensions: (  50,  50,  48)

     Estimated max dynamical RAM per process >     316.79 MB

     Estimated total dynamical RAM >       1.24 GB

     Check: negative/imaginary core charge=   -0.000001    0.000000

     Initial potential from superposition of free atoms

     starting charge   73.98898, renormalised to   76.00000
     Starting wfcs are   72 randomized atomic wfcs

     total cpu time spent up to now is    54183.8 secs

     Self-consistent Calculation

     iteration #  1     ecut=    40.00 Ry     beta= 0.60
     Davidson diagonalization with overlap
     c_bands:  1 eigenvalues not converged
     c_bands:  2 eigenvalues not converged
     c_bands:  1 eigenvalues not converged
     c_bands:  1 eigenvalues not converged
     c_bands:  1 eigenvalues not converged
     c_bands:  1 eigenvalues not converged
     c_bands:  1 eigenvalues not converged
     c_bands:  1 eigenvalues not converged
     ethr =  1.00E-06,  avg # of iterations = 13.0

     total cpu time spent up to now is    54352.5 secs

     total energy              =    -657.97551363 Ry
     Harris-Foulkes estimate   =    -709.62342272 Ry
     estimated scf accuracy    <      64.09592634 Ry

     iteration #  2     ecut=    40.00 Ry     beta= 0.60
     Davidson diagonalization with overlap
     ethr =  1.00E-02,  avg # of iterations =  7.9

     total cpu time spent up to now is    54469.4 secs

     total energy              =    -669.69431193 Ry
     Harris-Foulkes estimate   =    -795.19299940 Ry
     estimated scf accuracy    <     426.57921147 Ry

     iteration #  3     ecut=    40.00 Ry     beta= 0.60
     Davidson diagonalization with overlap
     ethr =  1.00E-02,  avg # of iterations =  5.4

     total cpu time spent up to now is    54564.1 secs

     total energy              =    -707.39584300 Ry
     Harris-Foulkes estimate   =    -710.08906872 Ry
     estimated scf accuracy    <      23.31154641 Ry

     iteration #  4     ecut=    40.00 Ry     beta= 0.60
     Davidson diagonalization with overlap
     ethr =  1.00E-02,  avg # of iterations =  1.7

     total cpu time spent up to now is    54610.7 secs

     total energy              =    -706.50768466 Ry
     Harris-Foulkes estimate   =    -708.02189461 Ry
     estimated scf accuracy    <      20.01257101 Ry

     iteration #  5     ecut=    40.00 Ry     beta= 0.60
     Davidson diagonalization with overlap
     ethr =  1.00E-02,  avg # of iterations =  1.0

     total cpu time spent up to now is    54655.6 secs

     total energy              =    -705.81664903 Ry
     Harris-Foulkes estimate   =    -706.84803785 Ry
     estimated scf accuracy    <      12.44455166 Ry

     iteration #  6     ecut=    40.00 Ry     beta= 0.60
     Davidson diagonalization with overlap
     ethr =  1.00E-02,  avg # of iterations =  1.0

     total cpu time spent up to now is    54700.7 secs

     total energy              =    -705.18047089 Ry
     Harris-Foulkes estimate   =    -705.90974070 Ry
     estimated scf accuracy    <       8.73553162 Ry

     iteration #  7     ecut=    40.00 Ry     beta= 0.60
     Davidson diagonalization with overlap
     ethr =  1.00E-02,  avg # of iterations =  1.5

     total cpu time spent up to now is    54753.3 secs

     total energy              =    -704.53178886 Ry
     Harris-Foulkes estimate   =    -705.30951343 Ry
     estimated scf accuracy    <       5.21508671 Ry

     iteration #  8     ecut=    40.00 Ry     beta= 0.60
     Davidson diagonalization with overlap
     ethr =  6.86E-03,  avg # of iterations =  3.7

     total cpu time spent up to now is    54815.7 secs

     total energy              =    -704.59357127 Ry
     Harris-Foulkes estimate   =    -704.85827666 Ry
     estimated scf accuracy    <       0.55927327 Ry

     iteration #  9     ecut=    40.00 Ry     beta= 0.60
     Davidson diagonalization with overlap
     ethr =  7.36E-04,  avg # of iterations =  5.0

     total cpu time spent up to now is    54917.5 secs

     total energy              =    -704.50908616 Ry
     Harris-Foulkes estimate   =    -705.90054856 Ry
     estimated scf accuracy    <      21.07591384 Ry

     iteration # 10     ecut=    40.00 Ry     beta= 0.60
     Davidson diagonalization with overlap
     ethr =  7.36E-04,  avg # of iterations =  4.6

     total cpu time spent up to now is    55000.3 secs

     total energy              =    -704.77969525 Ry
     Harris-Foulkes estimate   =    -705.07025189 Ry
     estimated scf accuracy    <       1.65520659 Ry

     iteration # 11     ecut=    40.00 Ry     beta= 0.60
     Davidson diagonalization with overlap
     ethr =  7.36E-04,  avg # of iterations =  6.1

     total cpu time spent up to now is    55082.5 secs

     total energy              =    -705.01561223 Ry
     Harris-Foulkes estimate   =    -705.02271615 Ry
     estimated scf accuracy    <       0.40651530 Ry

     iteration # 12     ecut=    40.00 Ry     beta= 0.60
     Davidson diagonalization with overlap
     ethr =  5.35E-04,  avg # of iterations =  1.7

     total cpu time spent up to now is    55135.7 secs

     total energy              =    -705.01257091 Ry
     Harris-Foulkes estimate   =    -705.01910922 Ry
     estimated scf accuracy    <       0.41393001 Ry

     iteration # 13     ecut=    40.00 Ry     beta= 0.60
     Davidson diagonalization with overlap
     ethr =  5.35E-04,  avg # of iterations =  1.0

     total cpu time spent up to now is    55186.3 secs

     total energy              =    -704.97395475 Ry
     Harris-Foulkes estimate   =    -705.01495392 Ry
     estimated scf accuracy    <       0.45106450 Ry

     iteration # 14     ecut=    40.00 Ry     beta= 0.60
     Davidson diagonalization with overlap
     ethr =  5.35E-04,  avg # of iterations =  1.0

     total cpu time spent up to now is    55236.9 secs

     total energy              =    -704.96587395 Ry
     Harris-Foulkes estimate   =    -704.98067939 Ry
     estimated scf accuracy    <       0.20139633 Ry

     iteration # 15     ecut=    40.00 Ry     beta= 0.60
     Davidson diagonalization with overlap
     ethr =  2.65E-04,  avg # of iterations =  1.9

     total cpu time spent up to now is    55291.0 secs

     total energy              =    -704.96487770 Ry
     Harris-Foulkes estimate   =    -704.97148388 Ry
     estimated scf accuracy    <       0.06859209 Ry

     iteration # 16     ecut=    40.00 Ry     beta= 0.60
     Davidson diagonalization with overlap
     ethr =  9.03E-05,  avg # of iterations =  4.2

     total cpu time spent up to now is    55355.9 secs

     total energy              =    -704.97037216 Ry
     Harris-Foulkes estimate   =    -704.96897486 Ry
     estimated scf accuracy    <       0.01015818 Ry

     iteration # 17     ecut=    40.00 Ry     beta= 0.60
     Davidson diagonalization with overlap
     ethr =  1.34E-05,  avg # of iterations =  6.4

     total cpu time spent up to now is    55436.8 secs

     total energy              =    -704.97125102 Ry
     Harris-Foulkes estimate   =    -704.97156644 Ry
     estimated scf accuracy    <       0.02468835 Ry

     iteration # 18     ecut=    40.00 Ry     beta= 0.60
     Davidson diagonalization with overlap
     ethr =  1.34E-05,  avg # of iterations =  1.0

     total cpu time spent up to now is    55487.4 secs

     total energy              =    -704.96722435 Ry
     Harris-Foulkes estimate   =    -704.97131242 Ry
     estimated scf accuracy    <       0.02307912 Ry

     iteration # 19     ecut=    40.00 Ry     beta= 0.60
     Davidson diagonalization with overlap
     ethr =  1.34E-05,  avg # of iterations =  4.2

     total cpu time spent up to now is    55555.5 secs

     total energy              =    -704.96869544 Ry
     Harris-Foulkes estimate   =    -704.96906383 Ry
     estimated scf accuracy    <       0.00255056 Ry

     iteration # 20     ecut=    40.00 Ry     beta= 0.60
     Davidson diagonalization with overlap
     c_bands:  1 eigenvalues not converged
     c_bands:  1 eigenvalues not converged
     c_bands:  1 eigenvalues not converged
     ethr =  3.36E-06,  avg # of iterations =  5.8

     total cpu time spent up to now is    55629.3 secs

     total energy              =    -704.96892665 Ry
     Harris-Foulkes estimate   =    -704.96896170 Ry
     estimated scf accuracy    <       0.00052668 Ry

     iteration # 21     ecut=    40.00 Ry     beta= 0.60
     Davidson diagonalization with overlap
     ethr =  6.93E-07,  avg # of iterations =  2.8

     total cpu time spent up to now is    55689.1 secs

     total energy              =    -704.96894150 Ry
     Harris-Foulkes estimate   =    -704.96896946 Ry
     estimated scf accuracy    <       0.00042806 Ry

     iteration # 22     ecut=    40.00 Ry     beta= 0.60
     Davidson diagonalization with overlap
     ethr =  5.63E-07,  avg # of iterations =  1.0

     total cpu time spent up to now is    55739.7 secs

     total energy              =    -704.96892974 Ry
     Harris-Foulkes estimate   =    -704.96895219 Ry
     estimated scf accuracy    <       0.00021046 Ry

     iteration # 23     ecut=    40.00 Ry     beta= 0.60
     Davidson diagonalization with overlap
     ethr =  2.77E-07,  avg # of iterations =  2.5

     total cpu time spent up to now is    55796.4 secs

     total energy              =    -704.96893763 Ry
     Harris-Foulkes estimate   =    -704.96894086 Ry
     estimated scf accuracy    <       0.00001953 Ry

     iteration # 24     ecut=    40.00 Ry     beta= 0.60
     Davidson diagonalization with overlap
     ethr =  2.57E-08,  avg # of iterations =  4.2

     total cpu time spent up to now is    55872.2 secs

     total energy              =    -704.96894206 Ry
     Harris-Foulkes estimate   =    -704.96894387 Ry
     estimated scf accuracy    <       0.00001496 Ry

     iteration # 25     ecut=    40.00 Ry     beta= 0.60
     Davidson diagonalization with overlap
     ethr =  1.97E-08,  avg # of iterations =  1.0

     total cpu time spent up to now is    55922.8 secs

     total energy              =    -704.96894229 Ry
     Harris-Foulkes estimate   =    -704.96894277 Ry
     estimated scf accuracy    <       0.00000415 Ry

     iteration # 26     ecut=    40.00 Ry     beta= 0.60
     Davidson diagonalization with overlap
     ethr =  5.46E-09,  avg # of iterations =  3.0

     total cpu time spent up to now is    55984.2 secs

     total energy              =    -704.96894264 Ry
     Harris-Foulkes estimate   =    -704.96894269 Ry
     estimated scf accuracy    <       0.00000025 Ry

     iteration # 27     ecut=    40.00 Ry     beta= 0.60
     Davidson diagonalization with overlap
     ethr =  3.31E-10,  avg # of iterations =  3.6

     total cpu time spent up to now is    56050.8 secs

     total energy              =    -704.96894268 Ry
     Harris-Foulkes estimate   =    -704.96894270 Ry
     estimated scf accuracy    <       0.00000014 Ry

     iteration # 28     ecut=    40.00 Ry     beta= 0.60
     Davidson diagonalization with overlap
     ethr =  1.84E-10,  avg # of iterations =  1.0

     total cpu time spent up to now is    56095.7 secs

     total energy              =    -704.96894268 Ry
     Harris-Foulkes estimate   =    -704.96894269 Ry
     estimated scf accuracy    <       0.00000004 Ry

     iteration # 29     ecut=    40.00 Ry     beta= 0.60
     Davidson diagonalization with overlap
     ethr =  5.75E-11,  avg # of iterations =  3.1

     total cpu time spent up to now is    56151.0 secs

     total energy              =    -704.96894269 Ry
     Harris-Foulkes estimate   =    -704.96894269 Ry
     estimated scf accuracy    <          9.3E-09 Ry

     iteration # 30     ecut=    40.00 Ry     beta= 0.60
     Davidson diagonalization with overlap
     ethr =  1.23E-11,  avg # of iterations =  2.0

     total cpu time spent up to now is    56198.9 secs

     total energy              =    -704.96894269 Ry
     Harris-Foulkes estimate   =    -704.96894269 Ry
     estimated scf accuracy    <          6.5E-10 Ry

     iteration # 31     ecut=    40.00 Ry     beta= 0.60
     Davidson diagonalization with overlap
     ethr =  8.52E-13,  avg # of iterations =  4.2

     total cpu time spent up to now is    56263.7 secs

     total energy              =    -704.96894269 Ry
     Harris-Foulkes estimate   =    -704.96894269 Ry
     estimated scf accuracy    <          2.5E-10 Ry

     iteration # 32     ecut=    40.00 Ry     beta= 0.60
     Davidson diagonalization with overlap
     ethr =  3.28E-13,  avg # of iterations =  1.0

     total cpu time spent up to now is    56308.6 secs

     total energy              =    -704.96894269 Ry
     Harris-Foulkes estimate   =    -704.96894269 Ry
     estimated scf accuracy    <          1.1E-10 Ry

     iteration # 33     ecut=    40.00 Ry     beta= 0.60
     Davidson diagonalization with overlap
     ethr =  1.47E-13,  avg # of iterations =  2.6

     total cpu time spent up to now is    56359.1 secs

     total energy              =    -704.96894269 Ry
     Harris-Foulkes estimate   =    -704.96894269 Ry
     estimated scf accuracy    <          7.7E-12 Ry

     iteration # 34     ecut=    40.00 Ry     beta= 0.60
     Davidson diagonalization with overlap
     ethr =  1.00E-13,  avg # of iterations =  1.0

     total cpu time spent up to now is    56404.0 secs

     total energy              =    -704.96894269 Ry
     Harris-Foulkes estimate   =    -704.96894269 Ry
     estimated scf accuracy    <          1.8E-12 Ry

     iteration # 35     ecut=    40.00 Ry     beta= 0.60
     Davidson diagonalization with overlap
     ethr =  1.00E-13,  avg # of iterations =  1.0

     total cpu time spent up to now is    56448.8 secs

     total energy              =    -704.96894269 Ry
     Harris-Foulkes estimate   =    -704.96894269 Ry
     estimated scf accuracy    <          3.4E-12 Ry

     iteration # 36     ecut=    40.00 Ry     beta= 0.60
     Davidson diagonalization with overlap
     ethr =  1.00E-13,  avg # of iterations =  1.0

     total cpu time spent up to now is    56493.7 secs

     End of self-consistent calculation

     Number of k-points >= 100: set verbosity='high' to print the bands.

     the Fermi energy is    16.3554 ev

!    total energy              =    -704.96894269 Ry
     Harris-Foulkes estimate   =    -704.96894269 Ry
     estimated scf accuracy    <          1.0E-12 Ry

     The total energy is the sum of the following terms:

     one-electron contribution =    -152.61822656 Ry
     hartree contribution      =     110.86216001 Ry
     xc contribution           =    -102.81211286 Ry
     ewald contribution        =    -560.40346035 Ry
     smearing contrib. (-TS)   =       0.00269708 Ry

     convergence has been achieved in  36 iterations

     Forces acting on atoms (cartesian axes, Ry/au):

     atom    1 type  1   force =     0.00004915   -0.00002838   -0.00003874
     atom    2 type  2   force =    -0.00008299    0.00004792   -0.00010296
     atom    3 type  2   force =     0.00007992   -0.00004614    0.00011970
     atom    4 type  1   force =    -0.00005037    0.00002908    0.00003210
     atom    5 type  1   force =     0.00002468   -0.00001425    0.00005128
     atom    6 type  1   force =    -0.00002040    0.00001178   -0.00006138

     Total force =     0.000244     Total SCF correction =     0.000004


     Computing stress (Cartesian axis) and pressure

          total   stress  (Ry/bohr**3)                   (kbar)     P=   -0.59
  -0.00000573  -0.00000397  -0.00001937         -0.84     -0.58     -2.85
  -0.00000397  -0.00001032   0.00001118         -0.58     -1.52      1.64
  -0.00001937   0.00001118   0.00000408         -2.85      1.64      0.60

 
     init_run     :     55.36s CPU     56.45s WALL (       2 calls)
     electrons    :  54735.63s CPU  55581.08s WALL (      45 calls)
     update_pot   :     63.89s CPU     64.18s WALL (      43 calls)
     forces       :    219.12s CPU    224.23s WALL (      45 calls)
     stress       :    551.45s CPU    565.40s WALL (      45 calls)

     Called by init_run:
     wfcinit      :     52.55s CPU     53.50s WALL (       2 calls)
     potinit      :      0.85s CPU      0.88s WALL (       2 calls)
     hinit0       :      1.50s CPU      1.52s WALL (       2 calls)

     Called by electrons:
     c_bands      :  46736.34s CPU  47311.76s WALL (     868 calls)
     sum_band     :   7744.80s CPU   7916.73s WALL (     868 calls)
     v_of_rho     :     59.86s CPU     60.36s WALL (     907 calls)
     newd         :    197.16s CPU    281.21s WALL (     907 calls)
     mix_rho      :      6.01s CPU      6.06s WALL (     868 calls)

     Called by c_bands:
     init_us_2    :    509.20s CPU    511.43s WALL (  727544 calls)
     cegterg      :  43709.06s CPU  44240.75s WALL (  345464 calls)

     Called by sum_band:
     sum_band:bec :     17.14s CPU     17.18s WALL (  345464 calls)
     addusdens    :    226.81s CPU    301.52s WALL (     868 calls)

     Called by *egterg:
     h_psi        :  31703.51s CPU  32184.37s WALL ( 1444484 calls)
     s_psi        :   1160.77s CPU   1164.96s WALL ( 1444484 calls)
     g_psi        :    171.37s CPU    175.88s WALL ( 1098224 calls)
     cdiaghg      :   6049.51s CPU   6064.17s WALL ( 1424186 calls)

     Called by h_psi:
     h_psi:pot    :  31600.59s CPU  32078.88s WALL ( 1444484 calls)
     h_psi:calbec :   1279.00s CPU   1287.01s WALL ( 1444484 calls)
     vloc_psi     :  29117.49s CPU  29580.88s WALL ( 1444484 calls)
     add_vuspsi   :   1197.07s CPU   1201.81s WALL ( 1444484 calls)

     General routines
     calbec       :   1851.34s CPU   1862.64s WALL ( 1879498 calls)
     fft          :     32.89s CPU     33.31s WALL (   12920 calls)
     ffts         :      1.09s CPU      1.10s WALL (    1775 calls)
     fftw         :  31675.20s CPU  32141.89s WALL (96980168 calls)
     interpolate  :      3.04s CPU      3.07s WALL (     907 calls)
 
     Parallel routines
     fft_scatt_xy :   6413.50s CPU   6422.13s WALL (96994863 calls)
     fft_scatt_yz :   4996.98s CPU   5171.56s WALL (96994863 calls)
 
     PWSCF        :    15h27m CPU       27h15m WALL

      41h
 
   This run was terminated on:   8:33:23  28Jan2020            

=------------------------------------------------------------------------------=
   JOB DONE.
=------------------------------------------------------------------------------=
