
     Program PWSCF v.6.3MaX starts on 24Feb2020 at 13:12:42 

     This program is part of the open-source Quantum ESPRESSO suite
     for quantum simulation of materials; please cite
         "P. Giannozzi et al., J. Phys.:Condens. Matter 21 395502 (2009);
         "P. Giannozzi et al., J. Phys.:Condens. Matter 29 465901 (2017);
          URL http://www.quantum-espresso.org", 
     in publications or presentations arising from this work. More details at
     http://www.quantum-espresso.org/quote

     Parallel version (MPI), running on     4 processors

     MPI processes distributed on     1 nodes
     R & G space division:  proc/nbgrp/npool/nimage =       4
     Waiting for input...
     Reading input from standard input

     Current dimensions of program PWSCF are:
     Max number of different atomic species (ntypx) = 10
     Max number of k-points (npk) =  40000
     Max angular momentum in pseudopotentials (lmaxx) =  3
     Message from routine iosys:
     minimal I/O required, wf_collect reset to FALSE

     Subspace diagonalization in iterative solution of the eigenvalue problem:
     a serial algorithm will be used

 
     Parallelization info
     --------------------
     sticks:   dense  smooth     PW     G-vecs:    dense   smooth      PW
     Min         933     372    112                41575    10499    1732
     Max         934     373    113                41578    10500    1735
     Sum        3735    1489    451               166309    41999    6933
 


     bravais-lattice index     =            0
     lattice parameter (alat)  =       1.8897  a.u.
     unit-cell volume          =     880.0102 (a.u.)^3
     number of atoms/cell      =            6
     number of atomic types    =            2
     number of electrons       =        75.00
     number of Kohn-Sham states=           46
     kinetic-energy cutoff     =      50.0000  Ry
     charge density cutoff     =     500.0000  Ry
     convergence threshold     =      1.0E-10
     mixing beta               =       0.6000
     number of iterations used =            8  plain     mixing
     Exchange-correlation      = SLA PW PBE PBE ( 1  4  3  4 0 0)
     nstep                     =           50


     celldm(1)=   1.889726  celldm(2)=   0.000000  celldm(3)=   0.000000
     celldm(4)=   0.000000  celldm(5)=   0.000000  celldm(6)=   0.000000

     crystal axes: (cart. coord. in units of alat)
               a(1) = (   5.274095  -1.758031  -1.758031 )  
               a(2) = (  -5.274095  -1.758031  -1.758031 )  
               a(3) = (   0.000000   3.516063  -3.516063 )  

     reciprocal axes: (cart. coord. in units 2 pi/alat)
               b(1) = (  0.094803 -0.142205 -0.142205 )  
               b(2) = ( -0.094803 -0.142205 -0.142205 )  
               b(3) = (  0.000000  0.142205 -0.142205 )  


     PseudoPot. # 1 for Nb read from file:
     ./Nb.pbe-nsp-van.UPF
     MD5 check sum: 0a22fc7fb0ba19a08ca5db297a5d2854
     Pseudo is Ultrasoft + core correction, Zval = 13.0
     Generated by new atomic code, or converted to UPF format
     Using radial grid of  887 points,  6 beta functions with: 
                l(1) =   0
                l(2) =   0
                l(3) =   1
                l(4) =   1
                l(5) =   2
                l(6) =   2
     Q(r) pseudized with  6 coefficients,  rinner =    1.000   1.000   1.000
                                                       1.000   1.000

     PseudoPot. # 2 for Ti read from file:
     ./Ti.pbe-sp-van_ak.UPF
     MD5 check sum: f98fea3e8887528921fefa5636a534ca
     Pseudo is Ultrasoft, Zval = 12.0
     Generated by new atomic code, or converted to UPF format
     Using radial grid of  851 points,  6 beta functions with: 
                l(1) =   0
                l(2) =   0
                l(3) =   1
                l(4) =   1
                l(5) =   2
                l(6) =   2
     Q(r) pseudized with  8 coefficients,  rinner =    1.000   1.000   1.000
                                                       1.000   1.000

     atomic species   valence    mass     pseudopotential
        Nb            13.00    92.90638     Nb( 1.00)
        Ti            12.00    47.86700     Ti( 1.00)

      8 Sym. Ops., with inversion, found



   Cartesian axes

     site n.     atom                  positions (alat units)
         1           Ti  tau(   1) = (   3.5160633   0.0000000  -3.5160633  )
         2           Ti  tau(   2) = (   0.0000000   0.0000000  -7.0321265  )
         3           Ti  tau(   3) = (  -3.5160633   0.0000000  -3.5160633  )
         4           Nb  tau(   4) = (  -1.7580316   1.7580316  -5.2740949  )
         5           Nb  tau(   5) = (   1.7580316   1.7580316  -5.2740949  )
         6           Nb  tau(   6) = (   0.0000000   0.0000000  -3.5160633  )

     number of k points=   252  Marzari-Vanderbilt smearing, width (Ry)=  0.0200

     Number of k-points >= 100: set verbosity='high' to print them.

     Dense  grid:   166309 G-vectors     FFT dimensions: (  80,  80,  72)

     Smooth grid:    41999 G-vectors     FFT dimensions: (  50,  50,  45)

     Estimated max dynamical RAM per process >     392.22 MB

     Estimated total dynamical RAM >       1.53 GB

     Initial potential from superposition of free atoms

     starting charge   71.99167, renormalised to   75.00000
     Starting wfcs are   69 randomized atomic wfcs

     total cpu time spent up to now is       20.4 secs

     Self-consistent Calculation

     iteration #  1     ecut=    50.00 Ry     beta= 0.60
     Davidson diagonalization with overlap
     ethr =  1.00E-02,  avg # of iterations =  3.0

     total cpu time spent up to now is       62.4 secs

     total energy              =    -690.81260198 Ry
     Harris-Foulkes estimate   =    -706.28629261 Ry
     estimated scf accuracy    <      19.63247602 Ry

     iteration #  2     ecut=    50.00 Ry     beta= 0.60
     Davidson diagonalization with overlap
     ethr =  1.00E-02,  avg # of iterations =  6.0

     total cpu time spent up to now is      127.0 secs

     total energy              =    -700.74584383 Ry
     Harris-Foulkes estimate   =    -724.96976489 Ry
     estimated scf accuracy    <      69.12108188 Ry

     iteration #  3     ecut=    50.00 Ry     beta= 0.60
     Davidson diagonalization with overlap
     ethr =  1.00E-02,  avg # of iterations =  3.5

     total cpu time spent up to now is      172.7 secs

     total energy              =    -704.52017456 Ry
     Harris-Foulkes estimate   =    -706.60034299 Ry
     estimated scf accuracy    <      18.13069537 Ry

     iteration #  4     ecut=    50.00 Ry     beta= 0.60
     Davidson diagonalization with overlap
     ethr =  1.00E-02,  avg # of iterations =  1.4

     total cpu time spent up to now is      203.7 secs

     total energy              =    -704.80491068 Ry
     Harris-Foulkes estimate   =    -704.99369952 Ry
     estimated scf accuracy    <       9.39054041 Ry

     iteration #  5     ecut=    50.00 Ry     beta= 0.60
     Davidson diagonalization with overlap
     ethr =  1.00E-02,  avg # of iterations =  1.0

     total cpu time spent up to now is      233.5 secs

     total energy              =    -703.87552808 Ry
     Harris-Foulkes estimate   =    -704.84975130 Ry
     estimated scf accuracy    <       8.78559513 Ry

     iteration #  6     ecut=    50.00 Ry     beta= 0.60
     Davidson diagonalization with overlap
     ethr =  1.00E-02,  avg # of iterations =  1.0

     total cpu time spent up to now is      263.0 secs

     total energy              =    -702.65785810 Ry
     Harris-Foulkes estimate   =    -703.97971267 Ry
     estimated scf accuracy    <       5.55930736 Ry

     iteration #  7     ecut=    50.00 Ry     beta= 0.60
     Davidson diagonalization with overlap
     ethr =  7.41E-03,  avg # of iterations =  4.2

     total cpu time spent up to now is      308.2 secs

     total energy              =    -703.79631058 Ry
     Harris-Foulkes estimate   =    -703.83517688 Ry
     estimated scf accuracy    <       4.47495670 Ry

     iteration #  8     ecut=    50.00 Ry     beta= 0.60
     Davidson diagonalization with overlap
     ethr =  5.97E-03,  avg # of iterations =  1.0

     total cpu time spent up to now is      338.4 secs

     total energy              =    -703.30541568 Ry
     Harris-Foulkes estimate   =    -703.88311953 Ry
     estimated scf accuracy    <       4.58470003 Ry

     iteration #  9     ecut=    50.00 Ry     beta= 0.60
     Davidson diagonalization with overlap
     ethr =  5.97E-03,  avg # of iterations =  1.0

     total cpu time spent up to now is      367.8 secs

     total energy              =    -703.55482300 Ry
     Harris-Foulkes estimate   =    -703.56869588 Ry
     estimated scf accuracy    <       0.16901351 Ry

     iteration # 10     ecut=    50.00 Ry     beta= 0.60
     Davidson diagonalization with overlap
     ethr =  2.25E-04,  avg # of iterations =  6.2

     total cpu time spent up to now is      423.2 secs

     total energy              =    -703.59836717 Ry
     Harris-Foulkes estimate   =    -703.63325737 Ry
     estimated scf accuracy    <       0.27930756 Ry

     iteration # 11     ecut=    50.00 Ry     beta= 0.60
     Davidson diagonalization with overlap
     ethr =  2.25E-04,  avg # of iterations =  1.0

     total cpu time spent up to now is      452.9 secs

     total energy              =    -703.60418937 Ry
     Harris-Foulkes estimate   =    -703.60771907 Ry
     estimated scf accuracy    <       0.04739168 Ry

     iteration # 12     ecut=    50.00 Ry     beta= 0.60
     Davidson diagonalization with overlap
     ethr =  6.32E-05,  avg # of iterations =  5.6

     total cpu time spent up to now is      495.8 secs

     total energy              =    -703.60971616 Ry
     Harris-Foulkes estimate   =    -703.61037685 Ry
     estimated scf accuracy    <       0.00934895 Ry

     iteration # 13     ecut=    50.00 Ry     beta= 0.60
     Davidson diagonalization with overlap
     c_bands:  1 eigenvalues not converged
     c_bands:  1 eigenvalues not converged
     c_bands:  2 eigenvalues not converged
     ethr =  1.25E-05,  avg # of iterations =  6.7

     total cpu time spent up to now is      548.1 secs

     total energy              =    -703.61065258 Ry
     Harris-Foulkes estimate   =    -703.61446354 Ry
     estimated scf accuracy    <       0.07769302 Ry

     iteration # 14     ecut=    50.00 Ry     beta= 0.60
     Davidson diagonalization with overlap
     ethr =  1.25E-05,  avg # of iterations =  1.1

     total cpu time spent up to now is      579.9 secs

     total energy              =    -703.60724120 Ry
     Harris-Foulkes estimate   =    -703.61116352 Ry
     estimated scf accuracy    <       0.03953517 Ry

     iteration # 15     ecut=    50.00 Ry     beta= 0.60
     Davidson diagonalization with overlap
     ethr =  1.25E-05,  avg # of iterations =  5.0

     total cpu time spent up to now is      625.1 secs

     total energy              =    -703.60950196 Ry
     Harris-Foulkes estimate   =    -703.60952349 Ry
     estimated scf accuracy    <       0.00023082 Ry

     iteration # 16     ecut=    50.00 Ry     beta= 0.60
     Davidson diagonalization with overlap
     c_bands:  1 eigenvalues not converged
     c_bands:  1 eigenvalues not converged
     c_bands:  2 eigenvalues not converged
     ethr =  3.08E-07,  avg # of iterations =  5.3

     total cpu time spent up to now is      671.9 secs

     total energy              =    -703.60952539 Ry
     Harris-Foulkes estimate   =    -703.60953671 Ry
     estimated scf accuracy    <       0.00015936 Ry

     iteration # 17     ecut=    50.00 Ry     beta= 0.60
     Davidson diagonalization with overlap
     ethr =  2.12E-07,  avg # of iterations =  1.2

     total cpu time spent up to now is      703.0 secs

     total energy              =    -703.60951959 Ry
     Harris-Foulkes estimate   =    -703.60952942 Ry
     estimated scf accuracy    <       0.00011864 Ry

     iteration # 18     ecut=    50.00 Ry     beta= 0.60
     Davidson diagonalization with overlap
     ethr =  1.58E-07,  avg # of iterations =  1.2

     total cpu time spent up to now is      732.8 secs

     total energy              =    -703.60952177 Ry
     Harris-Foulkes estimate   =    -703.60952406 Ry
     estimated scf accuracy    <       0.00005145 Ry

     iteration # 19     ecut=    50.00 Ry     beta= 0.60
     Davidson diagonalization with overlap
     ethr =  6.86E-08,  avg # of iterations =  3.2

     total cpu time spent up to now is      766.6 secs

     total energy              =    -703.60952286 Ry
     Harris-Foulkes estimate   =    -703.60952385 Ry
     estimated scf accuracy    <       0.00001934 Ry

     iteration # 20     ecut=    50.00 Ry     beta= 0.60
     Davidson diagonalization with overlap
     ethr =  2.58E-08,  avg # of iterations =  3.9

     total cpu time spent up to now is      802.9 secs

     total energy              =    -703.60952404 Ry
     Harris-Foulkes estimate   =    -703.60952426 Ry
     estimated scf accuracy    <       0.00000388 Ry

     iteration # 21     ecut=    50.00 Ry     beta= 0.60
     Davidson diagonalization with overlap
     ethr =  5.18E-09,  avg # of iterations =  3.7

     total cpu time spent up to now is      838.4 secs

     total energy              =    -703.60952422 Ry
     Harris-Foulkes estimate   =    -703.60952435 Ry
     estimated scf accuracy    <       0.00000117 Ry

     iteration # 22     ecut=    50.00 Ry     beta= 0.60
     Davidson diagonalization with overlap
     ethr =  1.56E-09,  avg # of iterations =  3.6

     total cpu time spent up to now is      874.6 secs

     total energy              =    -703.60952433 Ry
     Harris-Foulkes estimate   =    -703.60952434 Ry
     estimated scf accuracy    <       0.00000018 Ry

     iteration # 23     ecut=    50.00 Ry     beta= 0.60
     Davidson diagonalization with overlap
     ethr =  2.37E-10,  avg # of iterations =  3.8

     total cpu time spent up to now is      912.1 secs

     total energy              =    -703.60952433 Ry
     Harris-Foulkes estimate   =    -703.60952435 Ry
     estimated scf accuracy    <       0.00000006 Ry

     iteration # 24     ecut=    50.00 Ry     beta= 0.60
     Davidson diagonalization with overlap
     ethr =  7.62E-11,  avg # of iterations =  3.6

     total cpu time spent up to now is      949.8 secs

     total energy              =    -703.60952434 Ry
     Harris-Foulkes estimate   =    -703.60952434 Ry
     estimated scf accuracy    <          4.6E-09 Ry

     iteration # 25     ecut=    50.00 Ry     beta= 0.60
     Davidson diagonalization with overlap
     ethr =  6.16E-12,  avg # of iterations =  4.1

     total cpu time spent up to now is      989.8 secs

     total energy              =    -703.60952434 Ry
     Harris-Foulkes estimate   =    -703.60952434 Ry
     estimated scf accuracy    <          2.1E-09 Ry

     iteration # 26     ecut=    50.00 Ry     beta= 0.60
     Davidson diagonalization with overlap
     ethr =  2.74E-12,  avg # of iterations =  1.5

     total cpu time spent up to now is     1020.1 secs

     total energy              =    -703.60952434 Ry
     Harris-Foulkes estimate   =    -703.60952434 Ry
     estimated scf accuracy    <          6.3E-10 Ry

     iteration # 27     ecut=    50.00 Ry     beta= 0.60
     Davidson diagonalization with overlap
     ethr =  8.39E-13,  avg # of iterations =  4.0

     total cpu time spent up to now is     1059.7 secs

     End of self-consistent calculation

     Number of k-points >= 100: set verbosity='high' to print the bands.

     the Fermi energy is    12.1774 ev

!    total energy              =    -703.60952434 Ry
     Harris-Foulkes estimate   =    -703.60952434 Ry
     estimated scf accuracy    <          3.7E-11 Ry

     The total energy is the sum of the following terms:

     one-electron contribution =    -226.16418185 Ry
     hartree contribution      =     134.27947655 Ry
     xc contribution           =     -97.86524250 Ry
     ewald contribution        =    -513.85745284 Ry
     smearing contrib. (-TS)   =      -0.00212371 Ry

     convergence has been achieved in  27 iterations

     Forces acting on atoms (cartesian axes, Ry/au):

     atom    1 type  2   force =     0.00122952    0.00000000    0.00000000
     atom    2 type  2   force =     0.00000000    0.00000000    0.00000000
     atom    3 type  2   force =    -0.00122952    0.00000000    0.00000000
     atom    4 type  1   force =    -0.00652270    0.00000000    0.00000000
     atom    5 type  1   force =     0.00652270    0.00000000    0.00000000
     atom    6 type  1   force =     0.00000000    0.00000000    0.00000000

     Total force =     0.009387     Total SCF correction =     0.000011


     Computing stress (Cartesian axis) and pressure

          total   stress  (Ry/bohr**3)                   (kbar)     P= -198.47
  -0.00134234   0.00000000   0.00000000       -197.46      0.00      0.00
   0.00000000  -0.00135262   0.00000708          0.00   -198.98      1.04
   0.00000000   0.00000708  -0.00135262          0.00      1.04   -198.98


     BFGS Geometry Optimization

     number of scf cycles    =   1
     number of bfgs steps    =   0

     enthalpy new            =    -703.6095243439 Ry

     new trust radius        =       0.2006291689 bohr
     new conv_thr            =            1.0E-10 Ry

     new unit-cell volume =    793.93236 a.u.^3 (   117.64864 Ang^3 )
     density =      5.96079 g/cm^3

CELL_PARAMETERS (alat=  1.88972599)
   5.097103816  -1.698894347  -1.698894347
  -5.097103816  -1.698894347  -1.698894347
   0.000000000   3.396543292  -3.396543292

ATOMIC_POSITIONS (angstrom)
Ti       3.398698009  -0.000622701  -3.397165993
Ti       0.000000000  -0.001245402  -6.794331986
Ti      -3.398698009  -0.000622701  -3.397165993
Nb      -1.702370435   1.697648945  -5.095437639
Nb       1.702370435   1.697648945  -5.095437639
Nb       0.000000000  -0.000622701  -3.397165993


     NEW-OLD atomic charge density approx. for the potential
     extrapolated charge   67.19469, renormalised to   75.00000

     total cpu time spent up to now is     1077.2 secs

     Self-consistent Calculation

     iteration #  1     ecut=    50.00 Ry     beta= 0.60
     Davidson diagonalization with overlap
     c_bands:  1 eigenvalues not converged
     c_bands:  1 eigenvalues not converged
     c_bands:  1 eigenvalues not converged
     c_bands:  1 eigenvalues not converged
     c_bands:  1 eigenvalues not converged
     c_bands:  1 eigenvalues not converged
     c_bands:  1 eigenvalues not converged
     c_bands:  1 eigenvalues not converged
     c_bands:  1 eigenvalues not converged
     c_bands:  1 eigenvalues not converged
     c_bands:  1 eigenvalues not converged
     c_bands:  1 eigenvalues not converged
     c_bands:  1 eigenvalues not converged
     c_bands:  1 eigenvalues not converged
     c_bands:  1 eigenvalues not converged
     c_bands:  1 eigenvalues not converged
     c_bands:  1 eigenvalues not converged
     c_bands:  1 eigenvalues not converged
     c_bands:  1 eigenvalues not converged
     c_bands:  1 eigenvalues not converged
     c_bands:  1 eigenvalues not converged
     c_bands:  1 eigenvalues not converged
     c_bands:  1 eigenvalues not converged
     c_bands:  1 eigenvalues not converged
     c_bands:  2 eigenvalues not converged
     c_bands:  1 eigenvalues not converged
     ethr =  1.00E-06,  avg # of iterations = 16.7

     total cpu time spent up to now is     1211.4 secs

     total energy              =    -660.63152890 Ry
     Harris-Foulkes estimate   =    -720.64223700 Ry
     estimated scf accuracy    <      48.71644754 Ry

     iteration #  2     ecut=    50.00 Ry     beta= 0.60
     Davidson diagonalization with overlap
     ethr =  1.00E-02,  avg # of iterations =  6.1

     total cpu time spent up to now is     1279.8 secs

     total energy              =    -679.89199966 Ry
     Harris-Foulkes estimate   =    -764.25802145 Ry
     estimated scf accuracy    <     279.79271776 Ry

     iteration #  3     ecut=    50.00 Ry     beta= 0.60
     Davidson diagonalization with overlap
     ethr =  1.00E-02,  avg # of iterations =  4.1

     total cpu time spent up to now is     1332.6 secs

     total energy              =    -706.72078255 Ry
     Harris-Foulkes estimate   =    -710.83477144 Ry
     estimated scf accuracy    <      20.69849206 Ry

     iteration #  4     ecut=    50.00 Ry     beta= 0.60
     Davidson diagonalization with overlap
     ethr =  1.00E-02,  avg # of iterations =  1.0

     total cpu time spent up to now is     1362.7 secs

     total energy              =    -706.04560122 Ry
     Harris-Foulkes estimate   =    -707.06918219 Ry
     estimated scf accuracy    <      14.51241340 Ry

     iteration #  5     ecut=    50.00 Ry     beta= 0.60
     Davidson diagonalization with overlap
     ethr =  1.00E-02,  avg # of iterations =  1.0

     total cpu time spent up to now is     1394.1 secs

     total energy              =    -703.50157306 Ry
     Harris-Foulkes estimate   =    -706.22754591 Ry
     estimated scf accuracy    <      11.50423661 Ry

     iteration #  6     ecut=    50.00 Ry     beta= 0.60
     Davidson diagonalization with overlap
     ethr =  1.00E-02,  avg # of iterations =  2.3

     total cpu time spent up to now is     1426.2 secs

     total energy              =    -704.19452317 Ry
     Harris-Foulkes estimate   =    -703.88182914 Ry
     estimated scf accuracy    <       4.14941934 Ry

     iteration #  7     ecut=    50.00 Ry     beta= 0.60
     Davidson diagonalization with overlap
     ethr =  5.53E-03,  avg # of iterations =  1.3

     total cpu time spent up to now is     1457.4 secs

     total energy              =    -703.59642568 Ry
     Harris-Foulkes estimate   =    -704.28841454 Ry
     estimated scf accuracy    <       5.16642653 Ry

     iteration #  8     ecut=    50.00 Ry     beta= 0.60
     Davidson diagonalization with overlap
     ethr =  5.53E-03,  avg # of iterations =  1.6

     total cpu time spent up to now is     1488.2 secs

     total energy              =    -703.60082436 Ry
     Harris-Foulkes estimate   =    -703.71080286 Ry
     estimated scf accuracy    <       2.73730950 Ry

     iteration #  9     ecut=    50.00 Ry     beta= 0.60
     Davidson diagonalization with overlap
     ethr =  3.65E-03,  avg # of iterations =  3.3

     total cpu time spent up to now is     1522.3 secs

     total energy              =    -703.83705968 Ry
     Harris-Foulkes estimate   =    -703.73276363 Ry
     estimated scf accuracy    <       1.38116986 Ry

     iteration # 10     ecut=    50.00 Ry     beta= 0.60
     Davidson diagonalization with overlap
     ethr =  1.84E-03,  avg # of iterations =  3.1

     total cpu time spent up to now is     1555.9 secs

     total energy              =    -703.32074753 Ry
     Harris-Foulkes estimate   =    -703.87443460 Ry
     estimated scf accuracy    <       1.58791780 Ry

     iteration # 11     ecut=    50.00 Ry     beta= 0.60
     Davidson diagonalization with overlap
     ethr =  1.84E-03,  avg # of iterations =  5.0

     total cpu time spent up to now is     1605.0 secs

     total energy              =    -703.73172431 Ry
     Harris-Foulkes estimate   =    -703.85941685 Ry
     estimated scf accuracy    <       2.60037576 Ry

     iteration # 12     ecut=    50.00 Ry     beta= 0.60
     Davidson diagonalization with overlap
     ethr =  1.84E-03,  avg # of iterations =  1.0

     total cpu time spent up to now is     1635.9 secs

     total energy              =    -703.52643460 Ry
     Harris-Foulkes estimate   =    -703.75454445 Ry
     estimated scf accuracy    <       1.23290112 Ry

     iteration # 13     ecut=    50.00 Ry     beta= 0.60
     Davidson diagonalization with overlap
     ethr =  1.64E-03,  avg # of iterations =  3.6

     total cpu time spent up to now is     1673.8 secs

     total energy              =    -703.66226505 Ry
     Harris-Foulkes estimate   =    -703.73681160 Ry
     estimated scf accuracy    <       0.38555289 Ry

     iteration # 14     ecut=    50.00 Ry     beta= 0.60
     Davidson diagonalization with overlap
     ethr =  5.14E-04,  avg # of iterations =  2.4

     total cpu time spent up to now is     1706.3 secs

     total energy              =    -703.69674728 Ry
     Harris-Foulkes estimate   =    -703.69658092 Ry
     estimated scf accuracy    <       0.00612378 Ry

     iteration # 15     ecut=    50.00 Ry     beta= 0.60
     Davidson diagonalization with overlap
     ethr =  8.17E-06,  avg # of iterations =  6.6

     total cpu time spent up to now is     1766.8 secs

     total energy              =    -703.70582638 Ry
     Harris-Foulkes estimate   =    -703.70628539 Ry
     estimated scf accuracy    <       0.00369349 Ry

     iteration # 16     ecut=    50.00 Ry     beta= 0.60
     Davidson diagonalization with overlap
     ethr =  4.92E-06,  avg # of iterations =  1.2

     total cpu time spent up to now is     1796.9 secs

     total energy              =    -703.70777360 Ry
     Harris-Foulkes estimate   =    -703.70608551 Ry
     estimated scf accuracy    <       0.00309106 Ry

     iteration # 17     ecut=    50.00 Ry     beta= 0.60
     Davidson diagonalization with overlap
     ethr =  4.12E-06,  avg # of iterations =  5.9

     total cpu time spent up to now is     1858.3 secs

     total energy              =    -703.71733791 Ry
     Harris-Foulkes estimate   =    -703.71651009 Ry
     estimated scf accuracy    <       0.14446223 Ry

     iteration # 18     ecut=    50.00 Ry     beta= 0.60
     Davidson diagonalization with overlap
     ethr =  4.12E-06,  avg # of iterations =  2.9

     total cpu time spent up to now is     1894.1 secs

     total energy              =    -703.70137684 Ry
     Harris-Foulkes estimate   =    -703.71774194 Ry
     estimated scf accuracy    <       0.14650711 Ry

     iteration # 19     ecut=    50.00 Ry     beta= 0.60
     Davidson diagonalization with overlap
     ethr =  4.12E-06,  avg # of iterations =  5.4

     total cpu time spent up to now is     1951.7 secs

     total energy              =    -703.70600493 Ry
     Harris-Foulkes estimate   =    -703.70669182 Ry
     estimated scf accuracy    <       0.01111280 Ry

     iteration # 20     ecut=    50.00 Ry     beta= 0.60
     Davidson diagonalization with overlap
     ethr =  4.12E-06,  avg # of iterations =  1.0

     total cpu time spent up to now is     1981.5 secs

     total energy              =    -703.70570337 Ry
     Harris-Foulkes estimate   =    -703.70608404 Ry
     estimated scf accuracy    <       0.00628673 Ry

     iteration # 21     ecut=    50.00 Ry     beta= 0.60
     Davidson diagonalization with overlap
     ethr =  4.12E-06,  avg # of iterations =  2.0

     total cpu time spent up to now is     2013.9 secs

     total energy              =    -703.70586520 Ry
     Harris-Foulkes estimate   =    -703.70583825 Ry
     estimated scf accuracy    <       0.00211902 Ry

     iteration # 22     ecut=    50.00 Ry     beta= 0.60
     Davidson diagonalization with overlap
     ethr =  2.83E-06,  avg # of iterations =  1.0

     total cpu time spent up to now is     2043.7 secs

     total energy              =    -703.70577608 Ry
     Harris-Foulkes estimate   =    -703.70588962 Ry
     estimated scf accuracy    <       0.00225215 Ry

     iteration # 23     ecut=    50.00 Ry     beta= 0.60
     Davidson diagonalization with overlap
     ethr =  2.83E-06,  avg # of iterations =  1.0

     total cpu time spent up to now is     2073.6 secs

     total energy              =    -703.70563596 Ry
     Harris-Foulkes estimate   =    -703.70579764 Ry
     estimated scf accuracy    <       0.00123746 Ry

     iteration # 24     ecut=    50.00 Ry     beta= 0.60
     Davidson diagonalization with overlap
     ethr =  1.65E-06,  avg # of iterations =  3.6

     total cpu time spent up to now is     2109.0 secs

     total energy              =    -703.70573372 Ry
     Harris-Foulkes estimate   =    -703.70573836 Ry
     estimated scf accuracy    <       0.00002451 Ry

     iteration # 25     ecut=    50.00 Ry     beta= 0.60
     Davidson diagonalization with overlap
     ethr =  3.27E-08,  avg # of iterations =  5.6

     total cpu time spent up to now is     2158.7 secs

     total energy              =    -703.70575483 Ry
     Harris-Foulkes estimate   =    -703.70575974 Ry
     estimated scf accuracy    <       0.00004505 Ry

     iteration # 26     ecut=    50.00 Ry     beta= 0.60
     Davidson diagonalization with overlap
     ethr =  3.27E-08,  avg # of iterations =  1.0

     total cpu time spent up to now is     2188.7 secs

     total energy              =    -703.70575483 Ry
     Harris-Foulkes estimate   =    -703.70575636 Ry
     estimated scf accuracy    <       0.00000779 Ry

     iteration # 27     ecut=    50.00 Ry     beta= 0.60
     Davidson diagonalization with overlap
     ethr =  1.04E-08,  avg # of iterations =  4.0

     total cpu time spent up to now is     2230.5 secs

     total energy              =    -703.70575668 Ry
     Harris-Foulkes estimate   =    -703.70575716 Ry
     estimated scf accuracy    <       0.00000917 Ry

     iteration # 28     ecut=    50.00 Ry     beta= 0.60
     Davidson diagonalization with overlap
     ethr =  1.04E-08,  avg # of iterations =  1.0

     total cpu time spent up to now is     2260.4 secs

     total energy              =    -703.70575621 Ry
     Harris-Foulkes estimate   =    -703.70575676 Ry
     estimated scf accuracy    <       0.00000546 Ry

     iteration # 29     ecut=    50.00 Ry     beta= 0.60
     Davidson diagonalization with overlap
     ethr =  7.27E-09,  avg # of iterations =  1.9

     total cpu time spent up to now is     2291.9 secs

     total energy              =    -703.70575637 Ry
     Harris-Foulkes estimate   =    -703.70575644 Ry
     estimated scf accuracy    <       0.00000059 Ry

     iteration # 30     ecut=    50.00 Ry     beta= 0.60
     Davidson diagonalization with overlap
     ethr =  7.85E-10,  avg # of iterations =  4.1

     total cpu time spent up to now is     2334.1 secs

     total energy              =    -703.70575647 Ry
     Harris-Foulkes estimate   =    -703.70575647 Ry
     estimated scf accuracy    <       0.00000003 Ry

     iteration # 31     ecut=    50.00 Ry     beta= 0.60
     Davidson diagonalization with overlap
     ethr =  3.93E-11,  avg # of iterations =  3.9

     total cpu time spent up to now is     2372.6 secs

     total energy              =    -703.70575647 Ry
     Harris-Foulkes estimate   =    -703.70575647 Ry
     estimated scf accuracy    <       0.00000004 Ry

     iteration # 32     ecut=    50.00 Ry     beta= 0.60
     Davidson diagonalization with overlap
     ethr =  3.93E-11,  avg # of iterations =  1.0

     total cpu time spent up to now is     2403.1 secs

     total energy              =    -703.70575647 Ry
     Harris-Foulkes estimate   =    -703.70575647 Ry
     estimated scf accuracy    <       0.00000003 Ry

     iteration # 33     ecut=    50.00 Ry     beta= 0.60
     Davidson diagonalization with overlap
     ethr =  3.93E-11,  avg # of iterations =  1.0

     total cpu time spent up to now is     2433.0 secs

     total energy              =    -703.70575647 Ry
     Harris-Foulkes estimate   =    -703.70575647 Ry
     estimated scf accuracy    <          6.9E-09 Ry

     iteration # 34     ecut=    50.00 Ry     beta= 0.60
     Davidson diagonalization with overlap
     ethr =  9.18E-12,  avg # of iterations =  3.8

     total cpu time spent up to now is     2470.4 secs

     End of self-consistent calculation

     Number of k-points >= 100: set verbosity='high' to print the bands.

     the Fermi energy is    13.8097 ev

!    total energy              =    -703.70575647 Ry
     Harris-Foulkes estimate   =    -703.70575647 Ry
     estimated scf accuracy    <          4.1E-11 Ry

     The total energy is the sum of the following terms:

     one-electron contribution =    -199.68549390 Ry
     hartree contribution      =     126.13072145 Ry
     xc contribution           =     -98.35124519 Ry
     ewald contribution        =    -531.79701882 Ry
     smearing contrib. (-TS)   =      -0.00272001 Ry

     convergence has been achieved in  34 iterations

     Forces acting on atoms (cartesian axes, Ry/au):

     atom    1 type  2   force =     0.00279554    0.00000000    0.00000000
     atom    2 type  2   force =     0.00000000    0.00000000    0.00000000
     atom    3 type  2   force =    -0.00279554    0.00000000    0.00000000
     atom    4 type  1   force =    -0.00852724    0.00000000    0.00000000
     atom    5 type  1   force =     0.00852724    0.00000000    0.00000000
     atom    6 type  1   force =     0.00000000    0.00000000    0.00000000

     Total force =     0.012691     Total SCF correction =     0.000006


     Computing stress (Cartesian axis) and pressure

          total   stress  (Ry/bohr**3)                   (kbar)     P= -122.91
  -0.00083360  -0.00000000  -0.00000000       -122.63     -0.00     -0.00
  -0.00000000  -0.00083645  -0.00000107         -0.00   -123.05     -0.16
  -0.00000000  -0.00000107  -0.00083645         -0.00     -0.16   -123.05


     number of scf cycles    =   2
     number of bfgs steps    =   1

     enthalpy old            =    -703.6095243439 Ry
     enthalpy new            =    -703.7057564702 Ry

     CASE: enthalpy_new < enthalpy_old

     new trust radius        =       0.2707750974 bohr
     new conv_thr            =            1.0E-10 Ry

     new unit-cell volume =    685.03592 a.u.^3 (   101.51185 Ang^3 )
     density =      6.90835 g/cm^3

CELL_PARAMETERS (alat=  1.88972599)
   4.853157408  -1.617190028  -1.617190028
  -4.853157408  -1.617190028  -1.617190028
   0.000000000   3.233489179  -3.233489179

ATOMIC_POSITIONS (angstrom)
Ti       3.239161012  -0.000445438  -3.233934617
Ti       0.000000000  -0.000890876  -6.467869235
Ti      -3.239161012  -0.000445438  -3.233934617
Nb      -1.630427657   1.616299152  -4.850679207
Nb       1.630427657   1.616299152  -4.850679207
Nb       0.000000000  -0.000445438  -3.233934617


     NEW-OLD atomic charge density approx. for the potential
     extrapolated charge   63.55588, renormalised to   75.00000

     total cpu time spent up to now is     2490.5 secs

     Self-consistent Calculation

     iteration #  1     ecut=    50.00 Ry     beta= 0.60
     Davidson diagonalization with overlap
     c_bands:  1 eigenvalues not converged
     c_bands:  1 eigenvalues not converged
     c_bands:  1 eigenvalues not converged
     c_bands:  1 eigenvalues not converged
     c_bands:  1 eigenvalues not converged
     c_bands:  1 eigenvalues not converged
     c_bands:  1 eigenvalues not converged
     c_bands:  1 eigenvalues not converged
     c_bands:  1 eigenvalues not converged
     c_bands:  1 eigenvalues not converged
     c_bands:  2 eigenvalues not converged
     c_bands:  1 eigenvalues not converged
     c_bands:  1 eigenvalues not converged
     c_bands:  1 eigenvalues not converged
     c_bands:  1 eigenvalues not converged
     c_bands:  1 eigenvalues not converged
     c_bands:  1 eigenvalues not converged
     c_bands:  1 eigenvalues not converged
     c_bands:  1 eigenvalues not converged
     c_bands:  1 eigenvalues not converged
     c_bands:  1 eigenvalues not converged
     c_bands:  1 eigenvalues not converged
     c_bands:  1 eigenvalues not converged
     c_bands:  1 eigenvalues not converged
     c_bands:  1 eigenvalues not converged
     c_bands:  1 eigenvalues not converged
     c_bands:  1 eigenvalues not converged
     c_bands:  1 eigenvalues not converged
     c_bands:  1 eigenvalues not converged
     c_bands:  2 eigenvalues not converged
     c_bands:  1 eigenvalues not converged
     c_bands:  1 eigenvalues not converged
     c_bands:  1 eigenvalues not converged
     c_bands:  1 eigenvalues not converged
     ethr =  1.00E-06,  avg # of iterations = 16.4

     total cpu time spent up to now is     2615.4 secs

     total energy              =    -638.20943509 Ry
     Harris-Foulkes estimate   =    -725.92403367 Ry
     estimated scf accuracy    <      73.55782316 Ry

     iteration #  2     ecut=    50.00 Ry     beta= 0.60
     Davidson diagonalization with overlap
     ethr =  1.00E-02,  avg # of iterations =  7.4

     total cpu time spent up to now is     2686.6 secs

     total energy              =    -681.21982243 Ry
     Harris-Foulkes estimate   =    -791.40860526 Ry
     estimated scf accuracy    <     342.37932401 Ry

     iteration #  3     ecut=    50.00 Ry     beta= 0.60
     Davidson diagonalization with overlap
     ethr =  1.00E-02,  avg # of iterations =  4.7

     total cpu time spent up to now is     2744.3 secs

     total energy              =    -707.97192996 Ry
     Harris-Foulkes estimate   =    -714.18537648 Ry
     estimated scf accuracy    <      28.31723520 Ry

     iteration #  4     ecut=    50.00 Ry     beta= 0.60
     Davidson diagonalization with overlap
     ethr =  1.00E-02,  avg # of iterations =  1.9

     total cpu time spent up to now is     2776.1 secs

     total energy              =    -706.75232104 Ry
     Harris-Foulkes estimate   =    -708.45579323 Ry
     estimated scf accuracy    <      17.77386233 Ry

     iteration #  5     ecut=    50.00 Ry     beta= 0.60
     Davidson diagonalization with overlap
     ethr =  1.00E-02,  avg # of iterations =  1.0

     total cpu time spent up to now is     2806.0 secs

     total energy              =    -703.96908081 Ry
     Harris-Foulkes estimate   =    -706.96994689 Ry
     estimated scf accuracy    <      13.43831038 Ry

     iteration #  6     ecut=    50.00 Ry     beta= 0.60
     Davidson diagonalization with overlap
     ethr =  1.00E-02,  avg # of iterations =  1.9

     total cpu time spent up to now is     2837.2 secs

     total energy              =    -704.38524488 Ry
     Harris-Foulkes estimate   =    -704.32507554 Ry
     estimated scf accuracy    <       5.84357789 Ry

     iteration #  7     ecut=    50.00 Ry     beta= 0.60
     Davidson diagonalization with overlap
     ethr =  7.79E-03,  avg # of iterations =  1.2

     total cpu time spent up to now is     2868.9 secs

     total energy              =    -703.76022536 Ry
     Harris-Foulkes estimate   =    -704.47413088 Ry
     estimated scf accuracy    <       5.89610064 Ry

     iteration #  8     ecut=    50.00 Ry     beta= 0.60
     Davidson diagonalization with overlap
     ethr =  7.79E-03,  avg # of iterations =  1.2

     total cpu time spent up to now is     2900.1 secs

     total energy              =    -703.64667300 Ry
     Harris-Foulkes estimate   =    -703.87382907 Ry
     estimated scf accuracy    <       3.54884152 Ry

     iteration #  9     ecut=    50.00 Ry     beta= 0.60
     Davidson diagonalization with overlap
     ethr =  4.73E-03,  avg # of iterations =  3.2

     total cpu time spent up to now is     2935.3 secs

     total energy              =    -704.01027827 Ry
     Harris-Foulkes estimate   =    -703.83854172 Ry
     estimated scf accuracy    <       1.46671320 Ry

     iteration # 10     ecut=    50.00 Ry     beta= 0.60
     Davidson diagonalization with overlap
     ethr =  1.96E-03,  avg # of iterations =  3.3

     total cpu time spent up to now is     2968.7 secs

     total energy              =    -703.17417229 Ry
     Harris-Foulkes estimate   =    -704.05536474 Ry
     estimated scf accuracy    <       2.02909590 Ry

     iteration # 11     ecut=    50.00 Ry     beta= 0.60
     Davidson diagonalization with overlap
     ethr =  1.96E-03,  avg # of iterations =  4.7

     total cpu time spent up to now is     3021.0 secs

     total energy              =    -703.95272803 Ry
     Harris-Foulkes estimate   =    -704.02448773 Ry
     estimated scf accuracy    <       3.92613345 Ry

     iteration # 12     ecut=    50.00 Ry     beta= 0.60
     Davidson diagonalization with overlap
     ethr =  1.96E-03,  avg # of iterations =  1.0

     total cpu time spent up to now is     3051.0 secs

     total energy              =    -703.63422017 Ry
     Harris-Foulkes estimate   =    -703.96128184 Ry
     estimated scf accuracy    <       3.20666409 Ry

     iteration # 13     ecut=    50.00 Ry     beta= 0.60
     Davidson diagonalization with overlap
     ethr =  1.96E-03,  avg # of iterations =  1.2

     total cpu time spent up to now is     3083.2 secs

     total energy              =    -703.64565494 Ry
     Harris-Foulkes estimate   =    -703.71954681 Ry
     estimated scf accuracy    <       0.70262138 Ry

     iteration # 14     ecut=    50.00 Ry     beta= 0.60
     Davidson diagonalization with overlap
     ethr =  9.37E-04,  avg # of iterations =  3.9

     total cpu time spent up to now is     3125.0 secs

     total energy              =    -703.74504415 Ry
     Harris-Foulkes estimate   =    -703.73745143 Ry
     estimated scf accuracy    <       0.01198264 Ry

     iteration # 15     ecut=    50.00 Ry     beta= 0.60
     Davidson diagonalization with overlap
     ethr =  1.60E-05,  avg # of iterations =  6.4

     total cpu time spent up to now is     3185.8 secs

     total energy              =    -703.72931088 Ry
     Harris-Foulkes estimate   =    -703.76549748 Ry
     estimated scf accuracy    <       0.30975262 Ry

     iteration # 16     ecut=    50.00 Ry     beta= 0.60
     Davidson diagonalization with overlap
     ethr =  1.60E-05,  avg # of iterations =  5.3

     total cpu time spent up to now is     3239.3 secs

     total energy              =    -703.74732182 Ry
     Harris-Foulkes estimate   =    -703.74088348 Ry
     estimated scf accuracy    <       0.03413152 Ry

     iteration # 17     ecut=    50.00 Ry     beta= 0.60
     Davidson diagonalization with overlap
     ethr =  1.60E-05,  avg # of iterations =  4.4

     total cpu time spent up to now is     3281.2 secs

     total energy              =    -703.73966905 Ry
     Harris-Foulkes estimate   =    -703.75149348 Ry
     estimated scf accuracy    <       0.15311995 Ry

     iteration # 18     ecut=    50.00 Ry     beta= 0.60
     Davidson diagonalization with overlap
     ethr =  1.60E-05,  avg # of iterations =  3.0

     total cpu time spent up to now is     3316.8 secs

     total energy              =    -703.73657060 Ry
     Harris-Foulkes estimate   =    -703.74194867 Ry
     estimated scf accuracy    <       0.05534976 Ry

     iteration # 19     ecut=    50.00 Ry     beta= 0.60
     Davidson diagonalization with overlap
     ethr =  1.60E-05,  avg # of iterations =  4.4

     total cpu time spent up to now is     3356.3 secs

     total energy              =    -703.73764453 Ry
     Harris-Foulkes estimate   =    -703.73835144 Ry
     estimated scf accuracy    <       0.00893752 Ry

     iteration # 20     ecut=    50.00 Ry     beta= 0.60
     Davidson diagonalization with overlap
     ethr =  1.19E-05,  avg # of iterations =  3.1

     total cpu time spent up to now is     3390.6 secs

     total energy              =    -703.73759894 Ry
     Harris-Foulkes estimate   =    -703.73797407 Ry
     estimated scf accuracy    <       0.00246931 Ry

     iteration # 21     ecut=    50.00 Ry     beta= 0.60
     Davidson diagonalization with overlap
     ethr =  3.29E-06,  avg # of iterations =  5.6

     total cpu time spent up to now is     3435.5 secs

     total energy              =    -703.73790737 Ry
     Harris-Foulkes estimate   =    -703.73795324 Ry
     estimated scf accuracy    <       0.00022544 Ry

     iteration # 22     ecut=    50.00 Ry     beta= 0.60
     Davidson diagonalization with overlap
     ethr =  3.01E-07,  avg # of iterations =  3.5

     total cpu time spent up to now is     3473.0 secs

     total energy              =    -703.73793445 Ry
     Harris-Foulkes estimate   =    -703.73794494 Ry
     estimated scf accuracy    <       0.00004919 Ry

     iteration # 23     ecut=    50.00 Ry     beta= 0.60
     Davidson diagonalization with overlap
     ethr =  6.56E-08,  avg # of iterations =  2.9

     total cpu time spent up to now is     3508.4 secs

     total energy              =    -703.73793900 Ry
     Harris-Foulkes estimate   =    -703.73794142 Ry
     estimated scf accuracy    <       0.00001363 Ry

     iteration # 24     ecut=    50.00 Ry     beta= 0.60
     Davidson diagonalization with overlap
     ethr =  1.82E-08,  avg # of iterations =  3.1

     total cpu time spent up to now is     3549.6 secs

     total energy              =    -703.73794062 Ry
     Harris-Foulkes estimate   =    -703.73794069 Ry
     estimated scf accuracy    <       0.00000026 Ry

     iteration # 25     ecut=    50.00 Ry     beta= 0.60
     Davidson diagonalization with overlap
     ethr =  3.52E-10,  avg # of iterations =  4.9

     total cpu time spent up to now is     3599.9 secs

     total energy              =    -703.73794082 Ry
     Harris-Foulkes estimate   =    -703.73794083 Ry
     estimated scf accuracy    <       0.00000004 Ry

     iteration # 26     ecut=    50.00 Ry     beta= 0.60
     Davidson diagonalization with overlap
     ethr =  5.34E-11,  avg # of iterations =  2.3

     total cpu time spent up to now is     3632.7 secs

     total energy              =    -703.73794082 Ry
     Harris-Foulkes estimate   =    -703.73794083 Ry
     estimated scf accuracy    <          9.1E-09 Ry

     iteration # 27     ecut=    50.00 Ry     beta= 0.60
     Davidson diagonalization with overlap
     ethr =  1.22E-11,  avg # of iterations =  3.9

     total cpu time spent up to now is     3673.2 secs

     total energy              =    -703.73794083 Ry
     Harris-Foulkes estimate   =    -703.73794083 Ry
     estimated scf accuracy    <          3.1E-09 Ry

     iteration # 28     ecut=    50.00 Ry     beta= 0.60
     Davidson diagonalization with overlap
     ethr =  4.10E-12,  avg # of iterations =  3.3

     total cpu time spent up to now is     3708.1 secs

     total energy              =    -703.73794083 Ry
     Harris-Foulkes estimate   =    -703.73794083 Ry
     estimated scf accuracy    <          2.8E-10 Ry

     iteration # 29     ecut=    50.00 Ry     beta= 0.60
     Davidson diagonalization with overlap
     ethr =  3.69E-13,  avg # of iterations =  4.0

     total cpu time spent up to now is     3749.8 secs

     End of self-consistent calculation

     Number of k-points >= 100: set verbosity='high' to print the bands.

     the Fermi energy is    16.4348 ev

!    total energy              =    -703.73794083 Ry
     Harris-Foulkes estimate   =    -703.73794083 Ry
     estimated scf accuracy    <          6.6E-11 Ry

     The total energy is the sum of the following terms:

     one-electron contribution =    -160.75220006 Ry
     hartree contribution      =     114.78990598 Ry
     xc contribution           =     -99.16808821 Ry
     ewald contribution        =    -558.60456999 Ry
     smearing contrib. (-TS)   =      -0.00298854 Ry

     convergence has been achieved in  29 iterations

     Forces acting on atoms (cartesian axes, Ry/au):

     atom    1 type  2   force =     0.00603255    0.00000000    0.00000000
     atom    2 type  2   force =     0.00000000    0.00000000    0.00000000
     atom    3 type  2   force =    -0.00603255    0.00000000    0.00000000
     atom    4 type  1   force =    -0.00924063    0.00000000    0.00000000
     atom    5 type  1   force =     0.00924063    0.00000000    0.00000000
     atom    6 type  1   force =     0.00000000    0.00000000    0.00000000

     Total force =     0.015606     Total SCF correction =     0.000018


     Computing stress (Cartesian axis) and pressure

          total   stress  (Ry/bohr**3)                   (kbar)     P=   57.66
   0.00038060   0.00000000   0.00000000         55.99      0.00      0.00
  -0.00000000   0.00039768  -0.00001241         -0.00     58.50     -1.83
  -0.00000000  -0.00001241   0.00039768         -0.00     -1.83     58.50


     number of scf cycles    =   3
     number of bfgs steps    =   2

     enthalpy old            =    -703.7057564702 Ry
     enthalpy new            =    -703.7379408265 Ry

     CASE: enthalpy_new < enthalpy_old

     new trust radius        =       0.0784545545 bohr
     new conv_thr            =            1.0E-10 Ry

     new unit-cell volume =    716.07397 a.u.^3 (   106.11121 Ang^3 )
     density =      6.60891 g/cm^3

CELL_PARAMETERS (alat=  1.88972599)
   4.924346038  -1.641111307  -1.641111307
  -4.924346038  -1.641111307  -1.641111307
   0.000000000   3.282575994  -3.282575994

ATOMIC_POSITIONS (angstrom)
Ti       3.288067840   0.000176691  -3.282399304
Ti       0.000000000   0.000353381  -6.564798608
Ti      -3.288067840   0.000176691  -3.282399304
Nb      -1.655660610   1.641464688  -4.923687301
Nb       1.655660610   1.641464688  -4.923687301
Nb       0.000000000   0.000176691  -3.282399304


     NEW-OLD atomic charge density approx. for the potential
     extrapolated charge   78.12046, renormalised to   75.00000

     total cpu time spent up to now is     3767.8 secs

     Self-consistent Calculation

     iteration #  1     ecut=    50.00 Ry     beta= 0.60
     Davidson diagonalization with overlap
     ethr =  1.00E-06,  avg # of iterations = 13.0

     total cpu time spent up to now is     3877.4 secs

     total energy              =    -703.04133588 Ry
     Harris-Foulkes estimate   =    -698.72059447 Ry
     estimated scf accuracy    <       0.58885531 Ry

     iteration #  2     ecut=    50.00 Ry     beta= 0.60
     Davidson diagonalization with overlap
     ethr =  7.85E-04,  avg # of iterations =  6.2

     total cpu time spent up to now is     3943.2 secs

     total energy              =    -702.45492192 Ry
     Harris-Foulkes estimate   =    -705.43366350 Ry
     estimated scf accuracy    <      22.30796535 Ry

     iteration #  3     ecut=    50.00 Ry     beta= 0.60
     Davidson diagonalization with overlap
     ethr =  7.85E-04,  avg # of iterations =  5.1

     total cpu time spent up to now is     3997.8 secs

     total energy              =    -703.72357218 Ry
     Harris-Foulkes estimate   =    -703.85695464 Ry
     estimated scf accuracy    <       0.38284509 Ry

     iteration #  4     ecut=    50.00 Ry     beta= 0.60
     Davidson diagonalization with overlap
     ethr =  5.10E-04,  avg # of iterations =  3.2

     total cpu time spent up to now is     4035.5 secs

     total energy              =    -703.75809467 Ry
     Harris-Foulkes estimate   =    -703.78516484 Ry
     estimated scf accuracy    <       0.34279316 Ry

     iteration #  5     ecut=    50.00 Ry     beta= 0.60
     Davidson diagonalization with overlap
     ethr =  4.57E-04,  avg # of iterations =  1.0

     total cpu time spent up to now is     4065.5 secs

     total energy              =    -703.76454125 Ry
     Harris-Foulkes estimate   =    -703.77157124 Ry
     estimated scf accuracy    <       0.19753352 Ry

     iteration #  6     ecut=    50.00 Ry     beta= 0.60
     Davidson diagonalization with overlap
     ethr =  2.63E-04,  avg # of iterations =  1.0

     total cpu time spent up to now is     4095.4 secs

     total energy              =    -703.75571133 Ry
     Harris-Foulkes estimate   =    -703.76695059 Ry
     estimated scf accuracy    <       0.16104590 Ry

     iteration #  7     ecut=    50.00 Ry     beta= 0.60
     Davidson diagonalization with overlap
     ethr =  2.15E-04,  avg # of iterations =  1.0

     total cpu time spent up to now is     4125.8 secs

     total energy              =    -703.74547392 Ry
     Harris-Foulkes estimate   =    -703.75714953 Ry
     estimated scf accuracy    <       0.10090926 Ry

     iteration #  8     ecut=    50.00 Ry     beta= 0.60
     Davidson diagonalization with overlap
     ethr =  1.35E-04,  avg # of iterations =  1.6

     total cpu time spent up to now is     4156.6 secs

     total energy              =    -703.74287630 Ry
     Harris-Foulkes estimate   =    -703.74764010 Ry
     estimated scf accuracy    <       0.04064024 Ry

     iteration #  9     ecut=    50.00 Ry     beta= 0.60
     Davidson diagonalization with overlap
     ethr =  5.42E-05,  avg # of iterations =  2.7

     total cpu time spent up to now is     4190.1 secs

     total energy              =    -703.74260581 Ry
     Harris-Foulkes estimate   =    -703.74441625 Ry
     estimated scf accuracy    <       0.01457334 Ry

     iteration # 10     ecut=    50.00 Ry     beta= 0.60
     Davidson diagonalization with overlap
     ethr =  1.94E-05,  avg # of iterations =  3.4

     total cpu time spent up to now is     4225.0 secs

     total energy              =    -703.74251430 Ry
     Harris-Foulkes estimate   =    -703.74351469 Ry
     estimated scf accuracy    <       0.00398142 Ry

     iteration # 11     ecut=    50.00 Ry     beta= 0.60
     Davidson diagonalization with overlap
     ethr =  5.31E-06,  avg # of iterations =  5.3

     total cpu time spent up to now is     4270.6 secs

     total energy              =    -703.74305116 Ry
     Harris-Foulkes estimate   =    -703.74315718 Ry
     estimated scf accuracy    <       0.00033112 Ry

     iteration # 12     ecut=    50.00 Ry     beta= 0.60
     Davidson diagonalization with overlap
     ethr =  4.41E-07,  avg # of iterations =  4.2

     total cpu time spent up to now is     4310.3 secs

     total energy              =    -703.74313028 Ry
     Harris-Foulkes estimate   =    -703.74315060 Ry
     estimated scf accuracy    <       0.00035138 Ry

     iteration # 13     ecut=    50.00 Ry     beta= 0.60
     Davidson diagonalization with overlap
     ethr =  4.41E-07,  avg # of iterations =  1.0

     total cpu time spent up to now is     4340.6 secs

     total energy              =    -703.74312343 Ry
     Harris-Foulkes estimate   =    -703.74313588 Ry
     estimated scf accuracy    <       0.00020843 Ry

     iteration # 14     ecut=    50.00 Ry     beta= 0.60
     Davidson diagonalization with overlap
     ethr =  2.78E-07,  avg # of iterations =  1.1

     total cpu time spent up to now is     4370.9 secs

     total energy              =    -703.74311940 Ry
     Harris-Foulkes estimate   =    -703.74312716 Ry
     estimated scf accuracy    <       0.00009681 Ry

     iteration # 15     ecut=    50.00 Ry     beta= 0.60
     Davidson diagonalization with overlap
     ethr =  1.29E-07,  avg # of iterations =  2.8

     total cpu time spent up to now is     4409.7 secs

     total energy              =    -703.74312067 Ry
     Harris-Foulkes estimate   =    -703.74312295 Ry
     estimated scf accuracy    <       0.00002995 Ry

     iteration # 16     ecut=    50.00 Ry     beta= 0.60
     Davidson diagonalization with overlap
     ethr =  3.99E-08,  avg # of iterations =  4.0

     total cpu time spent up to now is     4448.0 secs

     total energy              =    -703.74312265 Ry
     Harris-Foulkes estimate   =    -703.74312383 Ry
     estimated scf accuracy    <       0.00001369 Ry

     iteration # 17     ecut=    50.00 Ry     beta= 0.60
     Davidson diagonalization with overlap
     ethr =  1.83E-08,  avg # of iterations =  2.6

     total cpu time spent up to now is     4481.0 secs

     total energy              =    -703.74312219 Ry
     Harris-Foulkes estimate   =    -703.74312359 Ry
     estimated scf accuracy    <       0.00000832 Ry

     iteration # 18     ecut=    50.00 Ry     beta= 0.60
     Davidson diagonalization with overlap
     ethr =  1.11E-08,  avg # of iterations =  2.4

     total cpu time spent up to now is     4513.3 secs

     total energy              =    -703.74312272 Ry
     Harris-Foulkes estimate   =    -703.74312281 Ry
     estimated scf accuracy    <       0.00000034 Ry

     iteration # 19     ecut=    50.00 Ry     beta= 0.60
     Davidson diagonalization with overlap
     ethr =  4.47E-10,  avg # of iterations =  5.1

     total cpu time spent up to now is     4562.1 secs

     total energy              =    -703.74312290 Ry
     Harris-Foulkes estimate   =    -703.74312304 Ry
     estimated scf accuracy    <       0.00000099 Ry

     iteration # 20     ecut=    50.00 Ry     beta= 0.60
     Davidson diagonalization with overlap
     ethr =  4.47E-10,  avg # of iterations =  3.7

     total cpu time spent up to now is     4598.6 secs

     total energy              =    -703.74312295 Ry
     Harris-Foulkes estimate   =    -703.74312295 Ry
     estimated scf accuracy    <       0.00000005 Ry

     iteration # 21     ecut=    50.00 Ry     beta= 0.60
     Davidson diagonalization with overlap
     ethr =  6.73E-11,  avg # of iterations =  4.1

     total cpu time spent up to now is     4639.9 secs

     total energy              =    -703.74312296 Ry
     Harris-Foulkes estimate   =    -703.74312296 Ry
     estimated scf accuracy    <          7.1E-09 Ry

     iteration # 22     ecut=    50.00 Ry     beta= 0.60
     Davidson diagonalization with overlap
     ethr =  9.45E-12,  avg # of iterations =  2.5

     total cpu time spent up to now is     4673.0 secs

     total energy              =    -703.74312296 Ry
     Harris-Foulkes estimate   =    -703.74312296 Ry
     estimated scf accuracy    <          1.2E-09 Ry

     iteration # 23     ecut=    50.00 Ry     beta= 0.60
     Davidson diagonalization with overlap
     ethr =  1.57E-12,  avg # of iterations =  3.9

     total cpu time spent up to now is     4712.6 secs

     total energy              =    -703.74312296 Ry
     Harris-Foulkes estimate   =    -703.74312296 Ry
     estimated scf accuracy    <          1.4E-10 Ry

     iteration # 24     ecut=    50.00 Ry     beta= 0.60
     Davidson diagonalization with overlap
     ethr =  1.84E-13,  avg # of iterations =  3.5

     total cpu time spent up to now is     4752.1 secs

     End of self-consistent calculation

     Number of k-points >= 100: set verbosity='high' to print the bands.

     the Fermi energy is    15.6081 ev

!    total energy              =    -703.74312296 Ry
     Harris-Foulkes estimate   =    -703.74312296 Ry
     estimated scf accuracy    <          6.3E-12 Ry

     The total energy is the sum of the following terms:

     one-electron contribution =    -172.57164381 Ry
     hartree contribution      =     118.15332542 Ry
     xc contribution           =     -98.90735649 Ry
     ewald contribution        =    -550.41453575 Ry
     smearing contrib. (-TS)   =      -0.00291232 Ry

     convergence has been achieved in  24 iterations

     Forces acting on atoms (cartesian axes, Ry/au):

     atom    1 type  2   force =     0.00497772    0.00000000    0.00000000
     atom    2 type  2   force =     0.00000000    0.00000000    0.00000000
     atom    3 type  2   force =    -0.00497772    0.00000000    0.00000000
     atom    4 type  1   force =    -0.00817633    0.00000000    0.00000000
     atom    5 type  1   force =     0.00817633    0.00000000    0.00000000
     atom    6 type  1   force =     0.00000000    0.00000000    0.00000000

     Total force =     0.013537     Total SCF correction =     0.000001


     Computing stress (Cartesian axis) and pressure

          total   stress  (Ry/bohr**3)                   (kbar)     P=   -7.14
  -0.00005526  -0.00000000  -0.00000000         -8.13     -0.00     -0.00
  -0.00000000  -0.00004513  -0.00000964         -0.00     -6.64     -1.42
  -0.00000000  -0.00000964  -0.00004513         -0.00     -1.42     -6.64


     number of scf cycles    =   4
     number of bfgs steps    =   3

     enthalpy old            =    -703.7379408265 Ry
     enthalpy new            =    -703.7431229575 Ry

     CASE: enthalpy_new < enthalpy_old

     new trust radius        =       0.0093936481 bohr
     new conv_thr            =            1.0E-10 Ry

     new unit-cell volume =    712.63084 a.u.^3 (   105.60099 Ang^3 )
     density =      6.64084 g/cm^3

CELL_PARAMETERS (alat=  1.88972599)
   4.915702851  -1.638247502  -1.638247502
  -4.915702851  -1.638247502  -1.638247502
   0.000000000   3.278256851  -3.278256851

ATOMIC_POSITIONS (angstrom)
Ti       3.284530328   0.000880923  -3.277375927
Ti       0.000000000   0.001761847  -6.554751854
Ti      -3.284530328   0.000880923  -3.277375927
Nb      -1.656498261   1.640009349  -4.916504353
Nb       1.656498261   1.640009349  -4.916504353
Nb       0.000000000   0.000880923  -3.277375927


     NEW-OLD atomic charge density approx. for the potential
     extrapolated charge   74.65217, renormalised to   75.00000

     total cpu time spent up to now is     4770.5 secs

     Self-consistent Calculation

     iteration #  1     ecut=    50.00 Ry     beta= 0.60
     Davidson diagonalization with overlap
     ethr =  1.00E-06,  avg # of iterations =  5.2

     total cpu time spent up to now is     4841.7 secs

     total energy              =    -703.72794258 Ry
     Harris-Foulkes estimate   =    -704.31354424 Ry
     estimated scf accuracy    <       0.01476971 Ry

     iteration #  2     ecut=    50.00 Ry     beta= 0.60
     Davidson diagonalization with overlap
     c_bands:  1 eigenvalues not converged
     ethr =  1.97E-05,  avg # of iterations =  6.6

     total cpu time spent up to now is     4906.2 secs

     total energy              =    -703.71684983 Ry
     Harris-Foulkes estimate   =    -703.78566848 Ry
     estimated scf accuracy    <       0.46444755 Ry

     iteration #  3     ecut=    50.00 Ry     beta= 0.60
     Davidson diagonalization with overlap
     ethr =  1.97E-05,  avg # of iterations =  5.3

     total cpu time spent up to now is     4961.6 secs

     total energy              =    -703.74352459 Ry
     Harris-Foulkes estimate   =    -703.74582981 Ry
     estimated scf accuracy    <       0.00892037 Ry

     iteration #  4     ecut=    50.00 Ry     beta= 0.60
     Davidson diagonalization with overlap
     ethr =  1.19E-05,  avg # of iterations =  1.3

     total cpu time spent up to now is     4992.1 secs

     total energy              =    -703.74372534 Ry
     Harris-Foulkes estimate   =    -703.74427160 Ry
     estimated scf accuracy    <       0.00767492 Ry

     iteration #  5     ecut=    50.00 Ry     beta= 0.60
     Davidson diagonalization with overlap
     ethr =  1.02E-05,  avg # of iterations =  1.0

     total cpu time spent up to now is     5022.0 secs

     total energy              =    -703.74375725 Ry
     Harris-Foulkes estimate   =    -703.74400076 Ry
     estimated scf accuracy    <       0.00501285 Ry

     iteration #  6     ecut=    50.00 Ry     beta= 0.60
     Davidson diagonalization with overlap
     ethr =  6.68E-06,  avg # of iterations =  1.0

     total cpu time spent up to now is     5054.7 secs

     total energy              =    -703.74328632 Ry
     Harris-Foulkes estimate   =    -703.74381057 Ry
     estimated scf accuracy    <       0.00368595 Ry

     iteration #  7     ecut=    50.00 Ry     beta= 0.60
     Davidson diagonalization with overlap
     ethr =  4.91E-06,  avg # of iterations =  1.8

     total cpu time spent up to now is     5085.9 secs

     total energy              =    -703.74331914 Ry
     Harris-Foulkes estimate   =    -703.74341997 Ry
     estimated scf accuracy    <       0.00098768 Ry

     iteration #  8     ecut=    50.00 Ry     beta= 0.60
     Davidson diagonalization with overlap
     ethr =  1.32E-06,  avg # of iterations =  3.0

     total cpu time spent up to now is     5127.7 secs

     total energy              =    -703.74333003 Ry
     Harris-Foulkes estimate   =    -703.74337195 Ry
     estimated scf accuracy    <       0.00025565 Ry

     iteration #  9     ecut=    50.00 Ry     beta= 0.60
     Davidson diagonalization with overlap
     ethr =  3.41E-07,  avg # of iterations =  4.0

     total cpu time spent up to now is     5168.3 secs

     total energy              =    -703.74337299 Ry
     Harris-Foulkes estimate   =    -703.74337005 Ry
     estimated scf accuracy    <       0.00000486 Ry

     iteration # 10     ecut=    50.00 Ry     beta= 0.60
     Davidson diagonalization with overlap
     ethr =  6.48E-09,  avg # of iterations =  4.8

     total cpu time spent up to now is     5220.2 secs

     total energy              =    -703.74336429 Ry
     Harris-Foulkes estimate   =    -703.74337850 Ry
     estimated scf accuracy    <       0.00004889 Ry

     iteration # 11     ecut=    50.00 Ry     beta= 0.60
     Davidson diagonalization with overlap
     ethr =  6.48E-09,  avg # of iterations =  5.0

     total cpu time spent up to now is     5278.6 secs

     total energy              =    -703.74337015 Ry
     Harris-Foulkes estimate   =    -703.74337046 Ry
     estimated scf accuracy    <       0.00000142 Ry

     iteration # 12     ecut=    50.00 Ry     beta= 0.60
     Davidson diagonalization with overlap
     ethr =  1.90E-09,  avg # of iterations =  3.1

     total cpu time spent up to now is     5323.6 secs

     total energy              =    -703.74337034 Ry
     Harris-Foulkes estimate   =    -703.74337037 Ry
     estimated scf accuracy    <       0.00000032 Ry

     iteration # 13     ecut=    50.00 Ry     beta= 0.60
     Davidson diagonalization with overlap
     ethr =  4.30E-10,  avg # of iterations =  3.5

     total cpu time spent up to now is     5367.4 secs

     total energy              =    -703.74337035 Ry
     Harris-Foulkes estimate   =    -703.74337037 Ry
     estimated scf accuracy    <       0.00000025 Ry

     iteration # 14     ecut=    50.00 Ry     beta= 0.60
     Davidson diagonalization with overlap
     ethr =  3.31E-10,  avg # of iterations =  1.1

     total cpu time spent up to now is     5401.0 secs

     total energy              =    -703.74337035 Ry
     Harris-Foulkes estimate   =    -703.74337036 Ry
     estimated scf accuracy    <       0.00000011 Ry

     iteration # 15     ecut=    50.00 Ry     beta= 0.60
     Davidson diagonalization with overlap
     ethr =  1.52E-10,  avg # of iterations =  1.5

     total cpu time spent up to now is     5434.8 secs

     total energy              =    -703.74337035 Ry
     Harris-Foulkes estimate   =    -703.74337035 Ry
     estimated scf accuracy    <       0.00000005 Ry

     iteration # 16     ecut=    50.00 Ry     beta= 0.60
     Davidson diagonalization with overlap
     ethr =  6.74E-11,  avg # of iterations =  3.2

     total cpu time spent up to now is     5468.7 secs

     total energy              =    -703.74337035 Ry
     Harris-Foulkes estimate   =    -703.74337035 Ry
     estimated scf accuracy    <          9.8E-09 Ry

     iteration # 17     ecut=    50.00 Ry     beta= 0.60
     Davidson diagonalization with overlap
     ethr =  1.30E-11,  avg # of iterations =  3.9

     total cpu time spent up to now is     5507.8 secs

     total energy              =    -703.74337035 Ry
     Harris-Foulkes estimate   =    -703.74337035 Ry
     estimated scf accuracy    <          2.1E-10 Ry

     iteration # 18     ecut=    50.00 Ry     beta= 0.60
     Davidson diagonalization with overlap
     ethr =  2.82E-13,  avg # of iterations =  4.9

     total cpu time spent up to now is     5554.3 secs

     total energy              =    -703.74337035 Ry
     Harris-Foulkes estimate   =    -703.74337035 Ry
     estimated scf accuracy    <          4.6E-10 Ry

     iteration # 19     ecut=    50.00 Ry     beta= 0.60
     Davidson diagonalization with overlap
     ethr =  2.82E-13,  avg # of iterations =  3.0

     total cpu time spent up to now is     5588.5 secs

     End of self-consistent calculation

     Number of k-points >= 100: set verbosity='high' to print the bands.

     the Fermi energy is    15.6959 ev

!    total energy              =    -703.74337035 Ry
     Harris-Foulkes estimate   =    -703.74337035 Ry
     estimated scf accuracy    <          7.3E-11 Ry

     The total energy is the sum of the following terms:

     one-electron contribution =    -171.29335310 Ry
     hartree contribution      =     117.78615735 Ry
     xc contribution           =     -98.93497400 Ry
     ewald contribution        =    -551.29830737 Ry
     smearing contrib. (-TS)   =      -0.00289323 Ry

     convergence has been achieved in  19 iterations

     Forces acting on atoms (cartesian axes, Ry/au):

     atom    1 type  2   force =     0.00505298    0.00000000    0.00000000
     atom    2 type  2   force =     0.00000000    0.00000000    0.00000000
     atom    3 type  2   force =    -0.00505298    0.00000000    0.00000000
     atom    4 type  1   force =    -0.00727229    0.00000000    0.00000000
     atom    5 type  1   force =     0.00727229    0.00000000    0.00000000
     atom    6 type  1   force =     0.00000000    0.00000000    0.00000000

     Total force =     0.012523     Total SCF correction =     0.000007


     Computing stress (Cartesian axis) and pressure

          total   stress  (Ry/bohr**3)                   (kbar)     P=   -0.63
  -0.00001148   0.00000000   0.00000000         -1.69      0.00      0.00
   0.00000000  -0.00000067  -0.00001010          0.00     -0.10     -1.49
   0.00000000  -0.00001010  -0.00000067          0.00     -1.49     -0.10


     number of scf cycles    =   5
     number of bfgs steps    =   4

     enthalpy old            =    -703.7431229575 Ry
     enthalpy new            =    -703.7433703526 Ry

     CASE: enthalpy_new < enthalpy_old

     new trust radius        =       0.0181841788 bohr
     new conv_thr            =            1.0E-10 Ry

     new unit-cell volume =    709.63172 a.u.^3 (   105.15657 Ang^3 )
     density =      6.66890 g/cm^3

CELL_PARAMETERS (alat=  1.88972599)
   4.906568626  -1.635273226  -1.635273226
  -4.906568626  -1.635273226  -1.635273226
   0.000000000   3.276485999  -3.276485999

ATOMIC_POSITIONS (angstrom)
Ti       3.284806718   0.002969774  -3.273516226
Ti       0.000000000   0.005939547  -6.547032451
Ti      -3.284806718   0.002969774  -3.273516226
Nb      -1.663024973   1.641212773  -4.911759225
Nb       1.663024973   1.641212773  -4.911759225
Nb       0.000000000   0.002969774  -3.273516226


     NEW-OLD atomic charge density approx. for the potential
     extrapolated charge   74.69574, renormalised to   75.00000

     total cpu time spent up to now is     5616.8 secs

     Self-consistent Calculation

     iteration #  1     ecut=    50.00 Ry     beta= 0.60
     Davidson diagonalization with overlap
     ethr =  1.00E-06,  avg # of iterations =  5.8

     total cpu time spent up to now is     5688.5 secs

     total energy              =    -703.73134145 Ry
     Harris-Foulkes estimate   =    -704.23959424 Ry
     estimated scf accuracy    <       0.01207012 Ry

     iteration #  2     ecut=    50.00 Ry     beta= 0.60
     Davidson diagonalization with overlap
     c_bands:  1 eigenvalues not converged
     ethr =  1.61E-05,  avg # of iterations =  5.9

     total cpu time spent up to now is     5758.6 secs

     total energy              =    -703.72062543 Ry
     Harris-Foulkes estimate   =    -703.77894331 Ry
     estimated scf accuracy    <       0.39901662 Ry

     iteration #  3     ecut=    50.00 Ry     beta= 0.60
     Davidson diagonalization with overlap
     ethr =  1.61E-05,  avg # of iterations =  5.6

     total cpu time spent up to now is     5821.7 secs

     total energy              =    -703.74380905 Ry
     Harris-Foulkes estimate   =    -703.74551752 Ry
     estimated scf accuracy    <       0.00682672 Ry

     iteration #  4     ecut=    50.00 Ry     beta= 0.60
     Davidson diagonalization with overlap
     ethr =  9.10E-06,  avg # of iterations =  1.2

     total cpu time spent up to now is     5851.9 secs

     total energy              =    -703.74393439 Ry
     Harris-Foulkes estimate   =    -703.74432433 Ry
     estimated scf accuracy    <       0.00553785 Ry

     iteration #  5     ecut=    50.00 Ry     beta= 0.60
     Davidson diagonalization with overlap
     ethr =  7.38E-06,  avg # of iterations =  1.0

     total cpu time spent up to now is     5881.7 secs

     total energy              =    -703.74388293 Ry
     Harris-Foulkes estimate   =    -703.74413681 Ry
     estimated scf accuracy    <       0.00371851 Ry

     iteration #  6     ecut=    50.00 Ry     beta= 0.60
     Davidson diagonalization with overlap
     ethr =  4.96E-06,  avg # of iterations =  1.0

     total cpu time spent up to now is     5913.7 secs

     total energy              =    -703.74345747 Ry
     Harris-Foulkes estimate   =    -703.74394158 Ry
     estimated scf accuracy    <       0.00244164 Ry

     iteration #  7     ecut=    50.00 Ry     beta= 0.60
     Davidson diagonalization with overlap
     ethr =  3.26E-06,  avg # of iterations =  2.4

     total cpu time spent up to now is     5948.2 secs

     total energy              =    -703.74363171 Ry
     Harris-Foulkes estimate   =    -703.74365562 Ry
     estimated scf accuracy    <       0.00016254 Ry

     iteration #  8     ecut=    50.00 Ry     beta= 0.60
     Davidson diagonalization with overlap
     ethr =  2.17E-07,  avg # of iterations =  4.3

     total cpu time spent up to now is     5997.9 secs

     total energy              =    -703.74367719 Ry
     Harris-Foulkes estimate   =    -703.74368106 Ry
     estimated scf accuracy    <       0.00002316 Ry

     iteration #  9     ecut=    50.00 Ry     beta= 0.60
     Davidson diagonalization with overlap
     ethr =  3.09E-08,  avg # of iterations =  2.2

     total cpu time spent up to now is     6035.2 secs

     total energy              =    -703.74367855 Ry
     Harris-Foulkes estimate   =    -703.74367897 Ry
     estimated scf accuracy    <       0.00000191 Ry

     iteration # 10     ecut=    50.00 Ry     beta= 0.60
     Davidson diagonalization with overlap
     ethr =  2.55E-09,  avg # of iterations =  4.5

     total cpu time spent up to now is     6090.4 secs

     total energy              =    -703.74367939 Ry
     Harris-Foulkes estimate   =    -703.74367943 Ry
     estimated scf accuracy    <       0.00000030 Ry

     iteration # 11     ecut=    50.00 Ry     beta= 0.60
     Davidson diagonalization with overlap
     ethr =  4.02E-10,  avg # of iterations =  2.1

     total cpu time spent up to now is     6123.4 secs

     total energy              =    -703.74367940 Ry
     Harris-Foulkes estimate   =    -703.74367941 Ry
     estimated scf accuracy    <       0.00000023 Ry

     iteration # 12     ecut=    50.00 Ry     beta= 0.60
     Davidson diagonalization with overlap
     ethr =  3.03E-10,  avg # of iterations =  2.0

     total cpu time spent up to now is     6156.9 secs

     total energy              =    -703.74367939 Ry
     Harris-Foulkes estimate   =    -703.74367941 Ry
     estimated scf accuracy    <       0.00000027 Ry

     iteration # 13     ecut=    50.00 Ry     beta= 0.60
     Davidson diagonalization with overlap
     ethr =  3.03E-10,  avg # of iterations =  1.0

     total cpu time spent up to now is     6192.4 secs

     total energy              =    -703.74367938 Ry
     Harris-Foulkes estimate   =    -703.74367940 Ry
     estimated scf accuracy    <       0.00000010 Ry

     iteration # 14     ecut=    50.00 Ry     beta= 0.60
     Davidson diagonalization with overlap
     ethr =  1.39E-10,  avg # of iterations =  2.1

     total cpu time spent up to now is     6233.1 secs

     total energy              =    -703.74367939 Ry
     Harris-Foulkes estimate   =    -703.74367939 Ry
     estimated scf accuracy    <       0.00000002 Ry

     iteration # 15     ecut=    50.00 Ry     beta= 0.60
     Davidson diagonalization with overlap
     ethr =  2.31E-11,  avg # of iterations =  4.0

     total cpu time spent up to now is     6275.5 secs

     total energy              =    -703.74367939 Ry
     Harris-Foulkes estimate   =    -703.74367939 Ry
     estimated scf accuracy    <          9.7E-09 Ry

     iteration # 16     ecut=    50.00 Ry     beta= 0.60
     Davidson diagonalization with overlap
     ethr =  1.29E-11,  avg # of iterations =  1.0

     total cpu time spent up to now is     6307.2 secs

     total energy              =    -703.74367939 Ry
     Harris-Foulkes estimate   =    -703.74367939 Ry
     estimated scf accuracy    <          1.3E-09 Ry

     iteration # 17     ecut=    50.00 Ry     beta= 0.60
     Davidson diagonalization with overlap
     ethr =  1.80E-12,  avg # of iterations =  3.8

     total cpu time spent up to now is     6355.3 secs

     total energy              =    -703.74367939 Ry
     Harris-Foulkes estimate   =    -703.74367939 Ry
     estimated scf accuracy    <          1.4E-10 Ry

     iteration # 18     ecut=    50.00 Ry     beta= 0.60
     Davidson diagonalization with overlap
     ethr =  1.90E-13,  avg # of iterations =  3.7

     total cpu time spent up to now is     6400.4 secs

     End of self-consistent calculation

     Number of k-points >= 100: set verbosity='high' to print the bands.

     the Fermi energy is    15.7722 ev

!    total energy              =    -703.74367939 Ry
     Harris-Foulkes estimate   =    -703.74367939 Ry
     estimated scf accuracy    <          1.3E-11 Ry

     The total energy is the sum of the following terms:

     one-electron contribution =    -170.18923277 Ry
     hartree contribution      =     117.47191930 Ry
     xc contribution           =     -98.95928784 Ry
     ewald contribution        =    -552.06426289 Ry
     smearing contrib. (-TS)   =      -0.00281519 Ry

     convergence has been achieved in  18 iterations

     Forces acting on atoms (cartesian axes, Ry/au):

     atom    1 type  2   force =     0.00495339    0.00000000    0.00000000
     atom    2 type  2   force =     0.00000000    0.00000000    0.00000000
     atom    3 type  2   force =    -0.00495339    0.00000000    0.00000000
     atom    4 type  1   force =    -0.00479814    0.00000000    0.00000000
     atom    5 type  1   force =     0.00479814    0.00000000    0.00000000
     atom    6 type  1   force =     0.00000000    0.00000000    0.00000000

     Total force =     0.009753     Total SCF correction =     0.000006


     Computing stress (Cartesian axis) and pressure

          total   stress  (Ry/bohr**3)                   (kbar)     P=    5.02
   0.00002685  -0.00000000  -0.00000000          3.95     -0.00     -0.00
   0.00000000   0.00003781  -0.00001077          0.00      5.56     -1.58
   0.00000000  -0.00001077   0.00003781          0.00     -1.58      5.56


     number of scf cycles    =   6
     number of bfgs steps    =   5

     enthalpy old            =    -703.7433703526 Ry
     enthalpy new            =    -703.7436793902 Ry

     CASE: enthalpy_new < enthalpy_old

     new trust radius        =       0.0301550432 bohr
     new conv_thr            =            1.0E-10 Ry

     new unit-cell volume =    708.30791 a.u.^3 (   104.96040 Ang^3 )
     density =      6.68137 g/cm^3

CELL_PARAMETERS (alat=  1.88972599)
   4.899292313  -1.632941764  -1.632941764
  -4.899292313  -1.632941764  -1.632941764
   0.000000000   3.279907107  -3.279907107

ATOMIC_POSITIONS (angstrom)
Ti       3.291854928   0.007011790  -3.272895317
Ti       0.000000000   0.014023579  -6.545790635
Ti      -3.291854928   0.007011790  -3.272895317
Nb      -1.676492448   1.646965343  -4.912848871
Nb       1.676492448   1.646965343  -4.912848871
Nb       0.000000000   0.007011790  -3.272895317


     NEW-OLD atomic charge density approx. for the potential
     extrapolated charge   74.86545, renormalised to   75.00000

     total cpu time spent up to now is     6418.9 secs

     Self-consistent Calculation

     iteration #  1     ecut=    50.00 Ry     beta= 0.60
     Davidson diagonalization with overlap
     ethr =  1.00E-06,  avg # of iterations =  6.5

     total cpu time spent up to now is     6504.7 secs

     total energy              =    -703.74055469 Ry
     Harris-Foulkes estimate   =    -703.96273858 Ry
     estimated scf accuracy    <       0.00400468 Ry

     iteration #  2     ecut=    50.00 Ry     beta= 0.60
[...]
                l(1) =   0
                l(2) =   0
                l(3) =   1
                l(4) =   1
                l(5) =   2
                l(6) =   2
     Q(r) pseudized with  8 coefficients,  rinner =    1.000   1.000   1.000
                                                       1.000   1.000

     atomic species   valence    mass     pseudopotential
        Nb            13.00    92.90638     Nb( 1.00)
        Ti            12.00    47.86700     Ti( 1.00)

      8 Sym. Ops., with inversion, found



   Cartesian axes

     site n.     atom                  positions (alat units)
         1           Ti  tau(   1) = (   3.3209013   0.0231353  -3.2813842  )
         2           Ti  tau(   2) = (   0.0000000   0.0462706  -6.5627684  )
         3           Ti  tau(   3) = (  -3.3209013   0.0231353  -3.2813842  )
         4           Nb  tau(   4) = (  -1.6879065   1.6753950  -4.9336440  )
         5           Nb  tau(   5) = (   1.6879065   1.6753950  -4.9336440  )
         6           Nb  tau(   6) = (   0.0000000   0.0231353  -3.2813842  )

     number of k points=   252  Marzari-Vanderbilt smearing, width (Ry)=  0.0200

     Number of k-points >= 100: set verbosity='high' to print them.

     Dense  grid:   134293 G-vectors     FFT dimensions: (  75,  75,  64)

     Smooth grid:    33925 G-vectors     FFT dimensions: (  48,  48,  40)

     Estimated max dynamical RAM per process >     317.88 MB

     Estimated total dynamical RAM >       1.24 GB

     Initial potential from superposition of free atoms

     starting charge   71.99167, renormalised to   75.00000
     Starting wfcs are   69 randomized atomic wfcs

     total cpu time spent up to now is    17171.7 secs

     Self-consistent Calculation

     iteration #  1     ecut=    50.00 Ry     beta= 0.60
     Davidson diagonalization with overlap
     c_bands:  1 eigenvalues not converged
     c_bands:  1 eigenvalues not converged
     c_bands:  1 eigenvalues not converged
     c_bands:  1 eigenvalues not converged
     c_bands:  1 eigenvalues not converged
     c_bands:  1 eigenvalues not converged
     c_bands:  1 eigenvalues not converged
     c_bands:  1 eigenvalues not converged
     c_bands:  1 eigenvalues not converged
     c_bands:  1 eigenvalues not converged
     c_bands:  1 eigenvalues not converged
     c_bands:  1 eigenvalues not converged
     c_bands:  1 eigenvalues not converged
     c_bands:  1 eigenvalues not converged
     c_bands:  1 eigenvalues not converged
     c_bands:  1 eigenvalues not converged
     c_bands:  1 eigenvalues not converged
     c_bands:  1 eigenvalues not converged
     c_bands:  1 eigenvalues not converged
     c_bands:  1 eigenvalues not converged
     c_bands:  1 eigenvalues not converged
     c_bands:  1 eigenvalues not converged
     c_bands:  1 eigenvalues not converged
     c_bands:  2 eigenvalues not converged
     c_bands:  1 eigenvalues not converged
     c_bands:  1 eigenvalues not converged
     c_bands:  2 eigenvalues not converged
     c_bands:  1 eigenvalues not converged
     c_bands:  1 eigenvalues not converged
     c_bands:  1 eigenvalues not converged
     c_bands:  1 eigenvalues not converged
     c_bands:  1 eigenvalues not converged
     c_bands:  1 eigenvalues not converged
     c_bands:  1 eigenvalues not converged
     c_bands:  1 eigenvalues not converged
     c_bands:  1 eigenvalues not converged
     c_bands:  1 eigenvalues not converged
     c_bands:  1 eigenvalues not converged
     c_bands:  2 eigenvalues not converged
     c_bands:  1 eigenvalues not converged
     c_bands:  2 eigenvalues not converged
     c_bands:  2 eigenvalues not converged
     c_bands:  2 eigenvalues not converged
     c_bands:  1 eigenvalues not converged
     c_bands:  2 eigenvalues not converged
     c_bands:  2 eigenvalues not converged
     c_bands:  2 eigenvalues not converged
     c_bands:  1 eigenvalues not converged
     c_bands:  2 eigenvalues not converged
     c_bands:  1 eigenvalues not converged
     c_bands:  1 eigenvalues not converged
     c_bands:  2 eigenvalues not converged
     c_bands:  1 eigenvalues not converged
     c_bands:  2 eigenvalues not converged
     c_bands:  1 eigenvalues not converged
     c_bands:  1 eigenvalues not converged
     c_bands:  1 eigenvalues not converged
     c_bands:  2 eigenvalues not converged
     c_bands:  3 eigenvalues not converged
     c_bands:  2 eigenvalues not converged
     c_bands:  1 eigenvalues not converged
     c_bands:  1 eigenvalues not converged
     ethr =  1.00E-06,  avg # of iterations = 14.8

     total cpu time spent up to now is    17275.0 secs

     total energy              =    -694.04868443 Ry
     Harris-Foulkes estimate   =    -705.98225322 Ry
     estimated scf accuracy    <      15.21083686 Ry

     iteration #  2     ecut=    50.00 Ry     beta= 0.60
     Davidson diagonalization with overlap
     ethr =  1.00E-02,  avg # of iterations =  5.4

     total cpu time spent up to now is    17324.2 secs

     total energy              =    -700.17095533 Ry
     Harris-Foulkes estimate   =    -719.88547028 Ry
     estimated scf accuracy    <      57.62250746 Ry

     iteration #  3     ecut=    50.00 Ry     beta= 0.60
     Davidson diagonalization with overlap
     ethr =  1.00E-02,  avg # of iterations =  4.0

     total cpu time spent up to now is    17358.6 secs

     total energy              =    -703.94240911 Ry
     Harris-Foulkes estimate   =    -705.59297494 Ry
     estimated scf accuracy    <      13.17234536 Ry

     iteration #  4     ecut=    50.00 Ry     beta= 0.60
     Davidson diagonalization with overlap
     ethr =  1.00E-02,  avg # of iterations =  1.5

     total cpu time spent up to now is    17382.3 secs

     total energy              =    -704.46529573 Ry
     Harris-Foulkes estimate   =    -704.35358973 Ry
     estimated scf accuracy    <       6.01965273 Ry

     iteration #  5     ecut=    50.00 Ry     beta= 0.60
     Davidson diagonalization with overlap
     ethr =  8.03E-03,  avg # of iterations =  1.0

     total cpu time spent up to now is    17406.5 secs

     total energy              =    -704.35319517 Ry
     Harris-Foulkes estimate   =    -704.50822846 Ry
     estimated scf accuracy    <       6.16105537 Ry

     iteration #  6     ecut=    50.00 Ry     beta= 0.60
     Davidson diagonalization with overlap
     ethr =  8.03E-03,  avg # of iterations =  1.0

     total cpu time spent up to now is    17428.8 secs

     total energy              =    -703.18690320 Ry
     Harris-Foulkes estimate   =    -704.37936269 Ry
     estimated scf accuracy    <       5.35329726 Ry

     iteration #  7     ecut=    50.00 Ry     beta= 0.60
     Davidson diagonalization with overlap
     ethr =  7.14E-03,  avg # of iterations =  3.5

     total cpu time spent up to now is    17456.6 secs

     total energy              =    -703.70430524 Ry
     Harris-Foulkes estimate   =    -703.73012789 Ry
     estimated scf accuracy    <       0.46046242 Ry

     iteration #  8     ecut=    50.00 Ry     beta= 0.60
     Davidson diagonalization with overlap
     ethr =  6.14E-04,  avg # of iterations =  5.6

     total cpu time spent up to now is    17501.1 secs

     total energy              =    -703.90111628 Ry
     Harris-Foulkes estimate   =    -703.96668008 Ry
     estimated scf accuracy    <       2.58040375 Ry

     iteration #  9     ecut=    50.00 Ry     beta= 0.60
     Davidson diagonalization with overlap
     ethr =  6.14E-04,  avg # of iterations =  1.0

     total cpu time spent up to now is    17523.6 secs

     total energy              =    -703.80666930 Ry
     Harris-Foulkes estimate   =    -703.91551903 Ry
     estimated scf accuracy    <       2.17654382 Ry

     iteration # 10     ecut=    50.00 Ry     beta= 0.60
     Davidson diagonalization with overlap
     ethr =  6.14E-04,  avg # of iterations =  1.2

     total cpu time spent up to now is    17546.8 secs

     total energy              =    -703.81321255 Ry
     Harris-Foulkes estimate   =    -703.82337002 Ry
     estimated scf accuracy    <       1.11500574 Ry

     iteration # 11     ecut=    50.00 Ry     beta= 0.60
     Davidson diagonalization with overlap
     ethr =  6.14E-04,  avg # of iterations =  1.0

     total cpu time spent up to now is    17572.3 secs

     total energy              =    -703.60257586 Ry
     Harris-Foulkes estimate   =    -703.81789619 Ry
     estimated scf accuracy    <       1.03673954 Ry

     iteration # 12     ecut=    50.00 Ry     beta= 0.60
     Davidson diagonalization with overlap
     ethr =  6.14E-04,  avg # of iterations =  4.8

     total cpu time spent up to now is    17606.3 secs

     total energy              =    -703.74602238 Ry
     Harris-Foulkes estimate   =    -703.76330029 Ry
     estimated scf accuracy    <       0.23959359 Ry

     iteration # 13     ecut=    50.00 Ry     beta= 0.60
     Davidson diagonalization with overlap
     ethr =  3.19E-04,  avg # of iterations =  1.2

     total cpu time spent up to now is    17628.7 secs

     total energy              =    -703.76823597 Ry
     Harris-Foulkes estimate   =    -703.74956830 Ry
     estimated scf accuracy    <       0.10761756 Ry

     iteration # 14     ecut=    50.00 Ry     beta= 0.60
     Davidson diagonalization with overlap
     ethr =  1.43E-04,  avg # of iterations =  1.9

     total cpu time spent up to now is    17655.9 secs

     total energy              =    -703.72143774 Ry
     Harris-Foulkes estimate   =    -703.77634998 Ry
     estimated scf accuracy    <       0.31603694 Ry

     iteration # 15     ecut=    50.00 Ry     beta= 0.60
     Davidson diagonalization with overlap
     ethr =  1.43E-04,  avg # of iterations =  3.3

     total cpu time spent up to now is    17683.7 secs

     total energy              =    -703.74125472 Ry
     Harris-Foulkes estimate   =    -703.74256718 Ry
     estimated scf accuracy    <       0.01234975 Ry

     iteration # 16     ecut=    50.00 Ry     beta= 0.60
     Davidson diagonalization with overlap
     ethr =  1.65E-05,  avg # of iterations =  6.7

     total cpu time spent up to now is    17728.0 secs

     total energy              =    -703.74399565 Ry
     Harris-Foulkes estimate   =    -703.74415607 Ry
     estimated scf accuracy    <       0.00292691 Ry

     iteration # 17     ecut=    50.00 Ry     beta= 0.60
     Davidson diagonalization with overlap
     ethr =  3.90E-06,  avg # of iterations =  2.2

     total cpu time spent up to now is    17751.8 secs

     total energy              =    -703.74355551 Ry
     Harris-Foulkes estimate   =    -703.74403422 Ry
     estimated scf accuracy    <       0.00222504 Ry

     iteration # 18     ecut=    50.00 Ry     beta= 0.60
     Davidson diagonalization with overlap
     ethr =  2.97E-06,  avg # of iterations =  2.5

     total cpu time spent up to now is    17782.9 secs

     total energy              =    -703.74369081 Ry
     Harris-Foulkes estimate   =    -703.74372512 Ry
     estimated scf accuracy    <       0.00012827 Ry

     iteration # 19     ecut=    50.00 Ry     beta= 0.60
     Davidson diagonalization with overlap
     ethr =  1.71E-07,  avg # of iterations =  4.8

     total cpu time spent up to now is    17817.7 secs

     total energy              =    -703.74372638 Ry
     Harris-Foulkes estimate   =    -703.74375026 Ry
     estimated scf accuracy    <       0.00014556 Ry

     iteration # 20     ecut=    50.00 Ry     beta= 0.60
     Davidson diagonalization with overlap
     ethr =  1.71E-07,  avg # of iterations =  2.4

     total cpu time spent up to now is    17842.7 secs

     total energy              =    -703.74373629 Ry
     Harris-Foulkes estimate   =    -703.74374149 Ry
     estimated scf accuracy    <       0.00003939 Ry

     iteration # 21     ecut=    50.00 Ry     beta= 0.60
     Davidson diagonalization with overlap
     ethr =  5.25E-08,  avg # of iterations =  3.9

     total cpu time spent up to now is    17874.5 secs

     total energy              =    -703.74374107 Ry
     Harris-Foulkes estimate   =    -703.74374800 Ry
     estimated scf accuracy    <       0.00009716 Ry

     iteration # 22     ecut=    50.00 Ry     beta= 0.60
     Davidson diagonalization with overlap
     ethr =  5.25E-08,  avg # of iterations =  1.0

     total cpu time spent up to now is    17896.9 secs

     total energy              =    -703.74373663 Ry
     Harris-Foulkes estimate   =    -703.74374208 Ry
     estimated scf accuracy    <       0.00004529 Ry

     iteration # 23     ecut=    50.00 Ry     beta= 0.60
     Davidson diagonalization with overlap
     ethr =  5.25E-08,  avg # of iterations =  2.5

     total cpu time spent up to now is    17921.4 secs

     total energy              =    -703.74373898 Ry
     Harris-Foulkes estimate   =    -703.74373924 Ry
     estimated scf accuracy    <       0.00000244 Ry

     iteration # 24     ecut=    50.00 Ry     beta= 0.60
     Davidson diagonalization with overlap
     ethr =  3.26E-09,  avg # of iterations =  4.2

     total cpu time spent up to now is    17953.8 secs

     total energy              =    -703.74373954 Ry
     Harris-Foulkes estimate   =    -703.74373955 Ry
     estimated scf accuracy    <       0.00000003 Ry

     iteration # 25     ecut=    50.00 Ry     beta= 0.60
     Davidson diagonalization with overlap
     ethr =  3.97E-11,  avg # of iterations =  5.2

     total cpu time spent up to now is    17992.4 secs

     total energy              =    -703.74373956 Ry
     Harris-Foulkes estimate   =    -703.74373957 Ry
     estimated scf accuracy    <       0.00000005 Ry

     iteration # 26     ecut=    50.00 Ry     beta= 0.60
     Davidson diagonalization with overlap
     ethr =  3.97E-11,  avg # of iterations =  1.8

     total cpu time spent up to now is    18015.6 secs

     total energy              =    -703.74373956 Ry
     Harris-Foulkes estimate   =    -703.74373956 Ry
     estimated scf accuracy    <          5.1E-09 Ry

     iteration # 27     ecut=    50.00 Ry     beta= 0.60
     Davidson diagonalization with overlap
     ethr =  6.84E-12,  avg # of iterations =  4.1

     total cpu time spent up to now is    18048.8 secs

     total energy              =    -703.74373956 Ry
     Harris-Foulkes estimate   =    -703.74373956 Ry
     estimated scf accuracy    <          5.1E-09 Ry

     iteration # 28     ecut=    50.00 Ry     beta= 0.60
     Davidson diagonalization with overlap
     ethr =  6.79E-12,  avg # of iterations =  1.0

     total cpu time spent up to now is    18070.5 secs

     total energy              =    -703.74373956 Ry
     Harris-Foulkes estimate   =    -703.74373956 Ry
     estimated scf accuracy    <          8.6E-10 Ry

     iteration # 29     ecut=    50.00 Ry     beta= 0.60
     Davidson diagonalization with overlap
     ethr =  1.15E-12,  avg # of iterations =  3.8

     total cpu time spent up to now is    18103.7 secs

     total energy              =    -703.74373956 Ry
     Harris-Foulkes estimate   =    -703.74373956 Ry
     estimated scf accuracy    <          7.4E-11 Ry

     iteration # 30     ecut=    50.00 Ry     beta= 0.60
     Davidson diagonalization with overlap
     ethr =  1.00E-13,  avg # of iterations =  2.3

     total cpu time spent up to now is    18131.2 secs

     total energy              =    -703.74373956 Ry
     Harris-Foulkes estimate   =    -703.74373956 Ry
     estimated scf accuracy    <          9.9E-12 Ry

     iteration # 31     ecut=    50.00 Ry     beta= 0.60
     Davidson diagonalization with overlap
     ethr =  1.00E-13,  avg # of iterations =  1.9

     total cpu time spent up to now is    18154.7 secs

     End of self-consistent calculation

     Number of k-points >= 100: set verbosity='high' to print the bands.

     the Fermi energy is    15.7024 ev

!    total energy              =    -703.74373956 Ry
     Harris-Foulkes estimate   =    -703.74373956 Ry
     estimated scf accuracy    <          5.7E-13 Ry

     The total energy is the sum of the following terms:

     one-electron contribution =    -171.35574619 Ry
     hartree contribution      =     117.85751102 Ry
     xc contribution           =     -98.94339679 Ry
     ewald contribution        =    -551.29993041 Ry
     smearing contrib. (-TS)   =      -0.00217719 Ry

     convergence has been achieved in  31 iterations

     Forces acting on atoms (cartesian axes, Ry/au):

     atom    1 type  2   force =     0.00001372    0.00000000    0.00000000
     atom    2 type  2   force =     0.00000000    0.00000000    0.00000000
     atom    3 type  2   force =    -0.00001372    0.00000000    0.00000000
     atom    4 type  1   force =     0.00000233    0.00000000    0.00000000
     atom    5 type  1   force =    -0.00000233    0.00000000    0.00000000
     atom    6 type  1   force =     0.00000000    0.00000000    0.00000000

     Total force =     0.000020     Total SCF correction =     0.000001


     Computing stress (Cartesian axis) and pressure

          total   stress  (Ry/bohr**3)                   (kbar)     P=   -0.85
  -0.00000559  -0.00000000  -0.00000000         -0.82     -0.00     -0.00
  -0.00000000  -0.00000588   0.00000027         -0.00     -0.86      0.04
  -0.00000000   0.00000027  -0.00000588         -0.00      0.04     -0.86

 
     init_run     :     31.63s CPU     32.52s WALL (       2 calls)
     electrons    :  16854.90s CPU  17734.25s WALL (      21 calls)
     update_pot   :     34.31s CPU     36.67s WALL (      19 calls)
     forces       :     81.43s CPU     84.02s WALL (      21 calls)
     stress       :    239.87s CPU    247.56s WALL (      21 calls)

     Called by init_run:
     wfcinit      :     29.10s CPU     29.69s WALL (       2 calls)
     potinit      :      0.74s CPU      0.79s WALL (       2 calls)
     hinit0       :      1.42s CPU      1.44s WALL (       2 calls)

     Called by electrons:
     c_bands      :  14320.77s CPU  14927.20s WALL (     447 calls)
     sum_band     :   2422.60s CPU   2500.78s WALL (     447 calls)
     v_of_rho     :     23.56s CPU     23.81s WALL (     461 calls)
     newd         :     88.05s CPU    140.27s WALL (     461 calls)
     mix_rho      :      3.04s CPU      3.06s WALL (     447 calls)

     Called by c_bands:
     init_us_2    :    182.31s CPU    185.48s WALL (  236376 calls)
     cegterg      :  13169.05s CPU  13320.78s WALL (  112644 calls)

     Called by sum_band:
     sum_band:bec :      4.14s CPU      4.23s WALL (  112644 calls)
     addusdens    :    110.22s CPU    157.40s WALL (     447 calls)

     Called by *egterg:
     h_psi        :   9574.51s CPU   9712.47s WALL (  456255 calls)
     s_psi        :    411.35s CPU    414.09s WALL (  456255 calls)
     g_psi        :     71.58s CPU     71.95s WALL (  343107 calls)
     cdiaghg      :   1601.52s CPU   1603.47s WALL (  449199 calls)

     Called by h_psi:
     h_psi:pot    :   9543.52s CPU   9681.22s WALL (  456255 calls)
     h_psi:calbec :    448.13s CPU    451.67s WALL (  456255 calls)
     vloc_psi     :   8674.88s CPU   8810.82s WALL (  456255 calls)
     add_vuspsi   :    418.82s CPU    416.55s WALL (  456255 calls)

     General routines
     calbec       :    657.99s CPU    661.89s WALL (  595359 calls)
     fft          :     15.49s CPU     15.70s WALL (    6523 calls)
     ffts         :      0.56s CPU      0.55s WALL (     908 calls)
     fftw         :   9488.61s CPU   9637.86s WALL (31285248 calls)
     interpolate  :      1.40s CPU      1.41s WALL (     461 calls)
 
     Parallel routines
     fft_scatt_xy :   1802.64s CPU   1838.05s WALL (31292679 calls)
     fft_scatt_yz :   1832.87s CPU   1847.82s WALL (31292679 calls)
 
     PWSCF        :     4h47m CPU       47h 5m WALL

       2h
 
   This run was terminated on:  18:15:28  24Feb2020            

=------------------------------------------------------------------------------=
   JOB DONE.
=------------------------------------------------------------------------------=
