
     Program PWSCF v.6.3MaX starts on 22Jan2020 at 10:23:55 

     This program is part of the open-source Quantum ESPRESSO suite
     for quantum simulation of materials; please cite
         "P. Giannozzi et al., J. Phys.:Condens. Matter 21 395502 (2009);
         "P. Giannozzi et al., J. Phys.:Condens. Matter 29 465901 (2017);
          URL http://www.quantum-espresso.org", 
     in publications or presentations arising from this work. More details at
     http://www.quantum-espresso.org/quote

     Parallel version (MPI), running on    12 processors

     MPI processes distributed on     2 nodes
     R & G space division:  proc/nbgrp/npool/nimage =      12
     Waiting for input...
     Reading input from standard input

     Current dimensions of program PWSCF are:
     Max number of different atomic species (ntypx) = 10
     Max number of k-points (npk) =  40000
     Max angular momentum in pseudopotentials (lmaxx) =  3
     Message from routine iosys:
     minimal I/O required, wf_collect reset to FALSE

     Subspace diagonalization in iterative solution of the eigenvalue problem:
     a serial algorithm will be used

 
     Parallelization info
     --------------------
     sticks:   dense  smooth     PW     G-vecs:    dense   smooth      PW
     Min         311     123     43                 6936     1743     369
     Max         312     124     44                 6937     1744     372
     Sum        3735    1485    527                83235    20921    4443
 


     bravais-lattice index     =            0
     lattice parameter (alat)  =       1.8897  a.u.
     unit-cell volume          =     440.0051 (a.u.)^3
     number of atoms/cell      =            3
     number of atomic types    =            2
     number of electrons       =        37.00
     number of Kohn-Sham states=           23
     kinetic-energy cutoff     =      50.0000  Ry
     charge density cutoff     =     500.0000  Ry
     convergence threshold     =      1.0E-10
     mixing beta               =       0.6000
     number of iterations used =            8  plain     mixing
     Exchange-correlation      = SLA PW PBE PBE ( 1  4  3  4 0 0)
     nstep                     =           50


     celldm(1)=   1.889726  celldm(2)=   0.000000  celldm(3)=   0.000000
     celldm(4)=   0.000000  celldm(5)=   0.000000  celldm(6)=   0.000000

     crystal axes: (cart. coord. in units of alat)
               a(1) = (  -1.758031   5.274095  -1.758031 )  
               a(2) = (   1.758031   5.274095   1.758031 )  
               a(3) = (   1.758031  -5.274095  -1.758031 )  

     reciprocal axes: (cart. coord. in units 2 pi/alat)
               b(1) = (  0.000000  0.094803 -0.284409 )  
               b(2) = (  0.284409  0.094803  0.000000 )  
               b(3) = (  0.284409  0.000000 -0.284409 )  


     PseudoPot. # 1 for Nb read from file:
     /home/u16/abhishekkt/fp/krishna/calculations/pseudopotentials/Nb.pbe-nsp-van.UPF
     MD5 check sum: c44c1a86bf31974e1e832c2ec821fd5f
     Pseudo is Ultrasoft + core correction, Zval = 13.0
     Generated by new atomic code, or converted to UPF format
     Using radial grid of  887 points,  6 beta functions with: 
                l(1) =   0
                l(2) =   0
                l(3) =   1
                l(4) =   1
                l(5) =   2
                l(6) =   2
     Q(r) pseudized with  6 coefficients,  rinner =    1.000   1.000   1.000
                                                       1.000   1.000

     PseudoPot. # 2 for Ti read from file:
     /home/u16/abhishekkt/fp/krishna/calculations/pseudopotentials/Ti.pbe-sp-van_ak.UPF
     MD5 check sum: 84d3ec9e8983e94242673103c800fb48
     Pseudo is Ultrasoft, Zval = 12.0
     Generated by new atomic code, or converted to UPF format
     Using radial grid of  851 points,  6 beta functions with: 
                l(1) =   0
                l(2) =   0
                l(3) =   1
                l(4) =   1
                l(5) =   2
                l(6) =   2
     Q(r) pseudized with  8 coefficients,  rinner =    1.000   1.000   1.000
                                                       1.000   1.000

     atomic species   valence    mass     pseudopotential
        Nb            13.00    92.90638     Nb( 1.00)
        Ti            12.00    47.86700     Ti( 1.00)

      8 Sym. Ops. (no inversion) found
          (note:  8 additional sym.ops. were found but ignored
           their fractional translations are incommensurate with FFT grid)


   Cartesian axes

     site n.     atom                  positions (alat units)
         1           Ti  tau(   1) = (   1.7580316   1.7580316  -1.7580316  )
         2           Ti  tau(   2) = (   1.7580316   5.2740949  -1.7580316  )
         3           Nb  tau(   3) = (   1.7580316  -1.7580316  -1.7580316  )

     number of k points=   244  Marzari-Vanderbilt smearing, width (Ry)=  0.0200

     Number of k-points >= 100: set verbosity='high' to print them.

     Dense  grid:    83235 G-vectors     FFT dimensions: (  80,  80,  80)

     Smooth grid:    20921 G-vectors     FFT dimensions: (  50,  50,  50)

     Estimated max dynamical RAM per process >      48.50 MB

     Estimated total dynamical RAM >     581.96 MB

     Initial potential from superposition of free atoms

     starting charge   34.99718, renormalised to   37.00000
     Starting wfcs are   33 randomized atomic wfcs

     total cpu time spent up to now is       23.4 secs

     Self-consistent Calculation

     iteration #  1     ecut=    50.00 Ry     beta= 0.60
     Davidson diagonalization with overlap
     ethr =  1.00E-02,  avg # of iterations =  3.5

     total cpu time spent up to now is       74.1 secs

     total energy              =    -348.04778266 Ry
     Harris-Foulkes estimate   =    -352.24390873 Ry
     estimated scf accuracy    <       5.38823938 Ry

     iteration #  2     ecut=    50.00 Ry     beta= 0.60
     Davidson diagonalization with overlap
     ethr =  1.00E-02,  avg # of iterations =  5.2

     total cpu time spent up to now is      137.8 secs

     total energy              =    -348.64607356 Ry
     Harris-Foulkes estimate   =    -358.31965103 Ry
     estimated scf accuracy    <      32.59118558 Ry

     iteration #  3     ecut=    50.00 Ry     beta= 0.60
     Davidson diagonalization with overlap
     ethr =  1.00E-02,  avg # of iterations =  4.5

     total cpu time spent up to now is      188.7 secs

     total energy              =    -351.14630672 Ry
     Harris-Foulkes estimate   =    -351.21631501 Ry
     estimated scf accuracy    <       0.56612330 Ry

     iteration #  4     ecut=    50.00 Ry     beta= 0.60
     Davidson diagonalization with overlap
     ethr =  1.53E-03,  avg # of iterations =  5.0

     total cpu time spent up to now is      230.5 secs

     total energy              =    -351.15969828 Ry
     Harris-Foulkes estimate   =    -351.19865763 Ry
     estimated scf accuracy    <       0.22712198 Ry

     iteration #  5     ecut=    50.00 Ry     beta= 0.60
     Davidson diagonalization with overlap
     ethr =  6.14E-04,  avg # of iterations =  3.4

     total cpu time spent up to now is      269.7 secs

     total energy              =    -351.16106093 Ry
     Harris-Foulkes estimate   =    -351.18606591 Ry
     estimated scf accuracy    <       0.31696849 Ry

     iteration #  6     ecut=    50.00 Ry     beta= 0.60
     Davidson diagonalization with overlap
     ethr =  6.14E-04,  avg # of iterations =  1.2

     total cpu time spent up to now is      303.7 secs

     total energy              =    -351.14597745 Ry
     Harris-Foulkes estimate   =    -351.16579464 Ry
     estimated scf accuracy    <       0.15074267 Ry

     iteration #  7     ecut=    50.00 Ry     beta= 0.60
     Davidson diagonalization with overlap
     ethr =  4.07E-04,  avg # of iterations =  1.9

     total cpu time spent up to now is      338.7 secs

     total energy              =    -351.15099961 Ry
     Harris-Foulkes estimate   =    -351.15313385 Ry
     estimated scf accuracy    <       0.03360620 Ry

     iteration #  8     ecut=    50.00 Ry     beta= 0.60
     Davidson diagonalization with overlap
     ethr =  9.08E-05,  avg # of iterations =  6.2

     total cpu time spent up to now is      385.9 secs

     total energy              =    -351.15562516 Ry
     Harris-Foulkes estimate   =    -351.15558666 Ry
     estimated scf accuracy    <       0.00841861 Ry

     iteration #  9     ecut=    50.00 Ry     beta= 0.60
     Davidson diagonalization with overlap
     ethr =  2.28E-05,  avg # of iterations =  3.6

     total cpu time spent up to now is      423.7 secs

     total energy              =    -351.15454359 Ry
     Harris-Foulkes estimate   =    -351.15611342 Ry
     estimated scf accuracy    <       0.00906726 Ry

     iteration # 10     ecut=    50.00 Ry     beta= 0.60
     Davidson diagonalization with overlap
     ethr =  2.28E-05,  avg # of iterations =  1.1

     total cpu time spent up to now is      457.6 secs

     total energy              =    -351.15474156 Ry
     Harris-Foulkes estimate   =    -351.15497701 Ry
     estimated scf accuracy    <       0.00126588 Ry

     iteration # 11     ecut=    50.00 Ry     beta= 0.60
     Davidson diagonalization with overlap
     ethr =  3.42E-06,  avg # of iterations =  6.6

     total cpu time spent up to now is      510.3 secs

     total energy              =    -351.15505785 Ry
     Harris-Foulkes estimate   =    -351.15510704 Ry
     estimated scf accuracy    <       0.00043195 Ry

     iteration # 12     ecut=    50.00 Ry     beta= 0.60
     Davidson diagonalization with overlap
     c_bands:  1 eigenvalues not converged
     ethr =  1.17E-06,  avg # of iterations =  1.2

     total cpu time spent up to now is      544.3 secs

     total energy              =    -351.15505497 Ry
     Harris-Foulkes estimate   =    -351.15507341 Ry
     estimated scf accuracy    <       0.00014050 Ry

     iteration # 13     ecut=    50.00 Ry     beta= 0.60
     Davidson diagonalization with overlap
     ethr =  3.80E-07,  avg # of iterations =  3.6

     total cpu time spent up to now is      586.1 secs

     total energy              =    -351.15507531 Ry
     Harris-Foulkes estimate   =    -351.15507564 Ry
     estimated scf accuracy    <       0.00000985 Ry

     iteration # 14     ecut=    50.00 Ry     beta= 0.60
     Davidson diagonalization with overlap
     ethr =  2.66E-08,  avg # of iterations =  4.2

     total cpu time spent up to now is      628.1 secs

     total energy              =    -351.15507418 Ry
     Harris-Foulkes estimate   =    -351.15507688 Ry
     estimated scf accuracy    <       0.00001571 Ry

     iteration # 15     ecut=    50.00 Ry     beta= 0.60
     Davidson diagonalization with overlap
     ethr =  2.66E-08,  avg # of iterations =  3.4

     total cpu time spent up to now is      666.7 secs

     total energy              =    -351.15507543 Ry
     Harris-Foulkes estimate   =    -351.15507548 Ry
     estimated scf accuracy    <       0.00000016 Ry

     iteration # 16     ecut=    50.00 Ry     beta= 0.60
     Davidson diagonalization with overlap
     ethr =  4.44E-10,  avg # of iterations =  5.8

     total cpu time spent up to now is      723.4 secs

     total energy              =    -351.15507563 Ry
     Harris-Foulkes estimate   =    -351.15507569 Ry
     estimated scf accuracy    <       0.00000059 Ry

     iteration # 17     ecut=    50.00 Ry     beta= 0.60
     Davidson diagonalization with overlap
     ethr =  4.44E-10,  avg # of iterations =  1.2

     total cpu time spent up to now is      757.5 secs

     total energy              =    -351.15507562 Ry
     Harris-Foulkes estimate   =    -351.15507564 Ry
     estimated scf accuracy    <       0.00000017 Ry

     iteration # 18     ecut=    50.00 Ry     beta= 0.60
     Davidson diagonalization with overlap
     ethr =  4.44E-10,  avg # of iterations =  3.8

     total cpu time spent up to now is      800.8 secs

     total energy              =    -351.15507564 Ry
     Harris-Foulkes estimate   =    -351.15507565 Ry
     estimated scf accuracy    <       0.00000006 Ry

     iteration # 19     ecut=    50.00 Ry     beta= 0.60
     Davidson diagonalization with overlap
     ethr =  1.73E-10,  avg # of iterations =  1.1

     total cpu time spent up to now is      834.8 secs

     total energy              =    -351.15507564 Ry
     Harris-Foulkes estimate   =    -351.15507565 Ry
     estimated scf accuracy    <       0.00000002 Ry

     iteration # 20     ecut=    50.00 Ry     beta= 0.60
     Davidson diagonalization with overlap
     ethr =  5.57E-11,  avg # of iterations =  3.3

     total cpu time spent up to now is      874.3 secs

     total energy              =    -351.15507565 Ry
     Harris-Foulkes estimate   =    -351.15507565 Ry
     estimated scf accuracy    <          2.6E-10 Ry

     iteration # 21     ecut=    50.00 Ry     beta= 0.60
     Davidson diagonalization with overlap
     ethr =  7.01E-13,  avg # of iterations =  5.8

     total cpu time spent up to now is      928.2 secs

     total energy              =    -351.15507565 Ry
     Harris-Foulkes estimate   =    -351.15507565 Ry
     estimated scf accuracy    <          9.9E-10 Ry

     iteration # 22     ecut=    50.00 Ry     beta= 0.60
     Davidson diagonalization with overlap
     ethr =  7.01E-13,  avg # of iterations =  1.0

     total cpu time spent up to now is      961.9 secs

     total energy              =    -351.15507565 Ry
     Harris-Foulkes estimate   =    -351.15507565 Ry
     estimated scf accuracy    <          3.9E-10 Ry

     iteration # 23     ecut=    50.00 Ry     beta= 0.60
     Davidson diagonalization with overlap
     ethr =  7.01E-13,  avg # of iterations =  3.5

     total cpu time spent up to now is     1004.1 secs

     End of self-consistent calculation

     Number of k-points >= 100: set verbosity='high' to print the bands.

     the Fermi energy is    11.4479 ev

!    total energy              =    -351.15507565 Ry
     Harris-Foulkes estimate   =    -351.15507565 Ry
     estimated scf accuracy    <          4.8E-11 Ry

     The total energy is the sum of the following terms:

     one-electron contribution =    -126.34777408 Ry
     hartree contribution      =      72.30022492 Ry
     xc contribution           =     -46.99765101 Ry
     ewald contribution        =    -250.10861073 Ry
     smearing contrib. (-TS)   =      -0.00126475 Ry

     convergence has been achieved in  23 iterations

     Forces acting on atoms (cartesian axes, Ry/au):

     atom    1 type  2   force =     0.00000000    0.02429064    0.00000000
     atom    2 type  2   force =     0.00000000   -0.02428664    0.00000000
     atom    3 type  1   force =     0.00000000   -0.00000400    0.00000000

     Total force =     0.034349     Total SCF correction =     0.000013


     Computing stress (Cartesian axis) and pressure

          total   stress  (Ry/bohr**3)                   (kbar)     P= -190.06
  -0.00126702  -0.00000000  -0.00000000       -186.38     -0.00     -0.00
  -0.00000000  -0.00134191  -0.00000000         -0.00   -197.40     -0.00
   0.00000000   0.00000000  -0.00126702          0.00      0.00   -186.38


     BFGS Geometry Optimization

     number of scf cycles    =   1
     number of bfgs steps    =   0

     enthalpy new            =    -351.1550756461 Ry

     new trust radius        =       0.1407414895 bohr
     new conv_thr            =            1.0E-10 Ry

     new unit-cell volume =    398.73104 a.u.^3 (    59.08584 Ang^3 )
     density =      5.30152 g/cm^3

CELL_PARAMETERS (alat=  1.88972599)
  -1.702345146   5.097160538  -1.702345146
   1.702345146   5.097160538   1.702345146
   1.702345146  -5.097160538  -1.702345146

ATOMIC_POSITIONS (angstrom)
Ti       1.702345146   1.711476342  -1.702345146
Ti       1.702345146   5.084739753  -1.702345146
Nb       1.702345146  -1.699055557  -1.702345146


     NEW-OLD atomic charge density approx. for the potential
     extrapolated charge   33.37732, renormalised to   37.00000

     total cpu time spent up to now is     1007.4 secs

     Self-consistent Calculation

     iteration #  1     ecut=    50.00 Ry     beta= 0.60
     Davidson diagonalization with overlap
     c_bands:  1 eigenvalues not converged
     c_bands:  1 eigenvalues not converged
     c_bands:  1 eigenvalues not converged
     c_bands:  1 eigenvalues not converged
     c_bands:  1 eigenvalues not converged
     c_bands:  1 eigenvalues not converged
     c_bands:  1 eigenvalues not converged
     c_bands:  1 eigenvalues not converged
     c_bands:  1 eigenvalues not converged
     ethr =  1.00E-06,  avg # of iterations = 14.7

     total cpu time spent up to now is     1133.3 secs

     total energy              =    -339.92632488 Ry
     Harris-Foulkes estimate   =    -360.14899212 Ry
     estimated scf accuracy    <      12.16970880 Ry

     iteration #  2     ecut=    50.00 Ry     beta= 0.60
     Davidson diagonalization with overlap
     ethr =  1.00E-02,  avg # of iterations =  5.5

     total cpu time spent up to now is     1201.3 secs

     total energy              =    -350.57995138 Ry
     Harris-Foulkes estimate   =    -366.72298364 Ry
     estimated scf accuracy    <      48.80494352 Ry

     iteration #  3     ecut=    50.00 Ry     beta= 0.60
     Davidson diagonalization with overlap
     ethr =  1.00E-02,  avg # of iterations =  3.8

     total cpu time spent up to now is     1253.8 secs

     total energy              =    -351.94941406 Ry
     Harris-Foulkes estimate   =    -353.71994225 Ry
     estimated scf accuracy    <       8.14132930 Ry

     iteration #  4     ecut=    50.00 Ry     beta= 0.60
     Davidson diagonalization with overlap
     ethr =  1.00E-02,  avg # of iterations =  1.3

     total cpu time spent up to now is     1287.8 secs

     total energy              =    -351.33474821 Ry
     Harris-Foulkes estimate   =    -352.08009515 Ry
     estimated scf accuracy    <       5.25101331 Ry

     iteration #  5     ecut=    50.00 Ry     beta= 0.60
     Davidson diagonalization with overlap
     ethr =  1.00E-02,  avg # of iterations =  1.7

     total cpu time spent up to now is     1322.4 secs

     total energy              =    -351.78266223 Ry
     Harris-Foulkes estimate   =    -351.50001574 Ry
     estimated scf accuracy    <       1.88557551 Ry

     iteration #  6     ecut=    50.00 Ry     beta= 0.60
     Davidson diagonalization with overlap
     ethr =  5.10E-03,  avg # of iterations =  1.0

     total cpu time spent up to now is     1356.9 secs

     total energy              =    -351.42646528 Ry
     Harris-Foulkes estimate   =    -351.88050042 Ry
     estimated scf accuracy    <       4.26355619 Ry

     iteration #  7     ecut=    50.00 Ry     beta= 0.60
     Davidson diagonalization with overlap
     ethr =  5.10E-03,  avg # of iterations =  1.1

     total cpu time spent up to now is     1392.5 secs

     total energy              =    -351.27862437 Ry
     Harris-Foulkes estimate   =    -351.46999718 Ry
     estimated scf accuracy    <       2.26143419 Ry

     iteration #  8     ecut=    50.00 Ry     beta= 0.60
     Davidson diagonalization with overlap
     ethr =  5.10E-03,  avg # of iterations =  1.0

     total cpu time spent up to now is     1428.0 secs

     total energy              =    -351.22914798 Ry
     Harris-Foulkes estimate   =    -351.30647976 Ry
     estimated scf accuracy    <       1.29183197 Ry

     iteration #  9     ecut=    50.00 Ry     beta= 0.60
     Davidson diagonalization with overlap
     ethr =  3.49E-03,  avg # of iterations =  1.2

     total cpu time spent up to now is     1463.7 secs

     total energy              =    -351.21306612 Ry
     Harris-Foulkes estimate   =    -351.24592862 Ry
     estimated scf accuracy    <       0.80781800 Ry

     iteration # 10     ecut=    50.00 Ry     beta= 0.60
     Davidson diagonalization with overlap
     ethr =  2.18E-03,  avg # of iterations =  2.2

     total cpu time spent up to now is     1501.0 secs

     total energy              =    -351.02987225 Ry
     Harris-Foulkes estimate   =    -351.23151815 Ry
     estimated scf accuracy    <       0.47481403 Ry

     iteration # 11     ecut=    50.00 Ry     beta= 0.60
     Davidson diagonalization with overlap
     ethr =  1.28E-03,  avg # of iterations =  5.4

     total cpu time spent up to now is     1557.1 secs

     total energy              =    -351.21730020 Ry
     Harris-Foulkes estimate   =    -351.29789372 Ry
     estimated scf accuracy    <       1.08472857 Ry

     iteration # 12     ecut=    50.00 Ry     beta= 0.60
     Davidson diagonalization with overlap
     ethr =  1.28E-03,  avg # of iterations =  1.1

     total cpu time spent up to now is     1592.8 secs

     total energy              =    -351.23489373 Ry
     Harris-Foulkes estimate   =    -351.22710707 Ry
     estimated scf accuracy    <       0.63363489 Ry

     iteration # 13     ecut=    50.00 Ry     beta= 0.60
     Davidson diagonalization with overlap
     ethr =  1.28E-03,  avg # of iterations =  1.0

     total cpu time spent up to now is     1628.3 secs

     total energy              =    -351.20681245 Ry
     Harris-Foulkes estimate   =    -351.23679961 Ry
     estimated scf accuracy    <       0.66241261 Ry

     iteration # 14     ecut=    50.00 Ry     beta= 0.60
     Davidson diagonalization with overlap
     ethr =  1.28E-03,  avg # of iterations =  1.0

     total cpu time spent up to now is     1663.8 secs

     total energy              =    -351.21795731 Ry
     Harris-Foulkes estimate   =    -351.21129455 Ry
     estimated scf accuracy    <       0.46026703 Ry

     iteration # 15     ecut=    50.00 Ry     beta= 0.60
     Davidson diagonalization with overlap
     ethr =  1.24E-03,  avg # of iterations =  1.0

     total cpu time spent up to now is     1699.3 secs

     total energy              =    -351.30640139 Ry
     Harris-Foulkes estimate   =    -351.22048855 Ry
     estimated scf accuracy    <       0.46644534 Ry

     iteration # 16     ecut=    50.00 Ry     beta= 0.60
     Davidson diagonalization with overlap
     ethr =  1.24E-03,  avg # of iterations =  1.0

     total cpu time spent up to now is     1734.9 secs

     total energy              =    -351.24260596 Ry
     Harris-Foulkes estimate   =    -351.32321720 Ry
     estimated scf accuracy    <       1.00862676 Ry

     iteration # 17     ecut=    50.00 Ry     beta= 0.60
     Davidson diagonalization with overlap
     ethr =  1.24E-03,  avg # of iterations =  1.0

     total cpu time spent up to now is     1770.4 secs

     total energy              =    -351.20106657 Ry
     Harris-Foulkes estimate   =    -351.25237573 Ry
     estimated scf accuracy    <       0.64881132 Ry

     iteration # 18     ecut=    50.00 Ry     beta= 0.60
     Davidson diagonalization with overlap
     ethr =  1.24E-03,  avg # of iterations =  1.0

     total cpu time spent up to now is     1806.0 secs

     total energy              =    -351.17495757 Ry
     Harris-Foulkes estimate   =    -351.21071703 Ry
     estimated scf accuracy    <       0.39689401 Ry

     iteration # 19     ecut=    50.00 Ry     beta= 0.60
     Davidson diagonalization with overlap
     ethr =  1.07E-03,  avg # of iterations =  2.2

     total cpu time spent up to now is     1843.5 secs

     total energy              =    -351.17077473 Ry
     Harris-Foulkes estimate   =    -351.19042848 Ry
     estimated scf accuracy    <       0.10805438 Ry

     iteration # 20     ecut=    50.00 Ry     beta= 0.60
     Davidson diagonalization with overlap
     ethr =  2.92E-04,  avg # of iterations =  4.9

     total cpu time spent up to now is     1894.2 secs

     total energy              =    -351.19751587 Ry
     Harris-Foulkes estimate   =    -351.20859991 Ry
     estimated scf accuracy    <       0.09254170 Ry

     iteration # 21     ecut=    50.00 Ry     beta= 0.60
     Davidson diagonalization with overlap
     ethr =  2.50E-04,  avg # of iterations =  1.1

     total cpu time spent up to now is     1929.9 secs

     total energy              =    -351.19865776 Ry
     Harris-Foulkes estimate   =    -351.20110065 Ry
     estimated scf accuracy    <       0.01589358 Ry

     iteration # 22     ecut=    50.00 Ry     beta= 0.60
     Davidson diagonalization with overlap
     ethr =  4.30E-05,  avg # of iterations =  5.0

     total cpu time spent up to now is     1978.7 secs

     total energy              =    -351.20198549 Ry
     Harris-Foulkes estimate   =    -351.20164856 Ry
     estimated scf accuracy    <       0.00145329 Ry

     iteration # 23     ecut=    50.00 Ry     beta= 0.60
     Davidson diagonalization with overlap
     ethr =  3.93E-06,  avg # of iterations =  6.2

     total cpu time spent up to now is     2033.1 secs

     total energy              =    -351.20143099 Ry
     Harris-Foulkes estimate   =    -351.20233983 Ry
     estimated scf accuracy    <       0.00886410 Ry

     iteration # 24     ecut=    50.00 Ry     beta= 0.60
     Davidson diagonalization with overlap
     ethr =  3.93E-06,  avg # of iterations =  3.2

     total cpu time spent up to now is     2073.4 secs

     total energy              =    -351.20149328 Ry
     Harris-Foulkes estimate   =    -351.20163335 Ry
     estimated scf accuracy    <       0.00217089 Ry

     iteration # 25     ecut=    50.00 Ry     beta= 0.60
     Davidson diagonalization with overlap
     ethr =  3.93E-06,  avg # of iterations =  2.5

     total cpu time spent up to now is     2111.5 secs

     total energy              =    -351.20144036 Ry
     Harris-Foulkes estimate   =    -351.20155912 Ry
     estimated scf accuracy    <       0.00084312 Ry

     iteration # 26     ecut=    50.00 Ry     beta= 0.60
     Davidson diagonalization with overlap
     ethr =  2.28E-06,  avg # of iterations =  4.1

     total cpu time spent up to now is     2156.3 secs

     total energy              =    -351.20155335 Ry
     Harris-Foulkes estimate   =    -351.20154961 Ry
     estimated scf accuracy    <       0.00000872 Ry

     iteration # 27     ecut=    50.00 Ry     beta= 0.60
     Davidson diagonalization with overlap
     ethr =  2.36E-08,  avg # of iterations =  5.5

     total cpu time spent up to now is     2217.3 secs

     total energy              =    -351.20155848 Ry
     Harris-Foulkes estimate   =    -351.20158172 Ry
     estimated scf accuracy    <       0.00029057 Ry

     iteration # 28     ecut=    50.00 Ry     beta= 0.60
     Davidson diagonalization with overlap
     ethr =  2.36E-08,  avg # of iterations =  4.2

     total cpu time spent up to now is     2266.6 secs

     total energy              =    -351.20155270 Ry
     Harris-Foulkes estimate   =    -351.20156343 Ry
     estimated scf accuracy    <       0.00008286 Ry

     iteration # 29     ecut=    50.00 Ry     beta= 0.60
     Davidson diagonalization with overlap
     ethr =  2.36E-08,  avg # of iterations =  4.1

     total cpu time spent up to now is     2315.6 secs

     total energy              =    -351.20155586 Ry
     Harris-Foulkes estimate   =    -351.20155673 Ry
     estimated scf accuracy    <       0.00000426 Ry

     iteration # 30     ecut=    50.00 Ry     beta= 0.60
     Davidson diagonalization with overlap
     ethr =  1.15E-08,  avg # of iterations =  2.9

     total cpu time spent up to now is     2354.5 secs

     total energy              =    -351.20155635 Ry
     Harris-Foulkes estimate   =    -351.20155638 Ry
     estimated scf accuracy    <       0.00000013 Ry

     iteration # 31     ecut=    50.00 Ry     beta= 0.60
     Davidson diagonalization with overlap
     ethr =  3.41E-10,  avg # of iterations =  4.9

     total cpu time spent up to now is     2408.9 secs

     total energy              =    -351.20155642 Ry
     Harris-Foulkes estimate   =    -351.20155651 Ry
     estimated scf accuracy    <       0.00000051 Ry

     iteration # 32     ecut=    50.00 Ry     beta= 0.60
     Davidson diagonalization with overlap
     ethr =  3.41E-10,  avg # of iterations =  4.0

     total cpu time spent up to now is     2457.1 secs

     total energy              =    -351.20155647 Ry
     Harris-Foulkes estimate   =    -351.20155647 Ry
     estimated scf accuracy    <       0.00000002 Ry

     iteration # 33     ecut=    50.00 Ry     beta= 0.60
     Davidson diagonalization with overlap
     ethr =  4.06E-11,  avg # of iterations =  1.9

     total cpu time spent up to now is     2494.2 secs

     total energy              =    -351.20155647 Ry
     Harris-Foulkes estimate   =    -351.20155647 Ry
     estimated scf accuracy    <          4.3E-09 Ry

     iteration # 34     ecut=    50.00 Ry     beta= 0.60
     Davidson diagonalization with overlap
     ethr =  1.15E-11,  avg # of iterations =  3.8

     total cpu time spent up to now is     2539.2 secs

     End of self-consistent calculation

     Number of k-points >= 100: set verbosity='high' to print the bands.

     the Fermi energy is    12.9203 ev

!    total energy              =    -351.20155647 Ry
     Harris-Foulkes estimate   =    -351.20155647 Ry
     estimated scf accuracy    <          8.8E-11 Ry

     The total energy is the sum of the following terms:

     one-electron contribution =    -113.97329122 Ry
     hartree contribution      =      68.40128794 Ry
     xc contribution           =     -47.21417562 Ry
     ewald contribution        =    -258.41445356 Ry
     smearing contrib. (-TS)   =      -0.00092401 Ry

     convergence has been achieved in  34 iterations

     Forces acting on atoms (cartesian axes, Ry/au):

     atom    1 type  2   force =     0.00000000    0.02075042    0.00000000
     atom    2 type  2   force =     0.00000000   -0.02074868   -0.00000000
     atom    3 type  1   force =    -0.00000000   -0.00000174    0.00000000

     Total force =     0.029344     Total SCF correction =     0.000010


     Computing stress (Cartesian axis) and pressure

          total   stress  (Ry/bohr**3)                   (kbar)     P= -127.49
  -0.00083732  -0.00000000   0.00000000       -123.17     -0.00      0.00
   0.00000000  -0.00092525  -0.00000000          0.00   -136.11     -0.00
   0.00000000   0.00000000  -0.00083732          0.00      0.00   -123.17


     number of scf cycles    =   2
     number of bfgs steps    =   1

     enthalpy old            =    -351.1550756461 Ry
     enthalpy new            =    -351.2015564701 Ry

     CASE: enthalpy_new < enthalpy_old

     new trust radius        =       0.2079429323 bohr
     new conv_thr            =            1.0E-10 Ry

     new unit-cell volume =    343.31392 a.u.^3 (    50.87387 Ang^3 )
     density =      6.15728 g/cm^3

CELL_PARAMETERS (alat=  1.88972599)
  -1.622425636   4.831759594  -1.622425636
   1.622425636   4.831759594   1.622425636
   1.622425636  -4.831759594  -1.622425636

ATOMIC_POSITIONS (angstrom)
Ti       1.622425636   1.644899392  -1.622425636
Ti       1.622425636   4.797450569  -1.622425636
Nb       1.622425636  -1.610590367  -1.622425636


     NEW-OLD atomic charge density approx. for the potential
     extrapolated charge   31.35082, renormalised to   37.00000

     total cpu time spent up to now is     2542.7 secs

     Self-consistent Calculation

     iteration #  1     ecut=    50.00 Ry     beta= 0.60
     Davidson diagonalization with overlap
     c_bands:  1 eigenvalues not converged
     c_bands:  1 eigenvalues not converged
     c_bands:  1 eigenvalues not converged
     c_bands:  1 eigenvalues not converged
     ethr =  1.00E-06,  avg # of iterations = 15.2

     total cpu time spent up to now is     2682.9 secs

     total energy              =    -332.03262066 Ry
     Harris-Foulkes estimate   =    -363.86301921 Ry
     estimated scf accuracy    <      20.65859506 Ry

     iteration #  2     ecut=    50.00 Ry     beta= 0.60
     Davidson diagonalization with overlap
     ethr =  1.00E-02,  avg # of iterations =  5.8

     total cpu time spent up to now is     2757.0 secs

     total energy              =    -349.67683403 Ry
     Harris-Foulkes estimate   =    -373.70385732 Ry
     estimated scf accuracy    <      68.22584439 Ry

     iteration #  3     ecut=    50.00 Ry     beta= 0.60
     Davidson diagonalization with overlap
     ethr =  1.00E-02,  avg # of iterations =  3.9

     total cpu time spent up to now is     2814.6 secs

     total energy              =    -352.15721802 Ry
     Harris-Foulkes estimate   =    -354.73607592 Ry
     estimated scf accuracy    <      10.85864520 Ry

     iteration #  4     ecut=    50.00 Ry     beta= 0.60
     Davidson diagonalization with overlap
     ethr =  1.00E-02,  avg # of iterations =  1.2

     total cpu time spent up to now is     2849.3 secs

     total energy              =    -351.00343674 Ry
     Harris-Foulkes estimate   =    -352.34104676 Ry
     estimated scf accuracy    <       5.68064977 Ry

     iteration #  5     ecut=    50.00 Ry     beta= 0.60
     Davidson diagonalization with overlap
     ethr =  1.00E-02,  avg # of iterations =  2.5

     total cpu time spent up to now is     2888.8 secs

     total energy              =    -351.81454264 Ry
     Harris-Foulkes estimate   =    -351.44694379 Ry
     estimated scf accuracy    <       0.75379032 Ry

     iteration #  6     ecut=    50.00 Ry     beta= 0.60
     Davidson diagonalization with overlap
     ethr =  2.04E-03,  avg # of iterations =  3.8

     total cpu time spent up to now is     2933.2 secs

     total energy              =    -351.40284039 Ry
     Harris-Foulkes estimate   =    -352.14614449 Ry
     estimated scf accuracy    <       4.81223031 Ry

     iteration #  7     ecut=    50.00 Ry     beta= 0.60
     Davidson diagonalization with overlap
     ethr =  2.04E-03,  avg # of iterations =  2.4

     total cpu time spent up to now is     2969.5 secs

     total energy              =    -351.19193802 Ry
     Harris-Foulkes estimate   =    -351.48623516 Ry
     estimated scf accuracy    <       1.88020155 Ry

     iteration #  8     ecut=    50.00 Ry     beta= 0.60
     Davidson diagonalization with overlap
     ethr =  2.04E-03,  avg # of iterations =  3.1

     total cpu time spent up to now is     3009.9 secs

     total energy              =    -351.15017671 Ry
     Harris-Foulkes estimate   =    -351.28557398 Ry
     estimated scf accuracy    <       0.36940111 Ry

     iteration #  9     ecut=    50.00 Ry     beta= 0.60
     Davidson diagonalization with overlap
     ethr =  9.98E-04,  avg # of iterations =  4.5

     total cpu time spent up to now is     3055.9 secs

     total energy              =    -351.23078154 Ry
     Harris-Foulkes estimate   =    -351.22678846 Ry
     estimated scf accuracy    <       0.04610729 Ry

     iteration # 10     ecut=    50.00 Ry     beta= 0.60
     Davidson diagonalization with overlap
     ethr =  1.25E-04,  avg # of iterations =  5.9

     total cpu time spent up to now is     3101.0 secs

     total energy              =    -351.24641348 Ry
     Harris-Foulkes estimate   =    -351.23516570 Ry
     estimated scf accuracy    <       0.09822042 Ry

     iteration # 11     ecut=    50.00 Ry     beta= 0.60
     Davidson diagonalization with overlap
     ethr =  1.25E-04,  avg # of iterations =  3.8

     total cpu time spent up to now is     3142.6 secs

     total energy              =    -351.22307658 Ry
     Harris-Foulkes estimate   =    -351.25239774 Ry
     estimated scf accuracy    <       0.26171245 Ry

     iteration # 12     ecut=    50.00 Ry     beta= 0.60
     Davidson diagonalization with overlap
     ethr =  1.25E-04,  avg # of iterations =  3.2

     total cpu time spent up to now is     3181.5 secs

     total energy              =    -351.21624616 Ry
     Harris-Foulkes estimate   =    -351.22966262 Ry
     estimated scf accuracy    <       0.07056884 Ry

     iteration # 13     ecut=    50.00 Ry     beta= 0.60
     Davidson diagonalization with overlap
     ethr =  1.25E-04,  avg # of iterations =  4.1

     total cpu time spent up to now is     3226.7 secs

     total energy              =    -351.22752106 Ry
     Harris-Foulkes estimate   =    -351.22808264 Ry
     estimated scf accuracy    <       0.01200397 Ry

     iteration # 14     ecut=    50.00 Ry     beta= 0.60
     Davidson diagonalization with overlap
     ethr =  3.24E-05,  avg # of iterations =  3.3

     total cpu time spent up to now is     3265.0 secs

     total energy              =    -351.22791002 Ry
     Harris-Foulkes estimate   =    -351.22785165 Ry
     estimated scf accuracy    <       0.01016847 Ry

     iteration # 15     ecut=    50.00 Ry     beta= 0.60
     Davidson diagonalization with overlap
     ethr =  2.75E-05,  avg # of iterations =  1.0

     total cpu time spent up to now is     3299.4 secs

     total energy              =    -351.22648085 Ry
     Harris-Foulkes estimate   =    -351.22797715 Ry
     estimated scf accuracy    <       0.01042859 Ry

     iteration # 16     ecut=    50.00 Ry     beta= 0.60
     Davidson diagonalization with overlap
     ethr =  2.75E-05,  avg # of iterations =  1.0

     total cpu time spent up to now is     3333.8 secs

     total energy              =    -351.22325856 Ry
     Harris-Foulkes estimate   =    -351.22657460 Ry
     estimated scf accuracy    <       0.00680983 Ry

     iteration # 17     ecut=    50.00 Ry     beta= 0.60
     Davidson diagonalization with overlap
     ethr =  1.84E-05,  avg # of iterations =  3.8

     total cpu time spent up to now is     3378.4 secs

     total energy              =    -351.22458812 Ry
     Harris-Foulkes estimate   =    -351.22481658 Ry
     estimated scf accuracy    <       0.00198906 Ry

     iteration # 18     ecut=    50.00 Ry     beta= 0.60
     Davidson diagonalization with overlap
     c_bands:  1 eigenvalues not converged
     c_bands:  1 eigenvalues not converged
     c_bands:  1 eigenvalues not converged
     ethr =  5.38E-06,  avg # of iterations =  2.7

     total cpu time spent up to now is     3415.1 secs

     total energy              =    -351.22438198 Ry
     Harris-Foulkes estimate   =    -351.22468228 Ry
     estimated scf accuracy    <       0.00095552 Ry

     iteration # 19     ecut=    50.00 Ry     beta= 0.60
     Davidson diagonalization with overlap
     ethr =  2.58E-06,  avg # of iterations =  4.8

     total cpu time spent up to now is     3461.7 secs

     total energy              =    -351.22451636 Ry
     Harris-Foulkes estimate   =    -351.22464286 Ry
     estimated scf accuracy    <       0.00057600 Ry

     iteration # 20     ecut=    50.00 Ry     beta= 0.60
     Davidson diagonalization with overlap
     ethr =  1.56E-06,  avg # of iterations =  1.7

     total cpu time spent up to now is     3497.0 secs

     total energy              =    -351.22455623 Ry
     Harris-Foulkes estimate   =    -351.22456075 Ry
     estimated scf accuracy    <       0.00004414 Ry

     iteration # 21     ecut=    50.00 Ry     beta= 0.60
     Davidson diagonalization with overlap
     ethr =  1.19E-07,  avg # of iterations =  4.4

     total cpu time spent up to now is     3545.0 secs

     total energy              =    -351.22458333 Ry
     Harris-Foulkes estimate   =    -351.22458574 Ry
     estimated scf accuracy    <       0.00002954 Ry

     iteration # 22     ecut=    50.00 Ry     beta= 0.60
     Davidson diagonalization with overlap
     ethr =  7.98E-08,  avg # of iterations =  1.0

     total cpu time spent up to now is     3579.4 secs

     total energy              =    -351.22458251 Ry
     Harris-Foulkes estimate   =    -351.22458377 Ry
     estimated scf accuracy    <       0.00001530 Ry

     iteration # 23     ecut=    50.00 Ry     beta= 0.60
     Davidson diagonalization with overlap
     ethr =  4.14E-08,  avg # of iterations =  1.0

     total cpu time spent up to now is     3613.8 secs

     total energy              =    -351.22458180 Ry
     Harris-Foulkes estimate   =    -351.22458283 Ry
     estimated scf accuracy    <       0.00000683 Ry

     iteration # 24     ecut=    50.00 Ry     beta= 0.60
     Davidson diagonalization with overlap
     ethr =  1.84E-08,  avg # of iterations =  3.7

     total cpu time spent up to now is     3656.6 secs

     total energy              =    -351.22458283 Ry
     Harris-Foulkes estimate   =    -351.22458286 Ry
     estimated scf accuracy    <       0.00000014 Ry

     iteration # 25     ecut=    50.00 Ry     beta= 0.60
     Davidson diagonalization with overlap
     ethr =  3.81E-10,  avg # of iterations =  4.0

     total cpu time spent up to now is     3701.3 secs

     total energy              =    -351.22458286 Ry
     Harris-Foulkes estimate   =    -351.22458287 Ry
     estimated scf accuracy    <       0.00000006 Ry

     iteration # 26     ecut=    50.00 Ry     beta= 0.60
     Davidson diagonalization with overlap
     ethr =  1.70E-10,  avg # of iterations =  3.7

     total cpu time spent up to now is     3745.4 secs

     total energy              =    -351.22458287 Ry
     Harris-Foulkes estimate   =    -351.22458287 Ry
     estimated scf accuracy    <       0.00000003 Ry

     iteration # 27     ecut=    50.00 Ry     beta= 0.60
     Davidson diagonalization with overlap
     ethr =  9.34E-11,  avg # of iterations =  1.0

     total cpu time spent up to now is     3779.8 secs

     total energy              =    -351.22458287 Ry
     Harris-Foulkes estimate   =    -351.22458287 Ry
     estimated scf accuracy    <       0.00000002 Ry

     iteration # 28     ecut=    50.00 Ry     beta= 0.60
     Davidson diagonalization with overlap
     ethr =  4.86E-11,  avg # of iterations =  1.3

     total cpu time spent up to now is     3814.6 secs

     total energy              =    -351.22458287 Ry
     Harris-Foulkes estimate   =    -351.22458287 Ry
     estimated scf accuracy    <          8.2E-09 Ry

     iteration # 29     ecut=    50.00 Ry     beta= 0.60
     Davidson diagonalization with overlap
     ethr =  2.20E-11,  avg # of iterations =  3.7

     total cpu time spent up to now is     3857.7 secs

     total energy              =    -351.22458287 Ry
     Harris-Foulkes estimate   =    -351.22458287 Ry
     estimated scf accuracy    <          4.9E-10 Ry

     iteration # 30     ecut=    50.00 Ry     beta= 0.60
     Davidson diagonalization with overlap
     ethr =  1.34E-12,  avg # of iterations =  2.7

     total cpu time spent up to now is     3896.3 secs

     total energy              =    -351.22458287 Ry
     Harris-Foulkes estimate   =    -351.22458287 Ry
     estimated scf accuracy    <          2.3E-10 Ry

     iteration # 31     ecut=    50.00 Ry     beta= 0.60
     Davidson diagonalization with overlap
     ethr =  6.20E-13,  avg # of iterations =  3.2

     total cpu time spent up to now is     3937.6 secs

     End of self-consistent calculation

     Number of k-points >= 100: set verbosity='high' to print the bands.

     the Fermi energy is    15.4225 ev

!    total energy              =    -351.22458287 Ry
     Harris-Foulkes estimate   =    -351.22458287 Ry
     estimated scf accuracy    <          1.3E-11 Ry

     The total energy is the sum of the following terms:

     one-electron contribution =     -94.80937968 Ry
     hartree contribution      =      62.68577308 Ry
     xc contribution           =     -47.60149046 Ry
     ewald contribution        =    -271.49900721 Ry
     smearing contrib. (-TS)   =      -0.00047859 Ry

     convergence has been achieved in  31 iterations

     Forces acting on atoms (cartesian axes, Ry/au):

     atom    1 type  2   force =     0.00000000    0.00853192    0.00000000
     atom    2 type  2   force =     0.00000000   -0.00853471    0.00000000
     atom    3 type  1   force =    -0.00000000    0.00000279    0.00000000

     Total force =     0.012068     Total SCF correction =     0.000007


     Computing stress (Cartesian axis) and pressure

          total   stress  (Ry/bohr**3)                   (kbar)     P=   31.84
   0.00025543  -0.00000000   0.00000000         37.58     -0.00      0.00
   0.00000000   0.00013838  -0.00000000          0.00     20.36     -0.00
   0.00000000  -0.00000000   0.00025543          0.00     -0.00     37.58


     number of scf cycles    =   3
     number of bfgs steps    =   2

     enthalpy old            =    -351.2015564701 Ry
     enthalpy new            =    -351.2245828690 Ry

     CASE: enthalpy_new < enthalpy_old

     new trust radius        =       0.0344629971 bohr
     new conv_thr            =            1.0E-10 Ry

     new unit-cell volume =    352.39572 a.u.^3 (    52.21966 Ang^3 )
     density =      5.99860 g/cm^3

CELL_PARAMETERS (alat=  1.88972599)
  -1.637514000   4.868599873  -1.637514000
   1.637514000   4.868599873   1.637514000
   1.637514000  -4.868599873  -1.637514000

ATOMIC_POSITIONS (angstrom)
Ti       1.637514000   1.658558428  -1.637514000
Ti       1.637514000   4.832910726  -1.637514000
Nb       1.637514000  -1.622869281  -1.637514000


     NEW-OLD atomic charge density approx. for the potential
     extrapolated charge   37.90193, renormalised to   37.00000

     total cpu time spent up to now is     3940.8 secs

     Self-consistent Calculation

     iteration #  1     ecut=    50.00 Ry     beta= 0.60
     Davidson diagonalization with overlap
     ethr =  1.00E-06,  avg # of iterations = 11.4

     total cpu time spent up to now is     4036.6 secs

     total energy              =    -351.08855090 Ry
     Harris-Foulkes estimate   =    -349.52410808 Ry
     estimated scf accuracy    <       0.11353652 Ry

     iteration #  2     ecut=    50.00 Ry     beta= 0.60
     Davidson diagonalization with overlap
     ethr =  3.07E-04,  avg # of iterations =  5.2

     total cpu time spent up to now is     4105.6 secs

     total energy              =    -351.10510364 Ry
     Harris-Foulkes estimate   =    -351.39786236 Ry
     estimated scf accuracy    <       1.41083699 Ry

     iteration #  3     ecut=    50.00 Ry     beta= 0.60
     Davidson diagonalization with overlap
     ethr =  3.07E-04,  avg # of iterations =  4.5

     total cpu time spent up to now is     4159.9 secs

     total energy              =    -351.21061547 Ry
     Harris-Foulkes estimate   =    -351.26103305 Ry
     estimated scf accuracy    <       0.20591264 Ry

     iteration #  4     ecut=    50.00 Ry     beta= 0.60
     Davidson diagonalization with overlap
     ethr =  3.07E-04,  avg # of iterations =  3.0

     total cpu time spent up to now is     4200.0 secs

     total energy              =    -351.22836276 Ry
     Harris-Foulkes estimate   =    -351.23255760 Ry
     estimated scf accuracy    <       0.02977729 Ry

     iteration #  5     ecut=    50.00 Ry     beta= 0.60
     Davidson diagonalization with overlap
     ethr =  8.05E-05,  avg # of iterations =  2.0

     total cpu time spent up to now is     4236.4 secs

     total energy              =    -351.22631781 Ry
     Harris-Foulkes estimate   =    -351.22950691 Ry
     estimated scf accuracy    <       0.01839250 Ry

     iteration #  6     ecut=    50.00 Ry     beta= 0.60
     Davidson diagonalization with overlap
     ethr =  4.97E-05,  avg # of iterations =  1.3

     total cpu time spent up to now is     4271.6 secs

     total energy              =    -351.22598253 Ry
     Harris-Foulkes estimate   =    -351.22689700 Ry
     estimated scf accuracy    <       0.00875079 Ry

     iteration #  7     ecut=    50.00 Ry     beta= 0.60
     Davidson diagonalization with overlap
     ethr =  2.37E-05,  avg # of iterations =  2.0

     total cpu time spent up to now is     4307.9 secs

     total energy              =    -351.22531188 Ry
     Harris-Foulkes estimate   =    -351.22629282 Ry
     estimated scf accuracy    <       0.00503156 Ry

     iteration #  8     ecut=    50.00 Ry     beta= 0.60
     Davidson diagonalization with overlap
     ethr =  1.36E-05,  avg # of iterations =  2.7

     total cpu time spent up to now is     4345.9 secs

     total energy              =    -351.22558988 Ry
     Harris-Foulkes estimate   =    -351.22562466 Ry
     estimated scf accuracy    <       0.00127654 Ry

     iteration #  9     ecut=    50.00 Ry     beta= 0.60
     Davidson diagonalization with overlap
     ethr =  3.45E-06,  avg # of iterations =  4.7

     total cpu time spent up to now is     4388.7 secs

     total energy              =    -351.22570162 Ry
     Harris-Foulkes estimate   =    -351.22569324 Ry
     estimated scf accuracy    <       0.00070785 Ry

     iteration # 10     ecut=    50.00 Ry     beta= 0.60
     Davidson diagonalization with overlap
     ethr =  1.91E-06,  avg # of iterations =  1.7

     total cpu time spent up to now is     4423.7 secs

     total energy              =    -351.22544773 Ry
     Harris-Foulkes estimate   =    -351.22570857 Ry
     estimated scf accuracy    <       0.00071673 Ry

     iteration # 11     ecut=    50.00 Ry     beta= 0.60
     Davidson diagonalization with overlap
     ethr =  1.91E-06,  avg # of iterations =  3.3

     total cpu time spent up to now is     4465.6 secs

     total energy              =    -351.22555224 Ry
     Harris-Foulkes estimate   =    -351.22555137 Ry
     estimated scf accuracy    <       0.00000279 Ry

     iteration # 12     ecut=    50.00 Ry     beta= 0.60
     Davidson diagonalization with overlap
     ethr =  7.54E-09,  avg # of iterations =  5.1

     total cpu time spent up to now is     4527.4 secs

     total energy              =    -351.22555995 Ry
     Harris-Foulkes estimate   =    -351.22556129 Ry
     estimated scf accuracy    <       0.00000643 Ry

     iteration # 13     ecut=    50.00 Ry     beta= 0.60
     Davidson diagonalization with overlap
     ethr =  7.54E-09,  avg # of iterations =  3.5

     total cpu time spent up to now is     4569.3 secs

     total energy              =    -351.22556022 Ry
     Harris-Foulkes estimate   =    -351.22556044 Ry
     estimated scf accuracy    <       0.00000044 Ry

     iteration # 14     ecut=    50.00 Ry     beta= 0.60
     Davidson diagonalization with overlap
     ethr =  1.19E-09,  avg # of iterations =  4.2

     total cpu time spent up to now is     4619.9 secs

     total energy              =    -351.22556042 Ry
     Harris-Foulkes estimate   =    -351.22556045 Ry
     estimated scf accuracy    <       0.00000094 Ry

     iteration # 15     ecut=    50.00 Ry     beta= 0.60
     Davidson diagonalization with overlap
     ethr =  1.19E-09,  avg # of iterations =  1.0

     total cpu time spent up to now is     4654.1 secs

     total energy              =    -351.22556027 Ry
     Harris-Foulkes estimate   =    -351.22556044 Ry
     estimated scf accuracy    <       0.00000075 Ry

     iteration # 16     ecut=    50.00 Ry     beta= 0.60
     Davidson diagonalization with overlap
     ethr =  1.19E-09,  avg # of iterations =  3.7

     total cpu time spent up to now is     4696.7 secs

     total energy              =    -351.22556034 Ry
     Harris-Foulkes estimate   =    -351.22556037 Ry
     estimated scf accuracy    <       0.00000009 Ry

     iteration # 17     ecut=    50.00 Ry     beta= 0.60
     Davidson diagonalization with overlap
     ethr =  2.37E-10,  avg # of iterations =  3.0

     total cpu time spent up to now is     4738.7 secs

     total energy              =    -351.22556035 Ry
     Harris-Foulkes estimate   =    -351.22556036 Ry
     estimated scf accuracy    <       0.00000002 Ry

     iteration # 18     ecut=    50.00 Ry     beta= 0.60
     Davidson diagonalization with overlap
     ethr =  5.16E-11,  avg # of iterations =  3.7

     total cpu time spent up to now is     4781.1 secs

     total energy              =    -351.22556036 Ry
     Harris-Foulkes estimate   =    -351.22556036 Ry
     estimated scf accuracy    <          4.3E-10 Ry

     iteration # 19     ecut=    50.00 Ry     beta= 0.60
     Davidson diagonalization with overlap
     ethr =  1.17E-12,  avg # of iterations =  4.8

     total cpu time spent up to now is     4834.4 secs

     total energy              =    -351.22556036 Ry
     Harris-Foulkes estimate   =    -351.22556036 Ry
     estimated scf accuracy    <          2.8E-09 Ry

     iteration # 20     ecut=    50.00 Ry     beta= 0.60
     Davidson diagonalization with overlap
     ethr =  1.17E-12,  avg # of iterations =  4.1

     total cpu time spent up to now is     4879.7 secs

     total energy              =    -351.22556036 Ry
     Harris-Foulkes estimate   =    -351.22556036 Ry
     estimated scf accuracy    <          1.1E-10 Ry

     iteration # 21     ecut=    50.00 Ry     beta= 0.60
     Davidson diagonalization with overlap
     ethr =  2.89E-13,  avg # of iterations =  1.7

     total cpu time spent up to now is     4914.9 secs

     End of self-consistent calculation

     Number of k-points >= 100: set verbosity='high' to print the bands.

     the Fermi energy is    14.9610 ev

!    total energy              =    -351.22556036 Ry
     Harris-Foulkes estimate   =    -351.22556036 Ry
     estimated scf accuracy    <          5.9E-11 Ry

     The total energy is the sum of the following terms:

     one-electron contribution =     -98.25656153 Ry
     hartree contribution      =      63.70068515 Ry
     xc contribution           =     -47.53003837 Ry
     ewald contribution        =    -269.13909517 Ry
     smearing contrib. (-TS)   =      -0.00055044 Ry

     convergence has been achieved in  21 iterations

     Forces acting on atoms (cartesian axes, Ry/au):

     atom    1 type  2   force =     0.00000000    0.00979512   -0.00000000
     atom    2 type  2   force =     0.00000000   -0.00979624    0.00000000
     atom    3 type  1   force =     0.00000000    0.00000111   -0.00000000

     Total force =     0.013853     Total SCF correction =     0.000016


     Computing stress (Cartesian axis) and pressure

          total   stress  (Ry/bohr**3)                   (kbar)     P=   -2.13
   0.00002154  -0.00000000   0.00000000          3.17     -0.00      0.00
  -0.00000000  -0.00008654   0.00000000         -0.00    -12.73      0.00
   0.00000000   0.00000000   0.00002154          0.00      0.00      3.17


     number of scf cycles    =   4
     number of bfgs steps    =   3

     enthalpy old            =    -351.2245828690 Ry
     enthalpy new            =    -351.2255603557 Ry

     CASE: enthalpy_new < enthalpy_old

     new trust radius        =       0.0094426393 bohr
     new conv_thr            =            1.0E-10 Ry

     new unit-cell volume =    352.26571 a.u.^3 (    52.20039 Ang^3 )
     density =      6.00081 g/cm^3

CELL_PARAMETERS (alat=  1.88972599)
  -1.638873849   4.858730609  -1.638873849
   1.638873849   4.858730609   1.638873849
   1.638873849  -4.858730609  -1.638873849

ATOMIC_POSITIONS (angstrom)
Ti       1.638873849   1.660182387  -1.638873849
Ti       1.638873849   4.818127109  -1.638873849
Nb       1.638873849  -1.619578886  -1.638873849


     NEW-OLD atomic charge density approx. for the potential
     extrapolated charge   36.98708, renormalised to   37.00000

     total cpu time spent up to now is     4918.3 secs

     Self-consistent Calculation

     iteration #  1     ecut=    50.00 Ry     beta= 0.60
     Davidson diagonalization with overlap
     ethr =  1.00E-06,  avg # of iterations =  4.2

     total cpu time spent up to now is     4987.6 secs

     total energy              =    -351.22505362 Ry
     Harris-Foulkes estimate   =    -351.25066579 Ry
     estimated scf accuracy    <       0.00115828 Ry

     iteration #  2     ecut=    50.00 Ry     beta= 0.60
     Davidson diagonalization with overlap
     ethr =  3.13E-06,  avg # of iterations =  5.3

     total cpu time spent up to now is     5044.4 secs

     total energy              =    -351.22351491 Ry
     Harris-Foulkes estimate   =    -351.22812139 Ry
     estimated scf accuracy    <       0.02538134 Ry

     iteration #  3     ecut=    50.00 Ry     beta= 0.60
     Davidson diagonalization with overlap
     ethr =  3.13E-06,  avg # of iterations =  5.2

     total cpu time spent up to now is     5100.4 secs

     total energy              =    -351.22578274 Ry
     Harris-Foulkes estimate   =    -351.22584618 Ry
     estimated scf accuracy    <       0.00024942 Ry

     iteration #  4     ecut=    50.00 Ry     beta= 0.60
     Davidson diagonalization with overlap
     ethr =  6.74E-07,  avg # of iterations =  1.6

     total cpu time spent up to now is     5135.2 secs

     total energy              =    -351.22578500 Ry
     Harris-Foulkes estimate   =    -351.22579703 Ry
     estimated scf accuracy    <       0.00005845 Ry

     iteration #  5     ecut=    50.00 Ry     beta= 0.60
     Davidson diagonalization with overlap
     ethr =  1.58E-07,  avg # of iterations =  3.9

     total cpu time spent up to now is     5180.9 secs

     total energy              =    -351.22580476 Ry
     Harris-Foulkes estimate   =    -351.22580524 Ry
     estimated scf accuracy    <       0.00001434 Ry

     iteration #  6     ecut=    50.00 Ry     beta= 0.60
     Davidson diagonalization with overlap
     ethr =  3.88E-08,  avg # of iterations =  1.5

     total cpu time spent up to now is     5216.0 secs

     total energy              =    -351.22580407 Ry
     Harris-Foulkes estimate   =    -351.22580565 Ry
     estimated scf accuracy    <       0.00001625 Ry

     iteration #  7     ecut=    50.00 Ry     beta= 0.60
     Davidson diagonalization with overlap
     ethr =  3.88E-08,  avg # of iterations =  1.0

     total cpu time spent up to now is     5250.5 secs

     total energy              =    -351.22580395 Ry
     Harris-Foulkes estimate   =    -351.22580458 Ry
     estimated scf accuracy    <       0.00000783 Ry

     iteration #  8     ecut=    50.00 Ry     beta= 0.60
     Davidson diagonalization with overlap
     ethr =  2.12E-08,  avg # of iterations =  1.0

     total cpu time spent up to now is     5285.1 secs

     total energy              =    -351.22580354 Ry
     Harris-Foulkes estimate   =    -351.22580407 Ry
     estimated scf accuracy    <       0.00000449 Ry

     iteration #  9     ecut=    50.00 Ry     beta= 0.60
     Davidson diagonalization with overlap
     ethr =  1.21E-08,  avg # of iterations =  3.0

     total cpu time spent up to now is     5325.0 secs

     total energy              =    -351.22580381 Ry
     Harris-Foulkes estimate   =    -351.22580388 Ry
     estimated scf accuracy    <       0.00000031 Ry

     iteration # 10     ecut=    50.00 Ry     beta= 0.60
     Davidson diagonalization with overlap
     ethr =  8.43E-10,  avg # of iterations =  4.0

     total cpu time spent up to now is     5369.4 secs

     total energy              =    -351.22580387 Ry
     Harris-Foulkes estimate   =    -351.22580387 Ry
     estimated scf accuracy    <          7.1E-09 Ry

     iteration # 11     ecut=    50.00 Ry     beta= 0.60
     Davidson diagonalization with overlap
     ethr =  1.93E-11,  avg # of iterations =  4.6

     total cpu time spent up to now is     5418.0 secs

     total energy              =    -351.22580388 Ry
     Harris-Foulkes estimate   =    -351.22580388 Ry
     estimated scf accuracy    <          3.3E-09 Ry

     iteration # 12     ecut=    50.00 Ry     beta= 0.60
     Davidson diagonalization with overlap
     ethr =  8.99E-12,  avg # of iterations =  2.6

     total cpu time spent up to now is     5455.1 secs

     total energy              =    -351.22580388 Ry
     Harris-Foulkes estimate   =    -351.22580388 Ry
     estimated scf accuracy    <          8.5E-10 Ry

     iteration # 13     ecut=    50.00 Ry     beta= 0.60
     Davidson diagonalization with overlap
     ethr =  2.31E-12,  avg # of iterations =  4.0

     total cpu time spent up to now is     5502.7 secs

     total energy              =    -351.22580388 Ry
     Harris-Foulkes estimate   =    -351.22580388 Ry
     estimated scf accuracy    <          2.7E-10 Ry

     iteration # 14     ecut=    50.00 Ry     beta= 0.60
     Davidson diagonalization with overlap
     ethr =  7.32E-13,  avg # of iterations =  3.2

     total cpu time spent up to now is     5544.2 secs

     End of self-consistent calculation

     Number of k-points >= 100: set verbosity='high' to print the bands.

     the Fermi energy is    14.9672 ev

!    total energy              =    -351.22580388 Ry
     Harris-Foulkes estimate   =    -351.22580388 Ry
     estimated scf accuracy    <          3.4E-12 Ry

     The total energy is the sum of the following terms:

     one-electron contribution =     -98.28017991 Ry
     hartree contribution      =      63.72285984 Ry
     xc contribution           =     -47.53232723 Ry
     ewald contribution        =    -269.13559314 Ry
     smearing contrib. (-TS)   =      -0.00056345 Ry

     convergence has been achieved in  14 iterations

     Forces acting on atoms (cartesian axes, Ry/au):

     atom    1 type  2   force =     0.00000000    0.00828527   -0.00000000
     atom    2 type  2   force =     0.00000000   -0.00828681    0.00000000
     atom    3 type  1   force =     0.00000000    0.00000154   -0.00000000

     Total force =     0.011718     Total SCF correction =     0.000007


     Computing stress (Cartesian axis) and pressure

          total   stress  (Ry/bohr**3)                   (kbar)     P=   -1.20
   0.00002671  -0.00000000   0.00000000          3.93     -0.00      0.00
  -0.00000000  -0.00007787   0.00000000         -0.00    -11.46      0.00
   0.00000000   0.00000000   0.00002671          0.00      0.00      3.93


     number of scf cycles    =   5
     number of bfgs steps    =   4

     enthalpy old            =    -351.2255603557 Ry
     enthalpy new            =    -351.2258038773 Ry

     CASE: enthalpy_new < enthalpy_old


     WARNING: bfgs curvature condition failed, Theta= 0.912
     new trust radius        =       0.0141352468 bohr
     new conv_thr            =            1.0E-10 Ry

     new unit-cell volume =    352.33833 a.u.^3 (    52.21115 Ang^3 )
     density =      5.99957 g/cm^3

CELL_PARAMETERS (alat=  1.88972599)
  -1.641596002   4.843628486  -1.641596002
   1.641596002   4.843628486   1.641596002
   1.641596002  -4.843628486  -1.641596002

ATOMIC_POSITIONS (angstrom)
Ti       1.641596002   1.662477580  -1.641596002
Ti       1.641596002   4.795694390  -1.641596002
Nb       1.641596002  -1.614543484  -1.641596002


     NEW-OLD atomic charge density approx. for the potential
     extrapolated charge   37.00721, renormalised to   37.00000

     total cpu time spent up to now is     5547.4 secs

     Self-consistent Calculation

     iteration #  1     ecut=    50.00 Ry     beta= 0.60
     Davidson diagonalization with overlap
     ethr =  1.00E-06,  avg # of iterations =  5.2

     total cpu time spent up to now is     5622.7 secs

     total energy              =    -351.22417780 Ry
     Harris-Foulkes estimate   =    -351.21260305 Ry
     estimated scf accuracy    <       0.00291708 Ry

     iteration #  2     ecut=    50.00 Ry     beta= 0.60
     Davidson diagonalization with overlap
     ethr =  7.88E-06,  avg # of iterations =  5.3

     total cpu time spent up to now is     5681.8 secs

     total energy              =    -351.22010805 Ry
     Harris-Foulkes estimate   =    -351.23273021 Ry
     estimated scf accuracy    <       0.07198076 Ry

     iteration #  3     ecut=    50.00 Ry     beta= 0.60
     Davidson diagonalization with overlap
     ethr =  7.88E-06,  avg # of iterations =  5.1

     total cpu time spent up to now is     5739.2 secs

     total energy              =    -351.22609794 Ry
     Harris-Foulkes estimate   =    -351.22613773 Ry
     estimated scf accuracy    <       0.00009881 Ry

     iteration #  4     ecut=    50.00 Ry     beta= 0.60
     Davidson diagonalization with overlap
     ethr =  2.67E-07,  avg # of iterations =  3.3

     total cpu time spent up to now is     5782.3 secs

     total energy              =    -351.22611740 Ry
     Harris-Foulkes estimate   =    -351.22611754 Ry
     estimated scf accuracy    <       0.00000119 Ry

     iteration #  5     ecut=    50.00 Ry     beta= 0.60
     Davidson diagonalization with overlap
     ethr =  3.21E-09,  avg # of iterations =  5.0

     total cpu time spent up to now is     5842.5 secs

     total energy              =    -351.22611891 Ry
     Harris-Foulkes estimate   =    -351.22611950 Ry
     estimated scf accuracy    <       0.00000421 Ry

     iteration #  6     ecut=    50.00 Ry     beta= 0.60
     Davidson diagonalization with overlap
     ethr =  3.21E-09,  avg # of iterations =  4.0

     total cpu time spent up to now is     5886.4 secs

     total energy              =    -351.22611894 Ry
     Harris-Foulkes estimate   =    -351.22611943 Ry
     estimated scf accuracy    <       0.00000340 Ry

     iteration #  7     ecut=    50.00 Ry     beta= 0.60
     Davidson diagonalization with overlap
     ethr =  3.21E-09,  avg # of iterations =  3.2

     total cpu time spent up to now is     5925.4 secs

     total energy              =    -351.22611913 Ry
     Harris-Foulkes estimate   =    -351.22611915 Ry
     estimated scf accuracy    <       0.00000009 Ry

     iteration #  8     ecut=    50.00 Ry     beta= 0.60
     Davidson diagonalization with overlap
     ethr =  2.50E-10,  avg # of iterations =  4.5

     total cpu time spent up to now is     5972.8 secs

     total energy              =    -351.22611917 Ry
     Harris-Foulkes estimate   =    -351.22611918 Ry
     estimated scf accuracy    <       0.00000003 Ry

     iteration #  9     ecut=    50.00 Ry     beta= 0.60
     Davidson diagonalization with overlap
     ethr =  8.46E-11,  avg # of iterations =  1.2

     total cpu time spent up to now is     6007.3 secs

     total energy              =    -351.22611917 Ry
     Harris-Foulkes estimate   =    -351.22611917 Ry
     estimated scf accuracy    <          8.1E-09 Ry

     iteration # 10     ecut=    50.00 Ry     beta= 0.60
     Davidson diagonalization with overlap
     ethr =  2.18E-11,  avg # of iterations =  3.8

     total cpu time spent up to now is     6051.2 secs

     total energy              =    -351.22611917 Ry
     Harris-Foulkes estimate   =    -351.22611917 Ry
     estimated scf accuracy    <          2.5E-09 Ry

     iteration # 11     ecut=    50.00 Ry     beta= 0.60
     Davidson diagonalization with overlap
     ethr =  6.68E-12,  avg # of iterations =  1.5

     total cpu time spent up to now is     6085.9 secs

     total energy              =    -351.22611917 Ry
     Harris-Foulkes estimate   =    -351.22611917 Ry
     estimated scf accuracy    <          4.6E-10 Ry

     iteration # 12     ecut=    50.00 Ry     beta= 0.60
     Davidson diagonalization with overlap
     ethr =  1.23E-12,  avg # of iterations =  3.9

     total cpu time spent up to now is     6130.0 secs

     End of self-consistent calculation

     Number of k-points >= 100: set verbosity='high' to print the bands.

     the Fermi energy is    14.9633 ev

!    total energy              =    -351.22611917 Ry
     Harris-Foulkes estimate   =    -351.22611917 Ry
     estimated scf accuracy    <          1.7E-11 Ry

     The total energy is the sum of the following terms:

     one-electron contribution =     -98.42456819 Ry
     hartree contribution      =      63.79032313 Ry
     xc contribution           =     -47.53380168 Ry
     ewald contribution        =    -269.05748087 Ry
     smearing contrib. (-TS)   =      -0.00059156 Ry

     convergence has been achieved in  12 iterations

     Forces acting on atoms (cartesian axes, Ry/au):

     atom    1 type  2   force =     0.00000000    0.00603733    0.00000000
     atom    2 type  2   force =     0.00000000   -0.00603824    0.00000000
     atom    3 type  1   force =     0.00000000    0.00000092    0.00000000

     Total force =     0.008539     Total SCF correction =     0.000010


     Computing stress (Cartesian axis) and pressure

          total   stress  (Ry/bohr**3)                   (kbar)     P=   -0.64
   0.00002821   0.00000000   0.00000000          4.15      0.00      0.00
   0.00000000  -0.00006952  -0.00000000          0.00    -10.23     -0.00
  -0.00000000   0.00000000   0.00002821         -0.00      0.00      4.15


     number of scf cycles    =   6
     number of bfgs steps    =   5

     enthalpy old            =    -351.2258038773 Ry
     enthalpy new            =    -351.2261191728 Ry

     CASE: enthalpy_new < enthalpy_old

     new trust radius        =       0.0211369665 bohr
     new conv_thr            =            1.0E-10 Ry

     new unit-cell volume =    352.58937 a.u.^3 (    52.24835 Ang^3 )
     density =      5.99530 g/cm^3

CELL_PARAMETERS (alat=  1.88972599)
  -1.646437218   4.818616484  -1.646437218
   1.646437218   4.818616484   1.646437218
   1.646437218  -4.818616484  -1.646437218

ATOMIC_POSITIONS (angstrom)
Ti       1.646437218   1.665018331  -1.646437218
Ti       1.646437218   4.759802473  -1.646437218
Nb       1.646437218  -1.606204321  -1.646437218


     NEW-OLD atomic charge density approx. for the potential
     extrapolated charge   37.02492, renormalised to   37.00000

     total cpu time spent up to now is     6133.1 secs

     Self-consistent Calculation

     iteration #  1     ecut=    50.00 Ry     beta= 0.60
     Davidson diagonalization with overlap
     ethr =  1.00E-06,  avg # of iterations =  6.6

     total cpu time spent up to now is     6218.2 secs

     total energy              =    -351.22180734 Ry
     Harris-Foulkes estimate   =    -351.17925683 Ry
     estimated scf accuracy    <       0.00687115 Ry

     iteration #  2     ecut=    50.00 Ry     beta= 0.60
     Davidson diagonalization with overlap
     ethr =  1.86E-05,  avg # of iterations =  5.3

     total cpu time spent up to now is     6279.0 secs

     total energy              =    -351.21267493 Ry
     Harris-Foulkes estimate   =    -351.24223255 Ry
     estimated scf accuracy    <       0.16753634 Ry

     iteration #  3     ecut=    50.00 Ry     beta= 0.60
     Davidson diagonalization with overlap
     ethr =  1.86E-05,  avg # of iterations =  5.1

     total cpu time spent up to now is     6335.2 secs

     total energy              =    -351.22643661 Ry
     Harris-Foulkes estimate   =    -351.22650129 Ry
     estimated scf accuracy    <       0.00013653 Ry

     iteration #  4     ecut=    50.00 Ry     beta= 0.60
     Davidson diagonalization with overlap
     ethr =  3.69E-07,  avg # of iterations =  3.1

     total cpu time spent up to now is     6378.3 secs

     total energy              =    -351.22647296 Ry
     Harris-Foulkes estimate   =    -351.22647380 Ry
     estimated scf accuracy    <       0.00000316 Ry

     iteration #  5     ecut=    50.00 Ry     beta= 0.60
     Davidson diagonalization with overlap
     ethr =  8.54E-09,  avg # of iterations =  4.8

     total cpu time spent up to now is     6434.4 secs

     total energy              =    -351.22647428 Ry
     Harris-Foulkes estimate   =    -351.22647582 Ry
     estimated scf accuracy    <       0.00000702 Ry

     iteration #  6     ecut=    50.00 Ry     beta= 0.60
     Davidson diagonalization with overlap
     ethr =  8.54E-09,  avg # of iterations =  4.0

     total cpu time spent up to now is     6478.9 secs

     total energy              =    -351.22647451 Ry
     Harris-Foulkes estimate   =    -351.22647589 Ry
     estimated scf accuracy    <       0.00000975 Ry

     iteration #  7     ecut=    50.00 Ry     beta= 0.60
     Davidson diagonalization with overlap
     ethr =  8.54E-09,  avg # of iterations =  3.4

     total cpu time spent up to now is     6516.9 secs

     total energy              =    -351.22647500 Ry
     Harris-Foulkes estimate   =    -351.22647509 Ry
     estimated scf accuracy    <       0.00000040 Ry

     iteration #  8     ecut=    50.00 Ry     beta= 0.60
     Davidson diagonalization with overlap
     ethr =  1.07E-09,  avg # of iterations =  4.1

     total cpu time spent up to now is     6563.0 secs

     total energy              =    -351.22647514 Ry
     Harris-Foulkes estimate   =    -351.22647517 Ry
     estimated scf accuracy    <       0.00000028 Ry

     iteration #  9     ecut=    50.00 Ry     beta= 0.60
     Davidson diagonalization with overlap
     ethr =  7.67E-10,  avg # of iterations =  1.0

     total cpu time spent up to now is     6597.8 secs

     total energy              =    -351.22647513 Ry
     Harris-Foulkes estimate   =    -351.22647515 Ry
     estimated scf accuracy    <       0.00000010 Ry

     iteration # 10     ecut=    50.00 Ry     beta= 0.60
     Davidson diagonalization with overlap
     ethr =  2.71E-10,  avg # of iterations =  3.1

     total cpu time spent up to now is     6642.1 secs

     total energy              =    -351.22647514 Ry
     Harris-Foulkes estimate   =    -351.22647514 Ry
     estimated scf accuracy    <          2.6E-09 Ry

     iteration # 11     ecut=    50.00 Ry     beta= 0.60
     Davidson diagonalization with overlap
     ethr =  6.94E-12,  avg # of iterations =  4.1

     total cpu time spent up to now is     6686.7 secs

     total energy              =    -351.22647514 Ry
     Harris-Foulkes estimate   =    -351.22647514 Ry
     estimated scf accuracy    <          9.7E-10 Ry

     iteration # 12     ecut=    50.00 Ry     beta= 0.60
     Davidson diagonalization with overlap
     ethr =  2.62E-12,  avg # of iterations =  1.2

     total cpu time spent up to now is     6721.4 secs

     total energy              =    -351.22647514 Ry
     Harris-Foulkes estimate   =    -351.22647514 Ry
     estimated scf accuracy    <          3.1E-10 Ry

     iteration # 13     ecut=    50.00 Ry     beta= 0.60
     Davidson diagonalization with overlap
     ethr =  8.49E-13,  avg # of iterations =  3.4

     total cpu time spent up to now is     6762.4 secs

     End of self-consistent calculation

     Number of k-points >= 100: set verbosity='high' to print the bands.

     the Fermi energy is    14.9511 ev

!    total energy              =    -351.22647514 Ry
     Harris-Foulkes estimate   =    -351.22647514 Ry
     estimated scf accuracy    <          5.7E-12 Ry

     The total energy is the sum of the following terms:

     one-electron contribution =     -98.71407659 Ry
     hartree contribution      =      63.91740161 Ry
     xc contribution           =     -47.53512273 Ry
     ewald contribution        =    -268.89402767 Ry
     smearing contrib. (-TS)   =      -0.00064976 Ry

     convergence has been achieved in  13 iterations

     Forces acting on atoms (cartesian axes, Ry/au):

     atom    1 type  2   force =     0.00000000    0.00259285    0.00000000
     atom    2 type  2   force =     0.00000000   -0.00259146   -0.00000000
     atom    3 type  1   force =     0.00000000   -0.00000139    0.00000000

     Total force =     0.003666     Total SCF correction =     0.000011


     Computing stress (Cartesian axis) and pressure

          total   stress  (Ry/bohr**3)                   (kbar)     P=   -0.06
   0.00002773   0.00000000  -0.00000000          4.08      0.00     -0.00
   0.00000000  -0.00005675  -0.00000000          0.00     -8.35     -0.00
  -0.00000000  -0.00000000   0.00002773         -0.00     -0.00      4.08


     number of scf cycles    =   7
     number of bfgs steps    =   6

     enthalpy old            =    -351.2261191728 Ry
     enthalpy new            =    -351.2264751447 Ry

     CASE: enthalpy_new < enthalpy_old

     new trust radius        =       0.0315417261 bohr
     new conv_thr            =            1.0E-10 Ry

     new unit-cell volume =    353.09350 a.u.^3 (    52.32306 Ang^3 )
     density =      5.98674 g/cm^3

CELL_PARAMETERS (alat=  1.88972599)
  -1.654576787   4.778145551  -1.654576787
   1.654576787   4.778145551   1.654576787
   1.654576787  -4.778145551  -1.654576787

ATOMIC_POSITIONS (angstrom)
Ti       1.654576787   1.666301367  -1.654576787
Ti       1.654576787   4.704557505  -1.654576787
Nb       1.654576787  -1.592713322  -1.654576787


     NEW-OLD atomic charge density approx. for the potential
     extrapolated charge   37.04997, renormalised to   37.00000

     total cpu time spent up to now is     6765.5 secs

     Self-consistent Calculation

     iteration #  1     ecut=    50.00 Ry     beta= 0.60
     Davidson diagonalization with overlap
     c_bands:  1 eigenvalues not converged
     c_bands:  1 eigenvalues not converged
     ethr =  1.00E-06,  avg # of iterations =  8.3

     total cpu time spent up to now is     6855.7 secs

     total energy              =    -351.21767268 Ry
     Harris-Foulkes estimate   =    -351.13139683 Ry
     estimated scf accuracy    <       0.01310926 Ry

     iteration #  2     ecut=    50.00 Ry     beta= 0.60
     Davidson diagonalization with overlap
     ethr =  3.54E-05,  avg # of iterations =  5.3

     total cpu time spent up to now is     6915.4 secs

     total energy              =    -351.20130168 Ry
     Harris-Foulkes estimate   =    -351.25641973 Ry
     estimated scf accuracy    <       0.30847387 Ry

     iteration #  3     ecut=    50.00 Ry     beta= 0.60
     Davidson diagonalization with overlap
     ethr =  3.54E-05,  avg # of iterations =  5.0

     total cpu time spent up to now is     6971.8 secs

     total energy              =    -351.22663798 Ry
     Harris-Foulkes estimate   =    -351.22676126 Ry
     estimated scf accuracy    <       0.00027803 Ry

     iteration #  4     ecut=    50.00 Ry     beta= 0.60
     Davidson diagonalization with overlap
     ethr =  7.51E-07,  avg # of iterations =  2.8

     total cpu time spent up to now is     7015.5 secs

     total energy              =    -351.22670565 Ry
     Harris-Foulkes estimate   =    -351.22671277 Ry
     estimated scf accuracy    <       0.00002456 Ry

     iteration #  5     ecut=    50.00 Ry     beta= 0.60
     Davidson diagonalization with overlap
     ethr =  6.64E-08,  avg # of iterations =  4.0

     total cpu time spent up to now is     7062.2 secs

     total energy              =    -351.22671025 Ry
     Harris-Foulkes estimate   =    -351.22671377 Ry
     estimated scf accuracy    <       0.00001400 Ry

     iteration #  6     ecut=    50.00 Ry     beta= 0.60
     Davidson diagonalization with overlap
     ethr =  3.78E-08,  avg # of iterations =  3.2

     total cpu time spent up to now is     7099.8 secs

     total energy              =    -351.22671122 Ry
     Harris-Foulkes estimate   =    -351.22671264 Ry
     estimated scf accuracy    <       0.00000609 Ry

     iteration #  7     ecut=    50.00 Ry     beta= 0.60
     Davidson diagonalization with overlap
     ethr =  1.64E-08,  avg # of iterations =  2.4

     total cpu time spent up to now is     7137.3 secs

     total energy              =    -351.22671186 Ry
     Harris-Foulkes estimate   =    -351.22671192 Ry
     estimated scf accuracy    <       0.00000026 Ry

     iteration #  8     ecut=    50.00 Ry     beta= 0.60
     Davidson diagonalization with overlap
     ethr =  6.95E-10,  avg # of iterations =  4.7

     total cpu time spent up to now is     7185.2 secs

     total energy              =    -351.22671197 Ry
     Harris-Foulkes estimate   =    -351.22671200 Ry
     estimated scf accuracy    <       0.00000019 Ry

     iteration #  9     ecut=    50.00 Ry     beta= 0.60
     Davidson diagonalization with overlap
     ethr =  5.24E-10,  avg # of iterations =  1.1

     total cpu time spent up to now is     7228.6 secs

     total energy              =    -351.22671197 Ry
     Harris-Foulkes estimate   =    -351.22671198 Ry
     estimated scf accuracy    <       0.00000004 Ry

     iteration # 10     ecut=    50.00 Ry     beta= 0.60
     Davidson diagonalization with overlap
     ethr =  1.16E-10,  avg # of iterations =  4.0

     total cpu time spent up to now is     7279.8 secs

[...]
     density =      5.98338 g/cm^3

CELL_PARAMETERS (alat=  1.88972599)
  -1.709514792   4.478488273  -1.709514792
   1.709514792   4.478488273   1.709514792
   1.709514792  -4.478488273  -1.709514792

ATOMIC_POSITIONS (angstrom)
Ti       1.709514792   1.543498183  -1.709514792
Ti       1.709514792   4.427835382  -1.709514792
Nb       1.709514792  -1.492845292  -1.709514792
End final coordinates



     A final scf calculation at the relaxed structure.
     The G-vectors are recalculated for the final unit cell
     Results may differ from those at the preceding step.
 
     Parallelization info
     --------------------
     sticks:   dense  smooth     PW     G-vecs:    dense   smooth      PW
     Min         257     102     36                 5557     1408     299
     Max         258     103     37                 5558     1409     300
     Sum        3085    1227    439                66689    16899    3599
 


     bravais-lattice index     =            0
     lattice parameter (alat)  =       1.8897  a.u.
     unit-cell volume          =     353.2919 (a.u.)^3
     number of atoms/cell      =            3
     number of atomic types    =            2
     number of electrons       =        37.00
     number of Kohn-Sham states=           23
     kinetic-energy cutoff     =      50.0000  Ry
     charge density cutoff     =     500.0000  Ry
     convergence threshold     =      1.0E-12
     mixing beta               =       0.6000
     number of iterations used =            8  plain     mixing
     Exchange-correlation      = SLA PW PBE PBE ( 1  4  3  4 0 0)

     celldm(1)=   1.889726  celldm(2)=   0.000000  celldm(3)=   0.000000
     celldm(4)=   0.000000  celldm(5)=   0.000000  celldm(6)=   0.000000

     crystal axes: (cart. coord. in units of alat)
               a(1) = (  -1.709515   4.478488  -1.709515 )  
               a(2) = (   1.709515   4.478488   1.709515 )  
               a(3) = (   1.709515  -4.478488  -1.709515 )  

     reciprocal axes: (cart. coord. in units 2 pi/alat)
               b(1) = ( -0.000000  0.111645 -0.292481 )  
               b(2) = (  0.292481  0.111645 -0.000000 )  
               b(3) = (  0.292481  0.000000 -0.292481 )  


     PseudoPot. # 1 for Nb read from file:
     /home/u16/abhishekkt/fp/krishna/calculations/pseudopotentials/Nb.pbe-nsp-van.UPF
     MD5 check sum: c44c1a86bf31974e1e832c2ec821fd5f
     Pseudo is Ultrasoft + core correction, Zval = 13.0
     Generated by new atomic code, or converted to UPF format
     Using radial grid of  887 points,  6 beta functions with: 
                l(1) =   0
                l(2) =   0
                l(3) =   1
                l(4) =   1
                l(5) =   2
                l(6) =   2
     Q(r) pseudized with  6 coefficients,  rinner =    1.000   1.000   1.000
                                                       1.000   1.000

     PseudoPot. # 2 for Ti read from file:
     /home/u16/abhishekkt/fp/krishna/calculations/pseudopotentials/Ti.pbe-sp-van_ak.UPF
     MD5 check sum: 84d3ec9e8983e94242673103c800fb48
     Pseudo is Ultrasoft, Zval = 12.0
     Generated by new atomic code, or converted to UPF format
     Using radial grid of  851 points,  6 beta functions with: 
                l(1) =   0
                l(2) =   0
                l(3) =   1
                l(4) =   1
                l(5) =   2
                l(6) =   2
     Q(r) pseudized with  8 coefficients,  rinner =    1.000   1.000   1.000
                                                       1.000   1.000

     atomic species   valence    mass     pseudopotential
        Nb            13.00    92.90638     Nb( 1.00)
        Ti            12.00    47.86700     Ti( 1.00)

      8 Sym. Ops. (no inversion) found
          (note:  8 additional sym.ops. were found but ignored
           their fractional translations are incommensurate with FFT grid)


   Cartesian axes

     site n.     atom                  positions (alat units)
         1           Ti  tau(   1) = (   1.7095149   1.5434983  -1.7095149  )
         2           Ti  tau(   2) = (   1.7095149   4.4278357  -1.7095149  )
         3           Nb  tau(   3) = (   1.7095149  -1.4928454  -1.7095149  )

     number of k points=   244  Marzari-Vanderbilt smearing, width (Ry)=  0.0200

     Number of k-points >= 100: set verbosity='high' to print them.

     Dense  grid:    66689 G-vectors     FFT dimensions: (  72,  72,  72)

     Smooth grid:    16899 G-vectors     FFT dimensions: (  45,  45,  45)

     Estimated max dynamical RAM per process >      39.10 MB

     Estimated total dynamical RAM >     469.15 MB

     Initial potential from superposition of free atoms

     starting charge   34.99718, renormalised to   37.00000
     Starting wfcs are   33 randomized atomic wfcs

     total cpu time spent up to now is    15501.1 secs

     Self-consistent Calculation

     iteration #  1     ecut=    50.00 Ry     beta= 0.60
     Davidson diagonalization with overlap
     c_bands:  1 eigenvalues not converged
     c_bands:  1 eigenvalues not converged
     c_bands:  1 eigenvalues not converged
     c_bands:  1 eigenvalues not converged
     c_bands:  1 eigenvalues not converged
     c_bands:  2 eigenvalues not converged
     c_bands:  2 eigenvalues not converged
     c_bands:  1 eigenvalues not converged
     c_bands:  1 eigenvalues not converged
     c_bands:  1 eigenvalues not converged
     c_bands:  2 eigenvalues not converged
     c_bands:  1 eigenvalues not converged
     c_bands:  1 eigenvalues not converged
     c_bands:  1 eigenvalues not converged
     c_bands:  1 eigenvalues not converged
     c_bands:  1 eigenvalues not converged
     c_bands:  1 eigenvalues not converged
     c_bands:  1 eigenvalues not converged
     c_bands:  1 eigenvalues not converged
     c_bands:  1 eigenvalues not converged
     c_bands:  1 eigenvalues not converged
     c_bands:  1 eigenvalues not converged
     c_bands:  1 eigenvalues not converged
     c_bands:  1 eigenvalues not converged
     c_bands:  1 eigenvalues not converged
     c_bands:  1 eigenvalues not converged
     c_bands:  1 eigenvalues not converged
     c_bands:  1 eigenvalues not converged
     c_bands:  1 eigenvalues not converged
     c_bands:  1 eigenvalues not converged
     c_bands:  1 eigenvalues not converged
     c_bands:  1 eigenvalues not converged
     c_bands:  1 eigenvalues not converged
     c_bands:  1 eigenvalues not converged
     c_bands:  1 eigenvalues not converged
     c_bands:  1 eigenvalues not converged
     c_bands:  2 eigenvalues not converged
     c_bands:  2 eigenvalues not converged
     c_bands:  1 eigenvalues not converged
     c_bands:  1 eigenvalues not converged
     c_bands:  1 eigenvalues not converged
     c_bands:  1 eigenvalues not converged
     c_bands:  1 eigenvalues not converged
     c_bands:  1 eigenvalues not converged
     c_bands:  2 eigenvalues not converged
     c_bands:  1 eigenvalues not converged
     c_bands:  1 eigenvalues not converged
     c_bands:  1 eigenvalues not converged
     c_bands:  1 eigenvalues not converged
     c_bands:  1 eigenvalues not converged
     c_bands:  1 eigenvalues not converged
     c_bands:  1 eigenvalues not converged
     c_bands:  1 eigenvalues not converged
     c_bands:  1 eigenvalues not converged
     c_bands:  1 eigenvalues not converged
     c_bands:  1 eigenvalues not converged
     c_bands:  1 eigenvalues not converged
     c_bands:  1 eigenvalues not converged
     c_bands:  1 eigenvalues not converged
     c_bands:  1 eigenvalues not converged
     c_bands:  1 eigenvalues not converged
     c_bands:  1 eigenvalues not converged
     c_bands:  1 eigenvalues not converged
     c_bands:  1 eigenvalues not converged
     c_bands:  1 eigenvalues not converged
     c_bands:  1 eigenvalues not converged
     c_bands:  2 eigenvalues not converged
     c_bands:  1 eigenvalues not converged
     c_bands:  2 eigenvalues not converged
     c_bands:  2 eigenvalues not converged
     c_bands:  1 eigenvalues not converged
     c_bands:  2 eigenvalues not converged
     c_bands:  1 eigenvalues not converged
     c_bands:  1 eigenvalues not converged
     c_bands:  2 eigenvalues not converged
     c_bands:  1 eigenvalues not converged
     c_bands:  1 eigenvalues not converged
     c_bands:  2 eigenvalues not converged
     c_bands:  1 eigenvalues not converged
     c_bands:  1 eigenvalues not converged
     c_bands:  1 eigenvalues not converged
     c_bands:  1 eigenvalues not converged
     c_bands:  1 eigenvalues not converged
     c_bands:  1 eigenvalues not converged
     c_bands:  2 eigenvalues not converged
     c_bands:  2 eigenvalues not converged
     c_bands:  1 eigenvalues not converged
     ethr =  1.00E-06,  avg # of iterations = 15.0

     total cpu time spent up to now is    15587.8 secs

     total energy              =    -349.67326980 Ry
     Harris-Foulkes estimate   =    -351.99588403 Ry
     estimated scf accuracy    <       3.04632997 Ry

     iteration #  2     ecut=    50.00 Ry     beta= 0.60
     Davidson diagonalization with overlap
     ethr =  8.23E-03,  avg # of iterations =  4.6

     total cpu time spent up to now is    15627.3 secs

     total energy              =    -349.00659238 Ry
     Harris-Foulkes estimate   =    -354.36053211 Ry
     estimated scf accuracy    <      18.37344551 Ry

     iteration #  3     ecut=    50.00 Ry     beta= 0.60
     Davidson diagonalization with overlap
     ethr =  8.23E-03,  avg # of iterations =  4.8

     total cpu time spent up to now is    15662.9 secs

     total energy              =    -351.16666185 Ry
     Harris-Foulkes estimate   =    -351.26067729 Ry
     estimated scf accuracy    <       0.34425693 Ry

     iteration #  4     ecut=    50.00 Ry     beta= 0.60
     Davidson diagonalization with overlap
     ethr =  9.30E-04,  avg # of iterations =  4.5

     total cpu time spent up to now is    15694.4 secs

     total energy              =    -351.22034593 Ry
     Harris-Foulkes estimate   =    -351.22800861 Ry
     estimated scf accuracy    <       0.01772644 Ry

     iteration #  5     ecut=    50.00 Ry     beta= 0.60
     Davidson diagonalization with overlap
     ethr =  4.79E-05,  avg # of iterations =  6.4

     total cpu time spent up to now is    15737.6 secs

     total energy              =    -351.22617074 Ry
     Harris-Foulkes estimate   =    -351.22735077 Ry
     estimated scf accuracy    <       0.00303812 Ry

     iteration #  6     ecut=    50.00 Ry     beta= 0.60
     Davidson diagonalization with overlap
     ethr =  8.21E-06,  avg # of iterations =  4.6

     total cpu time spent up to now is    15772.1 secs

     total energy              =    -351.22641334 Ry
     Harris-Foulkes estimate   =    -351.22744781 Ry
     estimated scf accuracy    <       0.00332316 Ry

     iteration #  7     ecut=    50.00 Ry     beta= 0.60
     Davidson diagonalization with overlap
     ethr =  8.21E-06,  avg # of iterations =  3.0

     total cpu time spent up to now is    15802.3 secs

     total energy              =    -351.22690952 Ry
     Harris-Foulkes estimate   =    -351.22692815 Ry
     estimated scf accuracy    <       0.00008117 Ry

     iteration #  8     ecut=    50.00 Ry     beta= 0.60
     Davidson diagonalization with overlap
     ethr =  2.19E-07,  avg # of iterations =  5.3

     total cpu time spent up to now is    15842.8 secs

     total energy              =    -351.22692908 Ry
     Harris-Foulkes estimate   =    -351.22697800 Ry
     estimated scf accuracy    <       0.00039186 Ry

     iteration #  9     ecut=    50.00 Ry     beta= 0.60
     Davidson diagonalization with overlap
     ethr =  2.19E-07,  avg # of iterations =  3.7

     total cpu time spent up to now is    15874.7 secs

     total energy              =    -351.22692655 Ry
     Harris-Foulkes estimate   =    -351.22694679 Ry
     estimated scf accuracy    <       0.00008462 Ry

     iteration # 10     ecut=    50.00 Ry     beta= 0.60
     Davidson diagonalization with overlap
     ethr =  2.19E-07,  avg # of iterations =  3.2

     total cpu time spent up to now is    15906.6 secs

     total energy              =    -351.22693820 Ry
     Harris-Foulkes estimate   =    -351.22694086 Ry
     estimated scf accuracy    <       0.00001194 Ry

     iteration # 11     ecut=    50.00 Ry     beta= 0.60
     Davidson diagonalization with overlap
     ethr =  3.23E-08,  avg # of iterations =  2.5

     total cpu time spent up to now is    15935.3 secs

     total energy              =    -351.22693939 Ry
     Harris-Foulkes estimate   =    -351.22693955 Ry
     estimated scf accuracy    <       0.00000090 Ry

     iteration # 12     ecut=    50.00 Ry     beta= 0.60
     Davidson diagonalization with overlap
     ethr =  2.43E-09,  avg # of iterations =  4.3

     total cpu time spent up to now is    15968.8 secs

     total energy              =    -351.22693970 Ry
     Harris-Foulkes estimate   =    -351.22693973 Ry
     estimated scf accuracy    <       0.00000018 Ry

     iteration # 13     ecut=    50.00 Ry     beta= 0.60
     Davidson diagonalization with overlap
     ethr =  4.88E-10,  avg # of iterations =  1.9

     total cpu time spent up to now is    15993.6 secs

     total energy              =    -351.22693971 Ry
     Harris-Foulkes estimate   =    -351.22693972 Ry
     estimated scf accuracy    <       0.00000003 Ry

     iteration # 14     ecut=    50.00 Ry     beta= 0.60
     Davidson diagonalization with overlap
     ethr =  7.85E-11,  avg # of iterations =  4.1

     total cpu time spent up to now is    16026.2 secs

     total energy              =    -351.22693972 Ry
     Harris-Foulkes estimate   =    -351.22693972 Ry
     estimated scf accuracy    <       0.00000001 Ry

     iteration # 15     ecut=    50.00 Ry     beta= 0.60
     Davidson diagonalization with overlap
     ethr =  3.68E-11,  avg # of iterations =  1.0

     total cpu time spent up to now is    16049.9 secs

     total energy              =    -351.22693972 Ry
     Harris-Foulkes estimate   =    -351.22693972 Ry
     estimated scf accuracy    <          3.5E-09 Ry

     iteration # 16     ecut=    50.00 Ry     beta= 0.60
     Davidson diagonalization with overlap
     ethr =  9.40E-12,  avg # of iterations =  3.4

     total cpu time spent up to now is    16079.5 secs

     total energy              =    -351.22693972 Ry
     Harris-Foulkes estimate   =    -351.22693972 Ry
     estimated scf accuracy    <          3.3E-11 Ry

     iteration # 17     ecut=    50.00 Ry     beta= 0.60
     Davidson diagonalization with overlap
     c_bands:  1 eigenvalues not converged
     ethr =  1.00E-13,  avg # of iterations =  4.6

     total cpu time spent up to now is    16121.9 secs

     total energy              =    -351.22693972 Ry
     Harris-Foulkes estimate   =    -351.22693972 Ry
     estimated scf accuracy    <          3.2E-11 Ry

     iteration # 18     ecut=    50.00 Ry     beta= 0.60
     Davidson diagonalization with overlap
     ethr =  1.00E-13,  avg # of iterations =  1.0

     total cpu time spent up to now is    16145.8 secs

     total energy              =    -351.22693972 Ry
     Harris-Foulkes estimate   =    -351.22693972 Ry
     estimated scf accuracy    <          6.1E-12 Ry

     iteration # 19     ecut=    50.00 Ry     beta= 0.60
     Davidson diagonalization with overlap
     ethr =  1.00E-13,  avg # of iterations =  1.0

     total cpu time spent up to now is    16169.9 secs

     total energy              =    -351.22693972 Ry
     Harris-Foulkes estimate   =    -351.22693972 Ry
     estimated scf accuracy    <          1.2E-12 Ry

     iteration # 20     ecut=    50.00 Ry     beta= 0.60
     Davidson diagonalization with overlap
     ethr =  1.00E-13,  avg # of iterations =  1.0

     total cpu time spent up to now is    16193.9 secs

     End of self-consistent calculation

     Number of k-points >= 100: set verbosity='high' to print the bands.

     the Fermi energy is    14.9710 ev

!    total energy              =    -351.22693972 Ry
     Harris-Foulkes estimate   =    -351.22693972 Ry
     estimated scf accuracy    <          1.5E-14 Ry

     The total energy is the sum of the following terms:

     one-electron contribution =     -98.99311788 Ry
     hartree contribution      =      63.99504114 Ry
     xc contribution           =     -47.52909090 Ry
     ewald contribution        =    -268.69825914 Ry
     smearing contrib. (-TS)   =      -0.00151294 Ry

     convergence has been achieved in  20 iterations

     Forces acting on atoms (cartesian axes, Ry/au):

     atom    1 type  2   force =    -0.00000000   -0.00000343    0.00000000
     atom    2 type  2   force =    -0.00000000   -0.00000086    0.00000000
     atom    3 type  1   force =     0.00000000    0.00000429   -0.00000000

     Total force =     0.000006     Total SCF correction =     0.000000


     Computing stress (Cartesian axis) and pressure

          total   stress  (Ry/bohr**3)                   (kbar)     P=   -0.47
  -0.00000421  -0.00000000   0.00000000         -0.62     -0.00      0.00
  -0.00000000  -0.00000116   0.00000000         -0.00     -0.17      0.00
   0.00000000   0.00000000  -0.00000421          0.00      0.00     -0.62

 
     init_run     :     24.76s CPU     34.54s WALL (       2 calls)
     electrons    :  11956.28s CPU  16087.56s WALL (      23 calls)
     update_pot   :      9.89s CPU     10.73s WALL (      21 calls)
     forces       :     20.46s CPU     24.32s WALL (      23 calls)
     stress       :     31.64s CPU     33.42s WALL (      23 calls)

     Called by init_run:
     wfcinit      :     23.60s CPU     33.06s WALL (       2 calls)
     potinit      :      0.32s CPU      0.42s WALL (       2 calls)
     hinit0       :      0.65s CPU      0.82s WALL (       2 calls)

     Called by electrons:
     c_bands      :  10123.04s CPU  13620.77s WALL (     364 calls)
     sum_band     :   1775.95s CPU   2395.64s WALL (     364 calls)
     v_of_rho     :     31.58s CPU     40.17s WALL (     381 calls)
     newd         :     17.34s CPU     18.46s WALL (     381 calls)
     mix_rho      :      6.44s CPU      8.61s WALL (     364 calls)

     Called by c_bands:
     init_us_2    :     24.89s CPU     25.62s WALL (  189344 calls)
     cegterg      :  10011.11s CPU  13491.84s WALL (   88816 calls)

     Called by sum_band:
     sum_band:bec :      1.43s CPU      1.48s WALL (   88816 calls)
     addusdens    :     17.71s CPU     17.75s WALL (     364 calls)

     Called by *egterg:
     h_psi        :   9115.90s CPU  12429.95s WALL (  390317 calls)
     s_psi        :     23.88s CPU     24.78s WALL (  390317 calls)
     g_psi        :      6.54s CPU      6.40s WALL (  301013 calls)
     cdiaghg      :    584.74s CPU    671.65s WALL (  383241 calls)

     Called by h_psi:
     h_psi:pot    :   9112.59s CPU  12426.18s WALL (  390317 calls)
     h_psi:calbec :    117.57s CPU    156.43s WALL (  390317 calls)
     vloc_psi     :   8965.95s CPU  12239.30s WALL (  390317 calls)
     add_vuspsi   :     27.55s CPU     28.32s WALL (  390317 calls)

     General routines
     calbec       :    161.48s CPU    214.74s WALL (  507193 calls)
     fft          :     44.59s CPU     59.64s WALL (    5532 calls)
     ffts         :      2.07s CPU      2.73s WALL (     745 calls)
     fftw         :  10454.26s CPU  14322.78s WALL (12913972 calls)
     interpolate  :      4.13s CPU      5.43s WALL (     381 calls)
 
     Parallel routines
     fft_scatt_xy :    339.93s CPU    353.00s WALL (12920249 calls)
     fft_scatt_yz :   8953.55s CPU  12779.47s WALL (12920249 calls)
 
     PWSCF        :     3h20m CPU       20h 4m WALL

      29h
 
   This run was terminated on:  14:53:51  22Jan2020            

=------------------------------------------------------------------------------=
   JOB DONE.
=------------------------------------------------------------------------------=
