
     Program PWSCF v.6.3MaX starts on 10Feb2020 at 14: 2:22 

     This program is part of the open-source Quantum ESPRESSO suite
     for quantum simulation of materials; please cite
         "P. Giannozzi et al., J. Phys.:Condens. Matter 21 395502 (2009);
         "P. Giannozzi et al., J. Phys.:Condens. Matter 29 465901 (2017);
          URL http://www.quantum-espresso.org", 
     in publications or presentations arising from this work. More details at
     http://www.quantum-espresso.org/quote

     Parallel version (MPI), running on     4 processors

     MPI processes distributed on     1 nodes
     R & G space division:  proc/nbgrp/npool/nimage =       4
     Waiting for input...
     Reading input from standard input

     Current dimensions of program PWSCF are:
     Max number of different atomic species (ntypx) = 10
     Max number of k-points (npk) =  40000
     Max angular momentum in pseudopotentials (lmaxx) =  3
     Message from routine iosys:
     minimal I/O required, wf_collect reset to FALSE

     Subspace diagonalization in iterative solution of the eigenvalue problem:
     a serial algorithm will be used

 
     Parallelization info
     --------------------
     sticks:   dense  smooth     PW     G-vecs:    dense   smooth      PW
     Min         431     171     53                36427     9205    1551
     Max         432     172     54                36434     9212    1556
     Sum        1727     687    213               145721    36835    6213
 


     bravais-lattice index     =            0
     lattice parameter (alat)  =       1.8897  a.u.
     unit-cell volume          =    1077.7903 (a.u.)^3
     number of atoms/cell      =            8
     number of atomic types    =            2
     number of electrons       =       101.00
     number of Kohn-Sham states=           61
     kinetic-energy cutoff     =      40.0000  Ry
     charge density cutoff     =     400.0000  Ry
     convergence threshold     =      1.0E-10
     mixing beta               =       0.6000
     number of iterations used =            8  plain     mixing
     Exchange-correlation      = SLA PW PBE PBE ( 1  4  3  4 0 0)
     nstep                     =           50


     celldm(1)=   1.889726  celldm(2)=   0.000000  celldm(3)=   0.000000
     celldm(4)=   0.000000  celldm(5)=   0.000000  celldm(6)=   0.000000

     crystal axes: (cart. coord. in units of alat)
               a(1) = (   1.522502  -2.637051   0.000000 )  
               a(2) = (   0.000000   0.000000  -4.972461 )  
               a(3) = (   9.135012   5.274102   0.000000 )  

     reciprocal axes: (cart. coord. in units 2 pi/alat)
               b(1) = (  0.164203 -0.284409  0.000000 )  
               b(2) = (  0.000000  0.000000 -0.201108 )  
               b(3) = (  0.082102  0.047401  0.000000 )  


     PseudoPot. # 1 for Nb read from file:
     ./Nb.pbe-nsp-van.UPF
     MD5 check sum: 0a22fc7fb0ba19a08ca5db297a5d2854
     Pseudo is Ultrasoft + core correction, Zval = 13.0
     Generated by new atomic code, or converted to UPF format
     Using radial grid of  887 points,  6 beta functions with: 
                l(1) =   0
                l(2) =   0
                l(3) =   1
                l(4) =   1
                l(5) =   2
                l(6) =   2
     Q(r) pseudized with  6 coefficients,  rinner =    1.000   1.000   1.000
                                                       1.000   1.000

     PseudoPot. # 2 for Ti read from file:
     ./Ti.pbe-sp-van_ak.UPF
     MD5 check sum: f98fea3e8887528921fefa5636a534ca
     Pseudo is Ultrasoft, Zval = 12.0
     Generated by new atomic code, or converted to UPF format
     Using radial grid of  851 points,  6 beta functions with: 
                l(1) =   0
                l(2) =   0
                l(3) =   1
                l(4) =   1
                l(5) =   2
                l(6) =   2
     Q(r) pseudized with  8 coefficients,  rinner =    1.000   1.000   1.000
                                                       1.000   1.000

     atomic species   valence    mass     pseudopotential
        Nb            13.00    92.90638     Nb( 1.00)
        Ti            12.00    47.86700     Ti( 1.00)

      4 Sym. Ops. (no inversion) found



   Cartesian axes

     site n.     atom                  positions (alat units)
         1           Nb  tau(   1) = (   3.0450042   0.0000000  -4.9724614  )
         2           Ti  tau(   2) = (   3.0450058  -1.7580350  -2.4862307  )
         3           Ti  tau(   3) = (   6.0900085   0.0000000  -4.9724614  )
         4           Nb  tau(   4) = (   4.5675079   0.8790162  -2.4862307  )
         5           Ti  tau(   5) = (   7.6125106   2.6370512  -4.9724614  )
         6           Nb  tau(   6) = (   7.6125121   0.8790162  -2.4862307  )
         7           Nb  tau(   7) = (  10.6575148   2.6370512  -4.9724614  )
         8           Nb  tau(   8) = (   9.1350142   3.5160674  -2.4862307  )

     number of k points=   240  Marzari-Vanderbilt smearing, width (Ry)=  0.0200

     Number of k-points >= 100: set verbosity='high' to print them.

     Dense  grid:   145721 G-vectors     FFT dimensions: (  40,  60, 128)

     Smooth grid:    36835 G-vectors     FFT dimensions: (  24,  40,  81)

     Estimated max dynamical RAM per process >     399.93 MB

     Estimated total dynamical RAM >       1.56 GB

     Initial potential from superposition of free atoms

     starting charge   97.98620, renormalised to  101.00000
     Starting wfcs are   95 randomized atomic wfcs

     total cpu time spent up to now is       20.8 secs

     Self-consistent Calculation

     iteration #  1     ecut=    40.00 Ry     beta= 0.60
     Davidson diagonalization with overlap
     ethr =  1.00E-02,  avg # of iterations =  2.7

     total cpu time spent up to now is       63.7 secs

     total energy              =    -874.23581486 Ry
     Harris-Foulkes estimate   =    -944.89039572 Ry
     estimated scf accuracy    <      86.86965048 Ry

     iteration #  2     ecut=    40.00 Ry     beta= 0.60
     Davidson diagonalization with overlap
     ethr =  1.00E-02,  avg # of iterations =  9.0

     total cpu time spent up to now is      177.7 secs

     total energy              =    -838.17405354 Ry
     Harris-Foulkes estimate   =   -1144.92917638 Ry
     estimated scf accuracy    <    1590.91521385 Ry

     iteration #  3     ecut=    40.00 Ry     beta= 0.60
     Davidson diagonalization with overlap
     ethr =  1.00E-02,  avg # of iterations =  7.4

     total cpu time spent up to now is      280.6 secs

     total energy              =    -935.26937721 Ry
     Harris-Foulkes estimate   =    -970.52527116 Ry
     estimated scf accuracy    <     136.10981647 Ry

     iteration #  4     ecut=    40.00 Ry     beta= 0.60
     Davidson diagonalization with overlap
     ethr =  1.00E-02,  avg # of iterations =  5.1

     total cpu time spent up to now is      343.5 secs

     total energy              =    -943.35158601 Ry
     Harris-Foulkes estimate   =    -949.24025120 Ry
     estimated scf accuracy    <     111.61947347 Ry

     iteration #  5     ecut=    40.00 Ry     beta= 0.60
     Davidson diagonalization with overlap
     ethr =  1.00E-02,  avg # of iterations =  2.4

     total cpu time spent up to now is      378.6 secs

     total energy              =    -943.80406464 Ry
     Harris-Foulkes estimate   =    -945.32897633 Ry
     estimated scf accuracy    <      55.09555158 Ry

     iteration #  6     ecut=    40.00 Ry     beta= 0.60
     Davidson diagonalization with overlap
     ethr =  1.00E-02,  avg # of iterations =  1.1

     total cpu time spent up to now is      409.8 secs

     total energy              =    -943.63904532 Ry
     Harris-Foulkes estimate   =    -944.14869072 Ry
     estimated scf accuracy    <      35.04169850 Ry

     iteration #  7     ecut=    40.00 Ry     beta= 0.60
     Davidson diagonalization with overlap
     ethr =  1.00E-02,  avg # of iterations =  1.0

     total cpu time spent up to now is      440.8 secs

     total energy              =    -942.90765434 Ry
     Harris-Foulkes estimate   =    -943.67881063 Ry
     estimated scf accuracy    <      32.00193483 Ry

     iteration #  8     ecut=    40.00 Ry     beta= 0.60
     Davidson diagonalization with overlap
     ethr =  1.00E-02,  avg # of iterations =  1.0

     total cpu time spent up to now is      471.9 secs

     total energy              =    -940.90092357 Ry
     Harris-Foulkes estimate   =    -942.96016005 Ry
     estimated scf accuracy    <      26.12388702 Ry

     iteration #  9     ecut=    40.00 Ry     beta= 0.60
     Davidson diagonalization with overlap
     ethr =  1.00E-02,  avg # of iterations =  1.0

     total cpu time spent up to now is      504.0 secs

     total energy              =    -941.02005738 Ry
     Harris-Foulkes estimate   =    -941.09290502 Ry
     estimated scf accuracy    <      13.26205451 Ry

     iteration # 10     ecut=    40.00 Ry     beta= 0.60
     Davidson diagonalization with overlap
     ethr =  1.00E-02,  avg # of iterations =  1.0

     total cpu time spent up to now is      535.9 secs

     total energy              =    -934.81795125 Ry
     Harris-Foulkes estimate   =    -941.06782951 Ry
     estimated scf accuracy    <      15.17269300 Ry

     iteration # 11     ecut=    40.00 Ry     beta= 0.60
     Davidson diagonalization with overlap
     ethr =  1.00E-02,  avg # of iterations =  5.0

     total cpu time spent up to now is      601.0 secs

     total energy              =    -935.37593819 Ry
     Harris-Foulkes estimate   =    -949.62331013 Ry
     estimated scf accuracy    <     167.67221524 Ry

     iteration # 12     ecut=    40.00 Ry     beta= 0.60
     Davidson diagonalization with overlap
     ethr =  1.00E-02,  avg # of iterations =  3.3

     total cpu time spent up to now is      642.1 secs

     total energy              =    -939.03067257 Ry
     Harris-Foulkes estimate   =    -939.80334114 Ry
     estimated scf accuracy    <       7.89684255 Ry

     iteration # 13     ecut=    40.00 Ry     beta= 0.60
     Davidson diagonalization with overlap
     ethr =  7.82E-03,  avg # of iterations =  1.9

     total cpu time spent up to now is      676.2 secs

     total energy              =    -939.37506593 Ry
     Harris-Foulkes estimate   =    -939.41031404 Ry
     estimated scf accuracy    <       2.41973244 Ry

     iteration # 14     ecut=    40.00 Ry     beta= 0.60
     Davidson diagonalization with overlap
     ethr =  2.40E-03,  avg # of iterations =  5.2

     total cpu time spent up to now is      730.2 secs

     total energy              =    -939.65336405 Ry
     Harris-Foulkes estimate   =    -939.75618801 Ry
     estimated scf accuracy    <       2.78140000 Ry

     iteration # 15     ecut=    40.00 Ry     beta= 0.60
     Davidson diagonalization with overlap
     ethr =  2.40E-03,  avg # of iterations =  1.0

     total cpu time spent up to now is      761.9 secs

     total energy              =    -939.68603229 Ry
     Harris-Foulkes estimate   =    -939.67458731 Ry
     estimated scf accuracy    <       2.49841197 Ry

     iteration # 16     ecut=    40.00 Ry     beta= 0.60
     Davidson diagonalization with overlap
     ethr =  2.40E-03,  avg # of iterations =  1.0

     total cpu time spent up to now is      793.7 secs

     total energy              =    -939.56520189 Ry
     Harris-Foulkes estimate   =    -939.70582089 Ry
     estimated scf accuracy    <       2.64030746 Ry

     iteration # 17     ecut=    40.00 Ry     beta= 0.60
     Davidson diagonalization with overlap
     ethr =  2.40E-03,  avg # of iterations =  1.0

     total cpu time spent up to now is      825.4 secs

     total energy              =    -939.48717364 Ry
     Harris-Foulkes estimate   =    -939.60373594 Ry
     estimated scf accuracy    <       2.46776190 Ry

     iteration # 18     ecut=    40.00 Ry     beta= 0.60
     Davidson diagonalization with overlap
     ethr =  2.40E-03,  avg # of iterations =  1.0

     total cpu time spent up to now is      857.4 secs

     total energy              =    -939.48749457 Ry
     Harris-Foulkes estimate   =    -939.52806070 Ry
     estimated scf accuracy    <       1.02266326 Ry

     iteration # 19     ecut=    40.00 Ry     beta= 0.60
     Davidson diagonalization with overlap
     ethr =  1.01E-03,  avg # of iterations =  3.9

     total cpu time spent up to now is      899.9 secs

     total energy              =    -939.35990903 Ry
     Harris-Foulkes estimate   =    -939.65920918 Ry
     estimated scf accuracy    <       4.31905336 Ry

     iteration # 20     ecut=    40.00 Ry     beta= 0.60
     Davidson diagonalization with overlap
     ethr =  1.01E-03,  avg # of iterations =  3.5

     total cpu time spent up to now is      941.0 secs

     total energy              =    -939.44770884 Ry
     Harris-Foulkes estimate   =    -939.53766527 Ry
     estimated scf accuracy    <       1.48502719 Ry

     iteration # 21     ecut=    40.00 Ry     beta= 0.60
     Davidson diagonalization with overlap
     ethr =  1.01E-03,  avg # of iterations =  3.9

     total cpu time spent up to now is      982.2 secs

     total energy              =    -939.44303494 Ry
     Harris-Foulkes estimate   =    -939.55218763 Ry
     estimated scf accuracy    <       1.96520318 Ry

     iteration # 22     ecut=    40.00 Ry     beta= 0.60
     Davidson diagonalization with overlap
     ethr =  1.01E-03,  avg # of iterations =  1.1

     total cpu time spent up to now is     1014.5 secs

     total energy              =    -939.32557476 Ry
     Harris-Foulkes estimate   =    -939.49468931 Ry
     estimated scf accuracy    <       1.26761578 Ry

     iteration # 23     ecut=    40.00 Ry     beta= 0.60
     Davidson diagonalization with overlap
     ethr =  1.01E-03,  avg # of iterations =  3.2

     total cpu time spent up to now is     1054.2 secs

     total energy              =    -939.40600753 Ry
     Harris-Foulkes estimate   =    -939.49459219 Ry
     estimated scf accuracy    <       1.26090501 Ry

     iteration # 24     ecut=    40.00 Ry     beta= 0.60
     Davidson diagonalization with overlap
     ethr =  1.01E-03,  avg # of iterations =  1.4

     total cpu time spent up to now is     1087.3 secs

     total energy              =    -939.42567881 Ry
     Harris-Foulkes estimate   =    -939.48228250 Ry
     estimated scf accuracy    <       0.64161680 Ry

     iteration # 25     ecut=    40.00 Ry     beta= 0.60
     Davidson diagonalization with overlap
     ethr =  6.35E-04,  avg # of iterations =  1.1

     total cpu time spent up to now is     1119.2 secs

     total energy              =    -939.45007711 Ry
     Harris-Foulkes estimate   =    -939.45554312 Ry
     estimated scf accuracy    <       0.06079262 Ry

     iteration # 26     ecut=    40.00 Ry     beta= 0.60
     Davidson diagonalization with overlap
     ethr =  6.02E-05,  avg # of iterations =  5.1

     total cpu time spent up to now is     1163.2 secs

     total energy              =    -939.45289037 Ry
     Harris-Foulkes estimate   =    -939.45424502 Ry
     estimated scf accuracy    <       0.01239252 Ry

     iteration # 27     ecut=    40.00 Ry     beta= 0.60
     Davidson diagonalization with overlap
     ethr =  1.23E-05,  avg # of iterations =  6.8

     total cpu time spent up to now is     1219.9 secs

     total energy              =    -939.45405052 Ry
     Harris-Foulkes estimate   =    -939.45423512 Ry
     estimated scf accuracy    <       0.00091993 Ry

     iteration # 28     ecut=    40.00 Ry     beta= 0.60
     Davidson diagonalization with overlap
     c_bands:  1 eigenvalues not converged
     c_bands:  1 eigenvalues not converged
     ethr =  9.11E-07,  avg # of iterations =  5.7

     total cpu time spent up to now is     1276.5 secs

     total energy              =    -939.45420866 Ry
     Harris-Foulkes estimate   =    -939.45429644 Ry
     estimated scf accuracy    <       0.00061959 Ry

     iteration # 29     ecut=    40.00 Ry     beta= 0.60
     Davidson diagonalization with overlap
     ethr =  6.13E-07,  avg # of iterations =  1.3

     total cpu time spent up to now is     1309.2 secs

     total energy              =    -939.45423836 Ry
     Harris-Foulkes estimate   =    -939.45424511 Ry
     estimated scf accuracy    <       0.00004257 Ry

     iteration # 30     ecut=    40.00 Ry     beta= 0.60
     Davidson diagonalization with overlap
     ethr =  4.21E-08,  avg # of iterations =  4.7

     total cpu time spent up to now is     1363.7 secs

     total energy              =    -939.45425122 Ry
     Harris-Foulkes estimate   =    -939.45425980 Ry
     estimated scf accuracy    <       0.00007543 Ry

     iteration # 31     ecut=    40.00 Ry     beta= 0.60
     Davidson diagonalization with overlap
     ethr =  4.21E-08,  avg # of iterations =  2.7

     total cpu time spent up to now is     1401.1 secs

     total energy              =    -939.45425229 Ry
     Harris-Foulkes estimate   =    -939.45425611 Ry
     estimated scf accuracy    <       0.00003820 Ry

     iteration # 32     ecut=    40.00 Ry     beta= 0.60
     Davidson diagonalization with overlap
     ethr =  3.78E-08,  avg # of iterations =  2.8

     total cpu time spent up to now is     1438.0 secs

     total energy              =    -939.45425234 Ry
     Harris-Foulkes estimate   =    -939.45425624 Ry
     estimated scf accuracy    <       0.00003575 Ry

     iteration # 33     ecut=    40.00 Ry     beta= 0.60
     Davidson diagonalization with overlap
     ethr =  3.54E-08,  avg # of iterations =  1.0

     total cpu time spent up to now is     1470.1 secs

     total energy              =    -939.45425380 Ry
     Harris-Foulkes estimate   =    -939.45425439 Ry
     estimated scf accuracy    <       0.00000863 Ry

     iteration # 34     ecut=    40.00 Ry     beta= 0.60
     Davidson diagonalization with overlap
     ethr =  8.54E-09,  avg # of iterations =  3.7

     total cpu time spent up to now is     1512.0 secs

     total energy              =    -939.45425339 Ry
     Harris-Foulkes estimate   =    -939.45425522 Ry
     estimated scf accuracy    <       0.00002880 Ry

     iteration # 35     ecut=    40.00 Ry     beta= 0.60
     Davidson diagonalization with overlap
     ethr =  8.54E-09,  avg # of iterations =  2.1

     total cpu time spent up to now is     1546.9 secs

     total energy              =    -939.45425416 Ry
     Harris-Foulkes estimate   =    -939.45425430 Ry
     estimated scf accuracy    <       0.00000173 Ry

     iteration # 36     ecut=    40.00 Ry     beta= 0.60
     Davidson diagonalization with overlap
     ethr =  1.71E-09,  avg # of iterations =  4.0

     total cpu time spent up to now is     1591.6 secs

     total energy              =    -939.45425434 Ry
     Harris-Foulkes estimate   =    -939.45425437 Ry
     estimated scf accuracy    <       0.00000019 Ry

     iteration # 37     ecut=    40.00 Ry     beta= 0.60
     Davidson diagonalization with overlap
     ethr =  1.87E-10,  avg # of iterations =  4.1

     total cpu time spent up to now is     1639.9 secs

     total energy              =    -939.45425437 Ry
     Harris-Foulkes estimate   =    -939.45425438 Ry
     estimated scf accuracy    <       0.00000009 Ry

     iteration # 38     ecut=    40.00 Ry     beta= 0.60
     Davidson diagonalization with overlap
     ethr =  8.42E-11,  avg # of iterations =  1.3

     total cpu time spent up to now is     1672.6 secs

     total energy              =    -939.45425437 Ry
     Harris-Foulkes estimate   =    -939.45425437 Ry
     estimated scf accuracy    <       0.00000003 Ry

     iteration # 39     ecut=    40.00 Ry     beta= 0.60
     Davidson diagonalization with overlap
     ethr =  3.25E-11,  avg # of iterations =  3.4

     total cpu time spent up to now is     1713.8 secs

     total energy              =    -939.45425437 Ry
     Harris-Foulkes estimate   =    -939.45425437 Ry
     estimated scf accuracy    <          5.1E-09 Ry

     iteration # 40     ecut=    40.00 Ry     beta= 0.60
     Davidson diagonalization with overlap
     ethr =  5.00E-12,  avg # of iterations =  3.9

     total cpu time spent up to now is     1758.2 secs

     total energy              =    -939.45425437 Ry
     Harris-Foulkes estimate   =    -939.45425437 Ry
     estimated scf accuracy    <       0.00000001 Ry

     iteration # 41     ecut=    40.00 Ry     beta= 0.60
     Davidson diagonalization with overlap
     ethr =  5.00E-12,  avg # of iterations =  4.1

     total cpu time spent up to now is     1804.7 secs

     total energy              =    -939.45425437 Ry
     Harris-Foulkes estimate   =    -939.45425437 Ry
     estimated scf accuracy    <       0.00000002 Ry

     iteration # 42     ecut=    40.00 Ry     beta= 0.60
     Davidson diagonalization with overlap
     ethr =  5.00E-12,  avg # of iterations =  3.5

     total cpu time spent up to now is     1845.1 secs

     total energy              =    -939.45425437 Ry
     Harris-Foulkes estimate   =    -939.45425437 Ry
     estimated scf accuracy    <          1.3E-09 Ry

     iteration # 43     ecut=    40.00 Ry     beta= 0.60
     Davidson diagonalization with overlap
     ethr =  1.26E-12,  avg # of iterations =  3.5

     total cpu time spent up to now is     1888.2 secs

     total energy              =    -939.45425437 Ry
     Harris-Foulkes estimate   =    -939.45425437 Ry
     estimated scf accuracy    <          4.7E-10 Ry

     iteration # 44     ecut=    40.00 Ry     beta= 0.60
     Davidson diagonalization with overlap
     ethr =  4.62E-13,  avg # of iterations =  1.6

     total cpu time spent up to now is     1921.4 secs

     End of self-consistent calculation

     Number of k-points >= 100: set verbosity='high' to print the bands.

     the Fermi energy is    14.4400 ev

!    total energy              =    -939.45425437 Ry
     Harris-Foulkes estimate   =    -939.45425437 Ry
     estimated scf accuracy    <          7.6E-11 Ry

     The total energy is the sum of the following terms:

     one-electron contribution =    -245.75362748 Ry
     hartree contribution      =     160.02775414 Ry
     xc contribution           =    -134.90235812 Ry
     ewald contribution        =    -718.82076436 Ry
     smearing contrib. (-TS)   =      -0.00525854 Ry

     convergence has been achieved in  44 iterations

     Forces acting on atoms (cartesian axes, Ry/au):

     atom    1 type  1   force =    -0.00050201   -0.00028984    0.00000000
     atom    2 type  2   force =     0.00187292    0.00108133    0.00000000
     atom    3 type  2   force =    -0.00427047   -0.00246556    0.00000000
     atom    4 type  1   force =     0.00292928    0.00169122    0.00000000
     atom    5 type  2   force =     0.00233027    0.00134538    0.00000000
     atom    6 type  1   force =     0.00130437    0.00075308    0.00000000
     atom    7 type  1   force =     0.00202556    0.00116946    0.00000000
     atom    8 type  1   force =    -0.00568992   -0.00328508    0.00000000

     Total force =     0.009946     Total SCF correction =     0.000026


     Computing stress (Cartesian axis) and pressure

          total   stress  (Ry/bohr**3)                   (kbar)     P= -120.93
  -0.00089276   0.00002368   0.00000000       -131.33      3.48      0.00
   0.00002368  -0.00092010   0.00000000          3.48   -135.35      0.00
   0.00000000   0.00000000  -0.00065328          0.00      0.00    -96.10


     BFGS Geometry Optimization

     number of scf cycles    =   1
     number of bfgs steps    =   0

     enthalpy new            =    -939.4542543722 Ry

     new trust radius        =       0.1510832751 bohr
     new conv_thr            =            1.0E-10 Ry

     new unit-cell volume =   1012.68240 a.u.^3 (   150.06405 Ang^3 )
     density =      6.72932 g/cm^3

CELL_PARAMETERS (alat=  1.88972599)
   1.486960308  -2.575490988   0.000000000
   0.000000000   0.000000000  -4.891250836
   8.934248946   5.158191405   0.000000000

ATOMIC_POSITIONS (angstrom)
Nb       2.976782577   0.001652354  -4.891250836
Ti       2.976972612  -1.715233639  -2.445625418
Ti       5.951874609   0.002328671  -4.891250836
Nb       4.467601411   0.862375353  -2.445625418
Ti       7.445372889   2.581594359  -4.891250836
Nb       7.443802835   0.863692178  -2.445625418
Nb      10.422257578   2.583305666  -4.891250836
Nb       8.930265042   3.438895587  -2.445625418


     NEW-OLD atomic charge density approx. for the potential

     Check: negative/imaginary core charge=   -0.000001    0.000000
     extrapolated charge   94.70022, renormalised to  101.00000

     total cpu time spent up to now is     1945.9 secs

     Self-consistent Calculation

     iteration #  1     ecut=    40.00 Ry     beta= 0.60
     Davidson diagonalization with overlap
     c_bands:  1 eigenvalues not converged
     c_bands:  1 eigenvalues not converged
     c_bands:  1 eigenvalues not converged
     c_bands:  2 eigenvalues not converged
     c_bands:  2 eigenvalues not converged
     c_bands:  3 eigenvalues not converged
     c_bands:  1 eigenvalues not converged
     c_bands:  1 eigenvalues not converged
     c_bands:  1 eigenvalues not converged
     c_bands:  1 eigenvalues not converged
     c_bands:  1 eigenvalues not converged
     c_bands:  2 eigenvalues not converged
     c_bands:  1 eigenvalues not converged
     c_bands:  1 eigenvalues not converged
     c_bands:  1 eigenvalues not converged
     c_bands:  1 eigenvalues not converged
     c_bands:  1 eigenvalues not converged
     c_bands:  1 eigenvalues not converged
     c_bands:  1 eigenvalues not converged
     c_bands:  2 eigenvalues not converged
     c_bands:  2 eigenvalues not converged
     c_bands:  1 eigenvalues not converged
     c_bands:  1 eigenvalues not converged
     c_bands:  1 eigenvalues not converged
     c_bands:  1 eigenvalues not converged
     c_bands:  1 eigenvalues not converged
     c_bands:  1 eigenvalues not converged
     c_bands:  1 eigenvalues not converged
     c_bands:  1 eigenvalues not converged
     c_bands:  1 eigenvalues not converged
     c_bands:  1 eigenvalues not converged
     c_bands:  1 eigenvalues not converged
     c_bands:  1 eigenvalues not converged
     c_bands:  1 eigenvalues not converged
     c_bands:  2 eigenvalues not converged
     c_bands:  1 eigenvalues not converged
     c_bands:  1 eigenvalues not converged
     c_bands:  2 eigenvalues not converged
     c_bands:  2 eigenvalues not converged
     c_bands:  2 eigenvalues not converged
     c_bands:  2 eigenvalues not converged
     c_bands:  2 eigenvalues not converged
     c_bands:  2 eigenvalues not converged
     c_bands:  2 eigenvalues not converged
     c_bands:  1 eigenvalues not converged
     c_bands:  2 eigenvalues not converged
     c_bands:  2 eigenvalues not converged
     c_bands:  3 eigenvalues not converged
     c_bands:  2 eigenvalues not converged
     c_bands:  1 eigenvalues not converged
     c_bands:  1 eigenvalues not converged
     c_bands:  3 eigenvalues not converged
     c_bands:  1 eigenvalues not converged
     c_bands:  1 eigenvalues not converged
     c_bands:  1 eigenvalues not converged
     c_bands:  2 eigenvalues not converged
     c_bands:  1 eigenvalues not converged
     c_bands:  1 eigenvalues not converged
     c_bands:  1 eigenvalues not converged
     c_bands:  1 eigenvalues not converged
     c_bands:  1 eigenvalues not converged
     c_bands:  1 eigenvalues not converged
     c_bands:  1 eigenvalues not converged
     c_bands:  1 eigenvalues not converged
     c_bands:  1 eigenvalues not converged
     c_bands:  2 eigenvalues not converged
     c_bands:  2 eigenvalues not converged
     c_bands:  2 eigenvalues not converged
     c_bands:  2 eigenvalues not converged
     c_bands:  2 eigenvalues not converged
     c_bands:  1 eigenvalues not converged
     c_bands:  1 eigenvalues not converged
     c_bands:  1 eigenvalues not converged
     c_bands:  1 eigenvalues not converged
     c_bands:  1 eigenvalues not converged
     c_bands:  1 eigenvalues not converged
     c_bands:  1 eigenvalues not converged
     c_bands:  1 eigenvalues not converged
     c_bands:  1 eigenvalues not converged
     c_bands:  1 eigenvalues not converged
     c_bands:  1 eigenvalues not converged
     c_bands:  2 eigenvalues not converged
     c_bands:  1 eigenvalues not converged
     c_bands:  1 eigenvalues not converged
     c_bands:  1 eigenvalues not converged
     c_bands:  2 eigenvalues not converged
     c_bands:  1 eigenvalues not converged
     c_bands:  1 eigenvalues not converged
     c_bands:  1 eigenvalues not converged
     c_bands:  1 eigenvalues not converged
     c_bands:  1 eigenvalues not converged
     c_bands:  1 eigenvalues not converged
     c_bands:  1 eigenvalues not converged
     c_bands:  1 eigenvalues not converged
     c_bands:  1 eigenvalues not converged
     c_bands:  1 eigenvalues not converged
     c_bands:  2 eigenvalues not converged
     c_bands:  2 eigenvalues not converged
     c_bands:  1 eigenvalues not converged
     c_bands:  1 eigenvalues not converged
     c_bands:  2 eigenvalues not converged
     c_bands:  1 eigenvalues not converged
     c_bands:  2 eigenvalues not converged
     c_bands:  4 eigenvalues not converged
     c_bands:  1 eigenvalues not converged
     c_bands:  1 eigenvalues not converged
     c_bands:  1 eigenvalues not converged
     c_bands:  1 eigenvalues not converged
     c_bands:  1 eigenvalues not converged
     c_bands:  1 eigenvalues not converged
     c_bands:  2 eigenvalues not converged
     c_bands:  1 eigenvalues not converged
     c_bands:  1 eigenvalues not converged
     c_bands:  1 eigenvalues not converged
     c_bands:  2 eigenvalues not converged
     c_bands:  2 eigenvalues not converged
     c_bands:  1 eigenvalues not converged
     c_bands:  1 eigenvalues not converged
     c_bands:  1 eigenvalues not converged
     c_bands:  1 eigenvalues not converged
     c_bands:  2 eigenvalues not converged
     c_bands:  1 eigenvalues not converged
     c_bands:  1 eigenvalues not converged
     c_bands:  1 eigenvalues not converged
     c_bands:  1 eigenvalues not converged
     c_bands:  1 eigenvalues not converged
     c_bands:  1 eigenvalues not converged
     c_bands:  2 eigenvalues not converged
     c_bands:  2 eigenvalues not converged
     c_bands:  1 eigenvalues not converged
     c_bands:  1 eigenvalues not converged
     c_bands:  2 eigenvalues not converged
     c_bands:  2 eigenvalues not converged
     c_bands:  1 eigenvalues not converged
     c_bands:  1 eigenvalues not converged
     c_bands:  1 eigenvalues not converged
     c_bands:  2 eigenvalues not converged
     c_bands:  1 eigenvalues not converged
     c_bands:  1 eigenvalues not converged
     c_bands:  1 eigenvalues not converged
     c_bands:  2 eigenvalues not converged
     c_bands:  2 eigenvalues not converged
     c_bands:  1 eigenvalues not converged
     c_bands:  1 eigenvalues not converged
     c_bands:  1 eigenvalues not converged
     c_bands:  1 eigenvalues not converged
     c_bands:  2 eigenvalues not converged
     c_bands:  1 eigenvalues not converged
     c_bands:  2 eigenvalues not converged
     ethr =  1.00E-06,  avg # of iterations = 19.1

     total cpu time spent up to now is     2106.0 secs

     total energy              =    -929.65070667 Ry
     Harris-Foulkes estimate   =    -949.92870364 Ry
     estimated scf accuracy    <      10.71276702 Ry

     iteration #  2     ecut=    40.00 Ry     beta= 0.60
     Davidson diagonalization with overlap
     ethr =  1.00E-02,  avg # of iterations =  4.7

     total cpu time spent up to now is     2174.0 secs

     total energy              =    -932.31287277 Ry
     Harris-Foulkes estimate   =    -956.44688007 Ry
     estimated scf accuracy    <     104.69862324 Ry

     iteration #  3     ecut=    40.00 Ry     beta= 0.60
     Davidson diagonalization with overlap
     ethr =  1.00E-02,  avg # of iterations =  5.2

     total cpu time spent up to now is     2235.0 secs

     total energy              =    -935.47129807 Ry
     Harris-Foulkes estimate   =    -953.46418035 Ry
     estimated scf accuracy    <     156.24120145 Ry

     iteration #  4     ecut=    40.00 Ry     beta= 0.60
     Davidson diagonalization with overlap
     ethr =  1.00E-02,  avg # of iterations =  4.1

     total cpu time spent up to now is     2283.6 secs

     total energy              =    -939.97748569 Ry
     Harris-Foulkes estimate   =    -941.81331394 Ry
     estimated scf accuracy    <      12.02621436 Ry

     iteration #  5     ecut=    40.00 Ry     beta= 0.60
     Davidson diagonalization with overlap
     ethr =  1.00E-02,  avg # of iterations =  2.4

     total cpu time spent up to now is     2318.8 secs

     total energy              =    -939.43695576 Ry
     Harris-Foulkes estimate   =    -941.86329420 Ry
     estimated scf accuracy    <      30.74681449 Ry

     iteration #  6     ecut=    40.00 Ry     beta= 0.60
     Davidson diagonalization with overlap
     ethr =  1.00E-02,  avg # of iterations =  1.2

     total cpu time spent up to now is     2350.6 secs

     total energy              =    -939.78324106 Ry
     Harris-Foulkes estimate   =    -940.52277344 Ry
     estimated scf accuracy    <       6.09574349 Ry

     iteration #  7     ecut=    40.00 Ry     beta= 0.60
     Davidson diagonalization with overlap
     ethr =  6.04E-03,  avg # of iterations =  1.0

     total cpu time spent up to now is     2382.0 secs

     total energy              =    -939.59065149 Ry
     Harris-Foulkes estimate   =    -939.94535227 Ry
     estimated scf accuracy    <       3.55739669 Ry

     iteration #  8     ecut=    40.00 Ry     beta= 0.60
     Davidson diagonalization with overlap
     ethr =  3.52E-03,  avg # of iterations =  1.8

     total cpu time spent up to now is     2415.0 secs

     total energy              =    -939.50499639 Ry
     Harris-Foulkes estimate   =    -939.66908232 Ry
     estimated scf accuracy    <       2.04628284 Ry

     iteration #  9     ecut=    40.00 Ry     beta= 0.60
     Davidson diagonalization with overlap
     ethr =  2.03E-03,  avg # of iterations =  2.8

     total cpu time spent up to now is     2450.9 secs

     total energy              =    -939.55822041 Ry
     Harris-Foulkes estimate   =    -939.55753531 Ry
     estimated scf accuracy    <       1.13173024 Ry

     iteration # 10     ecut=    40.00 Ry     beta= 0.60
     Davidson diagonalization with overlap
     ethr =  1.12E-03,  avg # of iterations =  2.8

     total cpu time spent up to now is     2486.7 secs

     total energy              =    -939.24710023 Ry
     Harris-Foulkes estimate   =    -939.58180313 Ry
     estimated scf accuracy    <       1.05605959 Ry

     iteration # 11     ecut=    40.00 Ry     beta= 0.60
     Davidson diagonalization with overlap
     ethr =  1.05E-03,  avg # of iterations =  5.1

     total cpu time spent up to now is     2546.4 secs

     total energy              =    -939.48821949 Ry
     Harris-Foulkes estimate   =    -939.61036814 Ry
     estimated scf accuracy    <       2.20288530 Ry

     iteration # 12     ecut=    40.00 Ry     beta= 0.60
     Davidson diagonalization with overlap
     ethr =  1.05E-03,  avg # of iterations =  1.0

     total cpu time spent up to now is     2577.9 secs

     total energy              =    -939.44367886 Ry
     Harris-Foulkes estimate   =    -939.53556098 Ry
     estimated scf accuracy    <       0.88725673 Ry

     iteration # 13     ecut=    40.00 Ry     beta= 0.60
     Davidson diagonalization with overlap
     ethr =  8.78E-04,  avg # of iterations =  2.9

     total cpu time spent up to now is     2623.6 secs

     total energy              =    -939.45828592 Ry
     Harris-Foulkes estimate   =    -939.50075884 Ry
     estimated scf accuracy    <       0.36053295 Ry

     iteration # 14     ecut=    40.00 Ry     beta= 0.60
     Davidson diagonalization with overlap
     ethr =  3.57E-04,  avg # of iterations =  4.1

     total cpu time spent up to now is     2667.0 secs

     total energy              =    -939.47191520 Ry
     Harris-Foulkes estimate   =    -939.50112566 Ry
     estimated scf accuracy    <       0.20481483 Ry

     iteration # 15     ecut=    40.00 Ry     beta= 0.60
     Davidson diagonalization with overlap
     ethr =  2.03E-04,  avg # of iterations =  4.4

     total cpu time spent up to now is     2709.5 secs

     total energy              =    -939.47346282 Ry
     Harris-Foulkes estimate   =    -939.51278296 Ry
     estimated scf accuracy    <       0.68723489 Ry

     iteration # 16     ecut=    40.00 Ry     beta= 0.60
     Davidson diagonalization with overlap
     ethr =  2.03E-04,  avg # of iterations =  1.4

     total cpu time spent up to now is     2741.6 secs

     total energy              =    -939.49209192 Ry
     Harris-Foulkes estimate   =    -939.49295989 Ry
     estimated scf accuracy    <       0.00893773 Ry

     iteration # 17     ecut=    40.00 Ry     beta= 0.60
     Davidson diagonalization with overlap
     ethr =  8.85E-06,  avg # of iterations =  6.7

     total cpu time spent up to now is     2805.7 secs

     total energy              =    -939.49422571 Ry
     Harris-Foulkes estimate   =    -939.49468751 Ry
     estimated scf accuracy    <       0.00809276 Ry

     iteration # 18     ecut=    40.00 Ry     beta= 0.60
     Davidson diagonalization with overlap
     ethr =  8.01E-06,  avg # of iterations =  1.0

     total cpu time spent up to now is     2836.9 secs

     total energy              =    -939.49417186 Ry
     Harris-Foulkes estimate   =    -939.49443762 Ry
     estimated scf accuracy    <       0.00305045 Ry

     iteration # 19     ecut=    40.00 Ry     beta= 0.60
     Davidson diagonalization with overlap
     ethr =  3.02E-06,  avg # of iterations =  2.2

     total cpu time spent up to now is     2871.2 secs

     total energy              =    -939.49421462 Ry
     Harris-Foulkes estimate   =    -939.49431233 Ry
     estimated scf accuracy    <       0.00073792 Ry

     iteration # 20     ecut=    40.00 Ry     beta= 0.60
     Davidson diagonalization with overlap
     c_bands:  1 eigenvalues not converged
     c_bands:  1 eigenvalues not converged
     ethr =  7.31E-07,  avg # of iterations =  3.8

     total cpu time spent up to now is     2911.6 secs

     total energy              =    -939.49427523 Ry
     Harris-Foulkes estimate   =    -939.49428209 Ry
     estimated scf accuracy    <       0.00004453 Ry

     iteration # 21     ecut=    40.00 Ry     beta= 0.60
     Davidson diagonalization with overlap
     ethr =  4.41E-08,  avg # of iterations =  5.1

     total cpu time spent up to now is     2963.6 secs

     total energy              =    -939.49428622 Ry
     Harris-Foulkes estimate   =    -939.49428820 Ry
     estimated scf accuracy    <       0.00001293 Ry

     iteration # 22     ecut=    40.00 Ry     beta= 0.60
     Davidson diagonalization with overlap
     ethr =  1.28E-08,  avg # of iterations =  3.2

     total cpu time spent up to now is     3002.0 secs

     total energy              =    -939.49428733 Ry
     Harris-Foulkes estimate   =    -939.49428789 Ry
     estimated scf accuracy    <       0.00000439 Ry

     iteration # 23     ecut=    40.00 Ry     beta= 0.60
     Davidson diagonalization with overlap
     ethr =  4.35E-09,  avg # of iterations =  2.2

     total cpu time spent up to now is     3037.1 secs

     total energy              =    -939.49428758 Ry
     Harris-Foulkes estimate   =    -939.49428772 Ry
     estimated scf accuracy    <       0.00000106 Ry

     iteration # 24     ecut=    40.00 Ry     beta= 0.60
     Davidson diagonalization with overlap
     ethr =  1.05E-09,  avg # of iterations =  3.2

     total cpu time spent up to now is     3075.9 secs

     total energy              =    -939.49428755 Ry
     Harris-Foulkes estimate   =    -939.49428779 Ry
     estimated scf accuracy    <       0.00000254 Ry

     iteration # 25     ecut=    40.00 Ry     beta= 0.60
     Davidson diagonalization with overlap
     ethr =  1.05E-09,  avg # of iterations =  4.0

     total cpu time spent up to now is     3120.3 secs

     total energy              =    -939.49428740 Ry
     Harris-Foulkes estimate   =    -939.49428800 Ry
     estimated scf accuracy    <       0.00000925 Ry

     iteration # 26     ecut=    40.00 Ry     beta= 0.60
     Davidson diagonalization with overlap
     ethr =  1.05E-09,  avg # of iterations =  4.1

     total cpu time spent up to now is     3165.9 secs

     total energy              =    -939.49428761 Ry
     Harris-Foulkes estimate   =    -939.49428782 Ry
     estimated scf accuracy    <       0.00000200 Ry

     iteration # 27     ecut=    40.00 Ry     beta= 0.60
     Davidson diagonalization with overlap
     ethr =  1.05E-09,  avg # of iterations =  1.7

     total cpu time spent up to now is     3198.7 secs

     total energy              =    -939.49428767 Ry
     Harris-Foulkes estimate   =    -939.49428771 Ry
     estimated scf accuracy    <       0.00000020 Ry

     iteration # 28     ecut=    40.00 Ry     beta= 0.60
     Davidson diagonalization with overlap
     ethr =  1.96E-10,  avg # of iterations =  3.8

     total cpu time spent up to now is     3245.3 secs

     total energy              =    -939.49428769 Ry
     Harris-Foulkes estimate   =    -939.49428774 Ry
     estimated scf accuracy    <       0.00000064 Ry

     iteration # 29     ecut=    40.00 Ry     beta= 0.60
     Davidson diagonalization with overlap
     ethr =  1.96E-10,  avg # of iterations =  2.2

     total cpu time spent up to now is     3287.2 secs

     total energy              =    -939.49428770 Ry
     Harris-Foulkes estimate   =    -939.49428771 Ry
     estimated scf accuracy    <       0.00000003 Ry

     iteration # 30     ecut=    40.00 Ry     beta= 0.60
     Davidson diagonalization with overlap
     ethr =  3.10E-11,  avg # of iterations =  4.7

     total cpu time spent up to now is     3351.4 secs

     total energy              =    -939.49428771 Ry
     Harris-Foulkes estimate   =    -939.49428772 Ry
     estimated scf accuracy    <       0.00000013 Ry

     iteration # 31     ecut=    40.00 Ry     beta= 0.60
     Davidson diagonalization with overlap
     ethr =  3.10E-11,  avg # of iterations =  3.6

     total cpu time spent up to now is     3406.4 secs

     total energy              =    -939.49428771 Ry
     Harris-Foulkes estimate   =    -939.49428772 Ry
     estimated scf accuracy    <       0.00000001 Ry

     iteration # 32     ecut=    40.00 Ry     beta= 0.60
     Davidson diagonalization with overlap
     ethr =  1.06E-11,  avg # of iterations =  1.7

     total cpu time spent up to now is     3445.6 secs

     total energy              =    -939.49428771 Ry
     Harris-Foulkes estimate   =    -939.49428771 Ry
     estimated scf accuracy    <          2.5E-09 Ry

     iteration # 33     ecut=    40.00 Ry     beta= 0.60
     Davidson diagonalization with overlap
     ethr =  2.49E-12,  avg # of iterations =  4.0

     total cpu time spent up to now is     3500.5 secs

     total energy              =    -939.49428771 Ry
     Harris-Foulkes estimate   =    -939.49428772 Ry
     estimated scf accuracy    <          7.4E-10 Ry

     iteration # 34     ecut=    40.00 Ry     beta= 0.60
     Davidson diagonalization with overlap
     ethr =  7.37E-13,  avg # of iterations =  2.4

     total cpu time spent up to now is     3542.6 secs

     total energy              =    -939.49428772 Ry
     Harris-Foulkes estimate   =    -939.49428772 Ry
     estimated scf accuracy    <          3.2E-10 Ry

     iteration # 35     ecut=    40.00 Ry     beta= 0.60
     Davidson diagonalization with overlap
     ethr =  3.16E-13,  avg # of iterations =  3.4

     total cpu time spent up to now is     3593.1 secs

     total energy              =    -939.49428772 Ry
     Harris-Foulkes estimate   =    -939.49428772 Ry
     estimated scf accuracy    <          1.0E-09 Ry

     iteration # 36     ecut=    40.00 Ry     beta= 0.60
     Davidson diagonalization with overlap
     ethr =  3.16E-13,  avg # of iterations =  1.8

     total cpu time spent up to now is     3632.7 secs

     End of self-consistent calculation

     Number of k-points >= 100: set verbosity='high' to print the bands.

     the Fermi energy is    15.5357 ev

!    total energy              =    -939.49428771 Ry
     Harris-Foulkes estimate   =    -939.49428772 Ry
     estimated scf accuracy    <          7.7E-11 Ry

     The total energy is the sum of the following terms:

     one-electron contribution =    -223.87425865 Ry
     hartree contribution      =     153.63781222 Ry
     xc contribution           =    -135.35694691 Ry
     ewald contribution        =    -733.89693375 Ry
     smearing contrib. (-TS)   =      -0.00396063 Ry

     convergence has been achieved in  36 iterations

     Forces acting on atoms (cartesian axes, Ry/au):

     atom    1 type  1   force =    -0.00006896   -0.00003981    0.00000000
     atom    2 type  2   force =     0.00124979    0.00072157    0.00000000
     atom    3 type  2   force =    -0.00226126   -0.00130554    0.00000000
     atom    4 type  1   force =     0.00259994    0.00150107    0.00000000
     atom    5 type  2   force =     0.00088522    0.00051108    0.00000000
     atom    6 type  1   force =     0.00113176    0.00065342    0.00000000
     atom    7 type  1   force =     0.00154146    0.00088996    0.00000000
     atom    8 type  1   force =    -0.00507795   -0.00293176    0.00000000

     Total force =     0.007630     Total SCF correction =     0.000022


     Computing stress (Cartesian axis) and pressure

          total   stress  (Ry/bohr**3)                   (kbar)     P=  -50.47
  -0.00042118   0.00002457   0.00000000        -61.96      3.61      0.00
   0.00002457  -0.00044956   0.00000000          3.61    -66.13      0.00
   0.00000000   0.00000000  -0.00015844          0.00      0.00    -23.31


     number of scf cycles    =   2
     number of bfgs steps    =   1

     enthalpy old            =    -939.4542543722 Ry
     enthalpy new            =    -939.4942877150 Ry

     CASE: enthalpy_new < enthalpy_old

     new trust radius        =       0.1246255625 bohr
     new conv_thr            =            1.0E-10 Ry

     new unit-cell volume =    967.85370 a.u.^3 (   143.42112 Ang^3 )
     density =      7.04100 g/cm^3

CELL_PARAMETERS (alat=  1.88972599)
   1.456966884  -2.523540858   0.000000000
   0.000000000   0.000000000  -4.856904349
   8.776160925   5.066919250   0.000000000

ATOMIC_POSITIONS (angstrom)
Nb       2.922202995   0.004774240  -4.856904349
Ti       2.921702274  -1.677877107  -2.428452174
Ti       5.840895292   0.007521577  -4.856904349
Nb       4.388958627   0.851604379  -2.428452174
Ti       7.312573269   2.539555888  -4.856904349
Nb       7.309385592   0.855353227  -2.428452174
Nb      10.235495963   2.544745646  -4.856904349
Nb       8.766010785   3.378696810  -2.428452174


     NEW-OLD atomic charge density approx. for the potential

     Check: negative/imaginary core charge=   -0.000001    0.000000
     extrapolated charge   96.46151, renormalised to  101.00000

     total cpu time spent up to now is     3661.9 secs

     Self-consistent Calculation

     iteration #  1     ecut=    40.00 Ry     beta= 0.60
     Davidson diagonalization with overlap
     c_bands:  1 eigenvalues not converged
     c_bands:  2 eigenvalues not converged
     c_bands:  1 eigenvalues not converged
     c_bands:  1 eigenvalues not converged
     c_bands:  1 eigenvalues not converged
     c_bands:  1 eigenvalues not converged
     c_bands:  2 eigenvalues not converged
     c_bands:  1 eigenvalues not converged
     c_bands:  1 eigenvalues not converged
     c_bands:  1 eigenvalues not converged
     c_bands:  1 eigenvalues not converged
     c_bands:  1 eigenvalues not converged
     c_bands:  1 eigenvalues not converged
     c_bands:  1 eigenvalues not converged
     c_bands:  1 eigenvalues not converged
     c_bands:  1 eigenvalues not converged
     c_bands:  1 eigenvalues not converged
     c_bands:  2 eigenvalues not converged
     c_bands:  2 eigenvalues not converged
     c_bands:  1 eigenvalues not converged
     c_bands:  2 eigenvalues not converged
     c_bands:  2 eigenvalues not converged
     c_bands:  1 eigenvalues not converged
     c_bands:  2 eigenvalues not converged
     c_bands:  1 eigenvalues not converged
     c_bands:  1 eigenvalues not converged
     c_bands:  2 eigenvalues not converged
     c_bands:  1 eigenvalues not converged
     c_bands:  1 eigenvalues not converged
     c_bands:  1 eigenvalues not converged
     c_bands:  1 eigenvalues not converged
     c_bands:  2 eigenvalues not converged
     c_bands:  1 eigenvalues not converged
     c_bands:  1 eigenvalues not converged
     c_bands:  1 eigenvalues not converged
     c_bands:  4 eigenvalues not converged
     c_bands:  1 eigenvalues not converged
     c_bands:  1 eigenvalues not converged
     c_bands:  1 eigenvalues not converged
     c_bands:  1 eigenvalues not converged
     c_bands:  1 eigenvalues not converged
     c_bands:  1 eigenvalues not converged
     c_bands:  1 eigenvalues not converged
     c_bands:  1 eigenvalues not converged
     c_bands:  1 eigenvalues not converged
     c_bands:  1 eigenvalues not converged
     c_bands:  1 eigenvalues not converged
     c_bands:  1 eigenvalues not converged
     c_bands:  1 eigenvalues not converged
     c_bands:  1 eigenvalues not converged
     c_bands:  1 eigenvalues not converged
     c_bands:  1 eigenvalues not converged
     c_bands:  1 eigenvalues not converged
     c_bands:  1 eigenvalues not converged
     c_bands:  1 eigenvalues not converged
     c_bands:  2 eigenvalues not converged
     c_bands:  2 eigenvalues not converged
     c_bands:  1 eigenvalues not converged
     c_bands:  1 eigenvalues not converged
     c_bands:  1 eigenvalues not converged
     c_bands:  1 eigenvalues not converged
     c_bands:  1 eigenvalues not converged
     c_bands:  1 eigenvalues not converged
     c_bands:  1 eigenvalues not converged
     c_bands:  2 eigenvalues not converged
     c_bands:  1 eigenvalues not converged
     c_bands:  1 eigenvalues not converged
     c_bands:  1 eigenvalues not converged
     c_bands:  1 eigenvalues not converged
     c_bands:  1 eigenvalues not converged
     c_bands:  2 eigenvalues not converged
     c_bands:  1 eigenvalues not converged
     c_bands:  2 eigenvalues not converged
     c_bands:  1 eigenvalues not converged
     c_bands:  1 eigenvalues not converged
     c_bands:  1 eigenvalues not converged
     c_bands:  1 eigenvalues not converged
     c_bands:  2 eigenvalues not converged
     c_bands:  1 eigenvalues not converged
     c_bands:  1 eigenvalues not converged
     c_bands:  1 eigenvalues not converged
     c_bands:  1 eigenvalues not converged
     c_bands:  1 eigenvalues not converged
     c_bands:  2 eigenvalues not converged
     c_bands:  1 eigenvalues not converged
     c_bands:  1 eigenvalues not converged
     c_bands:  1 eigenvalues not converged
     c_bands:  1 eigenvalues not converged
     c_bands:  1 eigenvalues not converged
     c_bands:  2 eigenvalues not converged
     ethr =  1.00E-06,  avg # of iterations = 16.3

     total cpu time spent up to now is     3838.3 secs

     total energy              =    -936.34430238 Ry
     Harris-Foulkes estimate   =    -946.38832026 Ry
     estimated scf accuracy    <       3.29343261 Ry

     iteration #  2     ecut=    40.00 Ry     beta= 0.60
     Davidson diagonalization with overlap
     ethr =  3.26E-03,  avg # of iterations =  5.1

     total cpu time spent up to now is     3924.9 secs

     total energy              =    -935.74141356 Ry
     Harris-Foulkes estimate   =    -946.23319981 Ry
     estimated scf accuracy    <      61.68733050 Ry

     iteration #  3     ecut=    40.00 Ry     beta= 0.60
     Davidson diagonalization with overlap
     ethr =  3.26E-03,  avg # of iterations =  5.5

     total cpu time spent up to now is     4002.6 secs

     total energy              =    -936.72592034 Ry
     Harris-Foulkes estimate   =    -944.44940650 Ry
     estimated scf accuracy    <      85.38488177 Ry

     iteration #  4     ecut=    40.00 Ry     beta= 0.60
     Davidson diagonalization with overlap
     ethr =  3.26E-03,  avg # of iterations =  4.9

     total cpu time spent up to now is     4071.2 secs

     total energy              =    -939.47344526 Ry
     Harris-Foulkes estimate   =    -940.30413594 Ry
     estimated scf accuracy    <       5.25239986 Ry

     iteration #  5     ecut=    40.00 Ry     beta= 0.60
     Davidson diagonalization with overlap
     ethr =  3.26E-03,  avg # of iterations =  3.0

     total cpu time spent up to now is     4116.1 secs

     total energy              =    -939.38351629 Ry
     Harris-Foulkes estimate   =    -940.18473851 Ry
     estimated scf accuracy    <      10.36231683 Ry

     iteration #  6     ecut=    40.00 Ry     beta= 0.60
     Davidson diagonalization with overlap
     ethr =  3.26E-03,  avg # of iterations =  2.5

     total cpu time spent up to now is     4158.6 secs

     total energy              =    -939.52675365 Ry
     Harris-Foulkes estimate   =    -939.88505377 Ry
     estimated scf accuracy    <       3.29568712 Ry

     iteration #  7     ecut=    40.00 Ry     beta= 0.60
     Davidson diagonalization with overlap
     ethr =  3.26E-03,  avg # of iterations =  1.0

     total cpu time spent up to now is     4195.6 secs

     total energy              =    -939.52709515 Ry
     Harris-Foulkes estimate   =    -939.62870318 Ry
     estimated scf accuracy    <       1.24965121 Ry

     iteration #  8     ecut=    40.00 Ry     beta= 0.60
     Davidson diagonalization with overlap
     ethr =  1.24E-03,  avg # of iterations =  1.4

     total cpu time spent up to now is     4233.3 secs

     total energy              =    -939.48546588 Ry
     Harris-Foulkes estimate   =    -939.55243779 Ry
     estimated scf accuracy    <       0.66909461 Ry

     iteration #  9     ecut=    40.00 Ry     beta= 0.60
     Davidson diagonalization with overlap
     ethr =  6.62E-04,  avg # of iterations =  3.3

     total cpu time spent up to now is     4278.5 secs

     total energy              =    -939.51502921 Ry
     Harris-Foulkes estimate   =    -939.50955987 Ry
     estimated scf accuracy    <       0.23701529 Ry

     iteration # 10     ecut=    40.00 Ry     beta= 0.60
     Davidson diagonalization with overlap
     ethr =  2.35E-04,  avg # of iterations =  4.3

     total cpu time spent up to now is     4329.5 secs

     total energy              =    -939.45890150 Ry
     Harris-Foulkes estimate   =    -939.52568032 Ry
     estimated scf accuracy    <       0.20785490 Ry

     iteration # 11     ecut=    40.00 Ry     beta= 0.60
     Davidson diagonalization with overlap
     ethr =  2.06E-04,  avg # of iterations =  5.4

     total cpu time spent up to now is     4397.7 secs

     total energy              =    -939.49747069 Ry
     Harris-Foulkes estimate   =    -939.51268509 Ry
     estimated scf accuracy    <       0.15179562 Ry

     iteration # 12     ecut=    40.00 Ry     beta= 0.60
     Davidson diagonalization with overlap
     ethr =  1.50E-04,  avg # of iterations =  1.2

     total cpu time spent up to now is     4435.0 secs

     total energy              =    -939.49833238 Ry
     Harris-Foulkes estimate   =    -939.50372634 Ry
     estimated scf accuracy    <       0.04315880 Ry

     iteration # 13     ecut=    40.00 Ry     beta= 0.60
     Davidson diagonalization with overlap
     ethr =  4.27E-05,  avg # of iterations =  4.3

     total cpu time spent up to now is     4488.5 secs

     total energy              =    -939.50230504 Ry
     Harris-Foulkes estimate   =    -939.50316333 Ry
     estimated scf accuracy    <       0.00759493 Ry

     iteration # 14     ecut=    40.00 Ry     beta= 0.60
     Davidson diagonalization with overlap
     ethr =  7.52E-06,  avg # of iterations =  6.2

     total cpu time spent up to now is     4555.0 secs

     total energy              =    -939.50106511 Ry
     Harris-Foulkes estimate   =    -939.50527119 Ry
     estimated scf accuracy    <       0.07465522 Ry

     iteration # 15     ecut=    40.00 Ry     beta= 0.60
     Davidson diagonalization with overlap
     ethr =  7.52E-06,  avg # of iterations =  4.5

     total cpu time spent up to now is     4610.8 secs

     total energy              =    -939.50199293 Ry
     Harris-Foulkes estimate   =    -939.50404636 Ry
     estimated scf accuracy    <       0.02216521 Ry

     iteration # 16     ecut=    40.00 Ry     beta= 0.60
     Davidson diagonalization with overlap
     ethr =  7.52E-06,  avg # of iterations =  1.8

     total cpu time spent up to now is     4650.4 secs

     total energy              =    -939.50252062 Ry
     Harris-Foulkes estimate   =    -939.50279084 Ry
     estimated scf accuracy    <       0.00278227 Ry

     iteration # 17     ecut=    40.00 Ry     beta= 0.60
     Davidson diagonalization with overlap
     ethr =  2.75E-06,  avg # of iterations =  4.2

     total cpu time spent up to now is     4704.4 secs

     total energy              =    -939.50273652 Ry
     Harris-Foulkes estimate   =    -939.50280922 Ry
     estimated scf accuracy    <       0.00053286 Ry

     iteration # 18     ecut=    40.00 Ry     beta= 0.60
     Davidson diagonalization with overlap
     ethr =  5.28E-07,  avg # of iterations =  3.7

     total cpu time spent up to now is     4754.1 secs

     total energy              =    -939.50276919 Ry
     Harris-Foulkes estimate   =    -939.50281313 Ry
     estimated scf accuracy    <       0.00033180 Ry

     iteration # 19     ecut=    40.00 Ry     beta= 0.60
     Davidson diagonalization with overlap
     ethr =  3.29E-07,  avg # of iterations =  1.3

     total cpu time spent up to now is     4792.0 secs

     total energy              =    -939.50278610 Ry
     Harris-Foulkes estimate   =    -939.50278989 Ry
     estimated scf accuracy    <       0.00003334 Ry

     iteration # 20     ecut=    40.00 Ry     beta= 0.60
     Davidson diagonalization with overlap
     ethr =  3.30E-08,  avg # of iterations =  4.3

     total cpu time spent up to now is     4850.6 secs

     total energy              =    -939.50279128 Ry
     Harris-Foulkes estimate   =    -939.50279289 Ry
     estimated scf accuracy    <       0.00001010 Ry

     iteration # 21     ecut=    40.00 Ry     beta= 0.60
     Davidson diagonalization with overlap
     ethr =  1.00E-08,  avg # of iterations =  2.8

     total cpu time spent up to now is     4894.1 secs

     total energy              =    -939.50279183 Ry
     Harris-Foulkes estimate   =    -939.50279205 Ry
     estimated scf accuracy    <       0.00000155 Ry

     iteration # 22     ecut=    40.00 Ry     beta= 0.60
     Davidson diagonalization with overlap
     ethr =  1.53E-09,  avg # of iterations =  4.2

     total cpu time spent up to now is     4953.4 secs

     total energy              =    -939.50279209 Ry
     Harris-Foulkes estimate   =    -939.50279231 Ry
     estimated scf accuracy    <       0.00000220 Ry

     iteration # 23     ecut=    40.00 Ry     beta= 0.60
     Davidson diagonalization with overlap
     ethr =  1.53E-09,  avg # of iterations =  1.0

     total cpu time spent up to now is     4990.6 secs

     total energy              =    -939.50279207 Ry
     Harris-Foulkes estimate   =    -939.50279216 Ry
     estimated scf accuracy    <       0.00000075 Ry

     iteration # 24     ecut=    40.00 Ry     beta= 0.60
     Davidson diagonalization with overlap
     ethr =  7.40E-10,  avg # of iterations =  3.1

     total cpu time spent up to now is     5037.9 secs

     total energy              =    -939.50279212 Ry
     Harris-Foulkes estimate   =    -939.50279214 Ry
     estimated scf accuracy    <       0.00000018 Ry

     iteration # 25     ecut=    40.00 Ry     beta= 0.60
     Davidson diagonalization with overlap
     ethr =  1.76E-10,  avg # of iterations =  3.0

     total cpu time spent up to now is     5084.9 secs

     total energy              =    -939.50279213 Ry
     Harris-Foulkes estimate   =    -939.50279214 Ry
     estimated scf accuracy    <       0.00000025 Ry

     iteration # 26     ecut=    40.00 Ry     beta= 0.60
     Davidson diagonalization with overlap
     ethr =  1.76E-10,  avg # of iterations =  1.0

     total cpu time spent up to now is     5122.0 secs

     total energy              =    -939.50279213 Ry
     Harris-Foulkes estimate   =    -939.50279214 Ry
     estimated scf accuracy    <       0.00000002 Ry

     iteration # 27     ecut=    40.00 Ry     beta= 0.60
     Davidson diagonalization with overlap
     ethr =  1.58E-11,  avg # of iterations =  3.8

     total cpu time spent up to now is     5175.4 secs

     total energy              =    -939.50279214 Ry
     Harris-Foulkes estimate   =    -939.50279214 Ry
     estimated scf accuracy    <          4.2E-09 Ry

     iteration # 28     ecut=    40.00 Ry     beta= 0.60
     Davidson diagonalization with overlap
     ethr =  4.11E-12,  avg # of iterations =  2.4

     total cpu time spent up to now is     5218.4 secs

     total energy              =    -939.50279214 Ry
     Harris-Foulkes estimate   =    -939.50279214 Ry
     estimated scf accuracy    <          3.3E-10 Ry

     iteration # 29     ecut=    40.00 Ry     beta= 0.60
     Davidson diagonalization with overlap
     ethr =  3.24E-13,  avg # of iterations =  4.7

     total cpu time spent up to now is     5281.3 secs

     total energy              =    -939.50279214 Ry
     Harris-Foulkes estimate   =    -939.50279214 Ry
     estimated scf accuracy    <          1.8E-10 Ry

     iteration # 30     ecut=    40.00 Ry     beta= 0.60
     Davidson diagonalization with overlap
     ethr =  1.76E-13,  avg # of iterations =  1.6

     total cpu time spent up to now is     5320.2 secs

     End of self-consistent calculation

     Number of k-points >= 100: set verbosity='high' to print the bands.

     the Fermi energy is    16.3669 ev

!    total energy              =    -939.50279214 Ry
     Harris-Foulkes estimate   =    -939.50279214 Ry
     estimated scf accuracy    <          7.9E-11 Ry

     The total energy is the sum of the following terms:

     one-electron contribution =    -207.86137499 Ry
     hartree contribution      =     149.09195552 Ry
     xc contribution           =    -135.71213466 Ry
     ewald contribution        =    -745.01818219 Ry
     smearing contrib. (-TS)   =      -0.00305583 Ry

     convergence has been achieved in  30 iterations

     Forces acting on atoms (cartesian axes, Ry/au):

     atom    1 type  1   force =     0.00063929    0.00036909    0.00000000
     atom    2 type  2   force =     0.00027281    0.00015751    0.00000000
     atom    3 type  2   force =    -0.00059705   -0.00034471    0.00000000
     atom    4 type  1   force =     0.00182201    0.00105194    0.00000000
     atom    5 type  2   force =     0.00017774    0.00010262    0.00000000
     atom    6 type  1   force =     0.00043444    0.00025082    0.00000000
     atom    7 type  1   force =     0.00133874    0.00077292    0.00000000
     atom    8 type  1   force =    -0.00408798   -0.00236020    0.00000000

     Total force =     0.005524     Total SCF correction =     0.000047


     Computing stress (Cartesian axis) and pressure

          total   stress  (Ry/bohr**3)                   (kbar)     P=   11.90
   0.00000930   0.00002542   0.00000000          1.37      3.74      0.00
   0.00002542  -0.00002005   0.00000000          3.74     -2.95      0.00
   0.00000000   0.00000000   0.00025349          0.00      0.00     37.29


     number of scf cycles    =   3
     number of bfgs steps    =   2

     enthalpy old            =    -939.4942877150 Ry
     enthalpy new            =    -939.5027921374 Ry

     CASE: enthalpy_new < enthalpy_old

     new trust radius        =       0.0318033166 bohr
     new conv_thr            =            1.0E-10 Ry

     new unit-cell volume =    971.28914 a.u.^3 (   143.93020 Ang^3 )
     density =      7.01610 g/cm^3

CELL_PARAMETERS (alat=  1.88972599)
   1.454828909  -2.519837777   0.000000000
   0.000000000   0.000000000  -4.881729798
   8.775400960   5.066480484   0.000000000

ATOMIC_POSITIONS (angstrom)
Nb       2.921227547   0.006679786  -4.881729798
Ti       2.919589172  -1.674159662  -2.440864899
Ti       5.838045967   0.010813961  -4.881729798
Nb       4.388445464   0.853776828  -2.440864899
Ti       7.311046353   2.541143044  -4.881729798
Nb       7.306958549   0.858889417  -2.440864899
Nb      10.233235831   2.548378200  -4.881729798
Nb       8.762301553   3.379024007  -2.440864899


     NEW-OLD atomic charge density approx. for the potential

     Check: negative/imaginary core charge=   -0.000001    0.000000
     extrapolated charge  101.34658, renormalised to  101.00000

     total cpu time spent up to now is     5349.4 secs

     Self-consistent Calculation

     iteration #  1     ecut=    40.00 Ry     beta= 0.60
     Davidson diagonalization with overlap
     c_bands:  1 eigenvalues not converged
     c_bands:  1 eigenvalues not converged
     ethr =  1.00E-06,  avg # of iterations =  5.4

     total cpu time spent up to now is     5440.0 secs

     total energy              =    -939.49639009 Ry
     Harris-Foulkes estimate   =    -938.99505726 Ry
     estimated scf accuracy    <       0.00684362 Ry

     iteration #  2     ecut=    40.00 Ry     beta= 0.60
     Davidson diagonalization with overlap
     c_bands:  1 eigenvalues not converged
     c_bands:  1 eigenvalues not converged
     c_bands:  1 eigenvalues not converged
     c_bands:  1 eigenvalues not converged
     c_bands:  1 eigenvalues not converged
     c_bands:  1 eigenvalues not converged
     c_bands:  1 eigenvalues not converged
     c_bands:  1 eigenvalues not converged
     c_bands:  1 eigenvalues not converged
     c_bands:  2 eigenvalues not converged
     c_bands:  1 eigenvalues not converged
     c_bands:  1 eigenvalues not converged
     ethr =  6.78E-06,  avg # of iterations =  9.0

     total cpu time spent up to now is     5538.4 secs

     total energy              =    -939.47580459 Ry
     Harris-Foulkes estimate   =    -939.53199966 Ry
     estimated scf accuracy    <       0.72853149 Ry

     iteration #  3     ecut=    40.00 Ry     beta= 0.60
     Davidson diagonalization with overlap
     ethr =  6.78E-06,  avg # of iterations =  6.4

     total cpu time spent up to now is     5626.2 secs

     total energy              =    -939.49511359 Ry
     Harris-Foulkes estimate   =    -939.51383253 Ry
     estimated scf accuracy    <       0.28252922 Ry

     iteration #  4     ecut=    40.00 Ry     beta= 0.60
     Davidson diagonalization with overlap
     ethr =  6.78E-06,  avg # of iterations =  5.7

     total cpu time spent up to now is     5703.7 secs

     total energy              =    -939.50314773 Ry
     Harris-Foulkes estimate   =    -939.50530282 Ry
     estimated scf accuracy    <       0.00980082 Ry

     iteration #  5     ecut=    40.00 Ry     beta= 0.60
     Davidson diagonalization with overlap
     ethr =  6.78E-06,  avg # of iterations =  6.1

     total cpu time spent up to now is     5770.1 secs

     total energy              =    -939.50178357 Ry
     Harris-Foulkes estimate   =    -939.50685396 Ry
     estimated scf accuracy    <       0.09414007 Ry

     iteration #  6     ecut=    40.00 Ry     beta= 0.60
     Davidson diagonalization with overlap
     ethr =  6.78E-06,  avg # of iterations =  4.8

     total cpu time spent up to now is     5825.7 secs

     total energy              =    -939.50412183 Ry
     Harris-Foulkes estimate   =    -939.50443161 Ry
     estimated scf accuracy    <       0.00442788 Ry

     iteration #  7     ecut=    40.00 Ry     beta= 0.60
     Davidson diagonalization with overlap
     ethr =  4.38E-06,  avg # of iterations =  2.5

     total cpu time spent up to now is     5868.5 secs

     total energy              =    -939.50410764 Ry
     Harris-Foulkes estimate   =    -939.50426093 Ry
     estimated scf accuracy    <       0.00190430 Ry

     iteration #  8     ecut=    40.00 Ry     beta= 0.60
     Davidson diagonalization with overlap
     ethr =  1.89E-06,  avg # of iterations =  1.6

     total cpu time spent up to now is     5907.7 secs

     total energy              =    -939.50403006 Ry
     Harris-Foulkes estimate   =    -939.50414461 Ry
     estimated scf accuracy    <       0.00122728 Ry

     iteration #  9     ecut=    40.00 Ry     beta= 0.60
     Davidson diagonalization with overlap
     ethr =  1.22E-06,  avg # of iterations =  1.4

     total cpu time spent up to now is     5946.4 secs

     total energy              =    -939.50397007 Ry
     Harris-Foulkes estimate   =    -939.50405757 Ry
     estimated scf accuracy    <       0.00069591 Ry

     iteration # 10     ecut=    40.00 Ry     beta= 0.60
     Davidson diagonalization with overlap
     ethr =  6.89E-07,  avg # of iterations =  3.4

     total cpu time spent up to now is     5994.4 secs

     total energy              =    -939.50396452 Ry
     Harris-Foulkes estimate   =    -939.50400812 Ry
     estimated scf accuracy    <       0.00021537 Ry

     iteration # 11     ecut=    40.00 Ry     beta= 0.60
     Davidson diagonalization with overlap
     ethr =  2.13E-07,  avg # of iterations =  3.8

     total cpu time spent up to now is     6047.4 secs

     total energy              =    -939.50398764 Ry
     Harris-Foulkes estimate   =    -939.50399161 Ry
     estimated scf accuracy    <       0.00003099 Ry

     iteration # 12     ecut=    40.00 Ry     beta= 0.60
     Davidson diagonalization with overlap
     ethr =  3.07E-08,  avg # of iterations =  3.4

     total cpu time spent up to now is     6096.9 secs

     total energy              =    -939.50399090 Ry
     Harris-Foulkes estimate   =    -939.50399114 Ry
     estimated scf accuracy    <       0.00000087 Ry

     iteration # 13     ecut=    40.00 Ry     beta= 0.60
     Davidson diagonalization with overlap
     ethr =  8.62E-10,  avg # of iterations =  5.1

     total cpu time spent up to now is     6171.5 secs

     total energy              =    -939.50399059 Ry
     Harris-Foulkes estimate   =    -939.50399212 Ry
     estimated scf accuracy    <       0.00002121 Ry

     iteration # 14     ecut=    40.00 Ry     beta= 0.60
     Davidson diagonalization with overlap
     ethr =  8.62E-10,  avg # of iterations =  4.3

     total cpu time spent up to now is     6231.3 secs

     total energy              =    -939.50399132 Ry
     Harris-Foulkes estimate   =    -939.50399162 Ry
     estimated scf accuracy    <       0.00000406 Ry

     iteration # 15     ecut=    40.00 Ry     beta= 0.60
     Davidson diagonalization with overlap
     ethr =  8.62E-10,  avg # of iterations =  3.1

     total cpu time spent up to now is     6278.6 secs

     total energy              =    -939.50399144 Ry
     Harris-Foulkes estimate   =    -939.50399150 Ry
     estimated scf accuracy    <       0.00000032 Ry

     iteration # 16     ecut=    40.00 Ry     beta= 0.60
     Davidson diagonalization with overlap
     ethr =  3.18E-10,  avg # of iterations =  3.6

     total cpu time spent up to now is     6330.9 secs

     total energy              =    -939.50399140 Ry
     Harris-Foulkes estimate   =    -939.50399154 Ry
     estimated scf accuracy    <       0.00000217 Ry

     iteration # 17     ecut=    40.00 Ry     beta= 0.60
     Davidson diagonalization with overlap
     ethr =  3.18E-10,  avg # of iterations =  3.4

     total cpu time spent up to now is     6377.4 secs

     total energy              =    -939.50399146 Ry
     Harris-Foulkes estimate   =    -939.50399147 Ry
     estimated scf accuracy    <       0.00000003 Ry

     iteration # 18     ecut=    40.00 Ry     beta= 0.60
     Davidson diagonalization with overlap
     ethr =  2.95E-11,  avg # of iterations =  4.2

     total cpu time spent up to now is     6437.0 secs

     total energy              =    -939.50399146 Ry
     Harris-Foulkes estimate   =    -939.50399148 Ry
     estimated scf accuracy    <       0.00000012 Ry

     iteration # 19     ecut=    40.00 Ry     beta= 0.60
     Davidson diagonalization with overlap
     ethr =  2.95E-11,  avg # of iterations =  3.6

     total cpu time spent up to now is     6488.8 secs

     total energy              =    -939.50399147 Ry
     Harris-Foulkes estimate   =    -939.50399147 Ry
     estimated scf accuracy    <       0.00000001 Ry

     iteration # 20     ecut=    40.00 Ry     beta= 0.60
     Davidson diagonalization with overlap
     ethr =  1.18E-11,  avg # of iterations =  1.5

     total cpu time spent up to now is     6527.1 secs

     total energy              =    -939.50399147 Ry
     Harris-Foulkes estimate   =    -939.50399147 Ry
     estimated scf accuracy    <          4.6E-09 Ry

     iteration # 21     ecut=    40.00 Ry     beta= 0.60
     Davidson diagonalization with overlap
     ethr =  4.57E-12,  avg # of iterations =  3.5

     total cpu time spent up to now is     6576.3 secs

     total energy              =    -939.50399147 Ry
     Harris-Foulkes estimate   =    -939.50399147 Ry
     estimated scf accuracy    <          2.7E-09 Ry

     iteration # 22     ecut=    40.00 Ry     beta= 0.60
     Davidson diagonalization with overlap
     ethr =  2.71E-12,  avg # of iterations =  1.5

     total cpu time spent up to now is     6614.8 secs

     total energy              =    -939.50399147 Ry
     Harris-Foulkes estimate   =    -939.50399147 Ry
     estimated scf accuracy    <          4.0E-10 Ry

     iteration # 23     ecut=    40.00 Ry     beta= 0.60
     Davidson diagonalization with overlap
     ethr =  3.98E-13,  avg # of iterations =  4.0

     total cpu time spent up to now is     6669.8 secs

     total energy              =    -939.50399147 Ry
     Harris-Foulkes estimate   =    -939.50399147 Ry
     estimated scf accuracy    <          1.4E-10 Ry

     iteration # 24     ecut=    40.00 Ry     beta= 0.60
     Davidson diagonalization with overlap
     ethr =  1.42E-13,  avg # of iterations =  3.9

     total cpu time spent up to now is     6722.5 secs

     total energy              =    -939.50399147 Ry
     Harris-Foulkes estimate   =    -939.50399147 Ry
     estimated scf accuracy    <          1.8E-09 Ry

     iteration # 25     ecut=    40.00 Ry     beta= 0.60
     Davidson diagonalization with overlap
     ethr =  1.42E-13,  avg # of iterations =  3.7

     total cpu time spent up to now is     6772.1 secs

     End of self-consistent calculation

     Number of k-points >= 100: set verbosity='high' to print the bands.

     the Fermi energy is    16.2965 ev

!    total energy              =    -939.50399147 Ry
     Harris-Foulkes estimate   =    -939.50399147 Ry
     estimated scf accuracy    <          4.4E-11 Ry

     The total energy is the sum of the following terms:

     one-electron contribution =    -209.18888424 Ry
     hartree contribution      =     149.48358418 Ry
     xc contribution           =    -135.68654347 Ry
     ewald contribution        =    -744.10910658 Ry
     smearing contrib. (-TS)   =      -0.00304136 Ry

     convergence has been achieved in  25 iterations

     Forces acting on atoms (cartesian axes, Ry/au):

     atom    1 type  1   force =     0.00079259    0.00045760    0.00000000
     atom    2 type  2   force =    -0.00006236   -0.00003600    0.00000000
     atom    3 type  2   force =    -0.00078030   -0.00045050    0.00000000
     atom    4 type  1   force =     0.00156222    0.00090195    0.00000000
     atom    5 type  2   force =     0.00078263    0.00045185    0.00000000
     atom    6 type  1   force =     0.00005309    0.00003065    0.00000000
     atom    7 type  1   force =     0.00174291    0.00100627    0.00000000
     atom    8 type  1   force =    -0.00409077   -0.00236181    0.00000000

     Total force =     0.005665     Total SCF correction =     0.000021


     Computing stress (Cartesian axis) and pressure

          total   stress  (Ry/bohr**3)                   (kbar)     P=    6.31
  -0.00001739   0.00002566   0.00000000         -2.56      3.77      0.00
   0.00002566  -0.00004702   0.00000000          3.77     -6.92      0.00
   0.00000000   0.00000000   0.00019310          0.00      0.00     28.41


     number of scf cycles    =   4
     number of bfgs steps    =   3

     enthalpy old            =    -939.5027921374 Ry
     enthalpy new            =    -939.5039914697 Ry

     CASE: enthalpy_new < enthalpy_old


     WARNING: bfgs curvature condition failed, Theta= 0.994
     new trust radius        =       0.0475465373 bohr
     new conv_thr            =            1.0E-10 Ry

     new unit-cell volume =    972.86962 a.u.^3 (   144.16440 Ang^3 )
     density =      7.00470 g/cm^3

CELL_PARAMETERS (alat=  1.88972599)
   1.448469083  -2.508822236   0.000000000
   0.000000000   0.000000000  -4.918967972
   8.761440402   5.058420353   0.000000000

ATOMIC_POSITIONS (angstrom)
Nb       2.915204844   0.010546270  -4.918967972
Ti       2.910996004  -1.664433534  -2.459483986
Ti       5.823892577   0.017329886  -4.918967972
Nb       4.381011779   0.856828689  -2.459483986
Ti       7.298041264   2.540978246  -4.918967972
Nb       7.291478529   0.864639420  -2.459483986
Nb      10.214452161   2.552220832  -4.918967972
Nb       8.742465036   3.374915091  -2.459483986


     NEW-OLD atomic charge density approx. for the potential

     Check: negative/imaginary core charge=   -0.000001    0.000000
     extrapolated charge  101.15918, renormalised to  101.00000

     total cpu time spent up to now is     6801.2 secs

     Self-consistent Calculation

     iteration #  1     ecut=    40.00 Ry     beta= 0.60
     Davidson diagonalization with overlap
     c_bands:  1 eigenvalues not converged
     ethr =  1.00E-06,  avg # of iterations =  5.3

     total cpu time spent up to now is     6897.4 secs

     total energy              =    -939.50417100 Ry
     Harris-Foulkes estimate   =    -939.27074672 Ry
     estimated scf accuracy    <       0.00123100 Ry

     iteration #  2     ecut=    40.00 Ry     beta= 0.60
     Davidson diagonalization with overlap
     c_bands:  1 eigenvalues not converged
     c_bands:  1 eigenvalues not converged
     c_bands:  1 eigenvalues not converged
     c_bands:  1 eigenvalues not converged
     c_bands:  1 eigenvalues not converged
     c_bands:  1 eigenvalues not converged
     c_bands:  1 eigenvalues not converged
     c_bands:  1 eigenvalues not converged
     c_bands:  1 eigenvalues not converged
     c_bands:  2 eigenvalues not converged
     c_bands:  1 eigenvalues not converged
     c_bands:  1 eigenvalues not converged
     c_bands:  1 eigenvalues not converged
     c_bands:  1 eigenvalues not converged
     c_bands:  1 eigenvalues not converged
     c_bands:  1 eigenvalues not converged
     c_bands:  1 eigenvalues not converged
     c_bands:  1 eigenvalues not converged
     ethr =  1.22E-06,  avg # of iterations =  7.5

     total cpu time spent up to now is     6988.7 secs

     total energy              =    -939.50204872 Ry
     Harris-Foulkes estimate   =    -939.50922855 Ry
     estimated scf accuracy    <       0.07408285 Ry

     iteration #  3     ecut=    40.00 Ry     beta= 0.60
     Davidson diagonalization with overlap
     ethr =  1.22E-06,  avg # of iterations =  6.0

     total cpu time spent up to now is     7070.3 secs

     total energy              =    -939.50404774 Ry
     Harris-Foulkes estimate   =    -939.50707446 Ry
     estimated scf accuracy    <       0.04513082 Ry

[...]
     Harris-Foulkes estimate   =    -940.85614804 Ry
     estimated scf accuracy    <      22.22773333 Ry

     iteration # 11     ecut=    40.00 Ry     beta= 0.60
     Davidson diagonalization with overlap
     ethr =  1.00E-02,  avg # of iterations =  4.9

     total cpu time spent up to now is    47064.5 secs

     total energy              =    -936.68742843 Ry
     Harris-Foulkes estimate   =    -950.63834777 Ry
     estimated scf accuracy    <     208.94009828 Ry

     iteration # 12     ecut=    40.00 Ry     beta= 0.60
     Davidson diagonalization with overlap
     ethr =  1.00E-02,  avg # of iterations =  2.9

     total cpu time spent up to now is    47109.7 secs

     total energy              =    -939.36830155 Ry
     Harris-Foulkes estimate   =    -940.10428710 Ry
     estimated scf accuracy    <      15.15913495 Ry

     iteration # 13     ecut=    40.00 Ry     beta= 0.60
     Davidson diagonalization with overlap
     ethr =  1.00E-02,  avg # of iterations =  1.2

     total cpu time spent up to now is    47146.1 secs

     total energy              =    -939.44913675 Ry
     Harris-Foulkes estimate   =    -939.63001205 Ry
     estimated scf accuracy    <       2.88084134 Ry

     iteration # 14     ecut=    40.00 Ry     beta= 0.60
     Davidson diagonalization with overlap
     ethr =  2.85E-03,  avg # of iterations =  5.0

     total cpu time spent up to now is    47199.4 secs

     total energy              =    -939.57818454 Ry
     Harris-Foulkes estimate   =    -939.60758643 Ry
     estimated scf accuracy    <       0.48391075 Ry

     iteration # 15     ecut=    40.00 Ry     beta= 0.60
     Davidson diagonalization with overlap
     ethr =  4.79E-04,  avg # of iterations =  7.1

     total cpu time spent up to now is    47271.5 secs

     total energy              =    -939.73348893 Ry
     Harris-Foulkes estimate   =    -939.68018501 Ry
     estimated scf accuracy    <       1.75856656 Ry

     iteration # 16     ecut=    40.00 Ry     beta= 0.60
     Davidson diagonalization with overlap
     ethr =  4.79E-04,  avg # of iterations =  1.2

     total cpu time spent up to now is    47307.7 secs

     total energy              =    -939.65610873 Ry
     Harris-Foulkes estimate   =    -939.75675102 Ry
     estimated scf accuracy    <       2.56837435 Ry

     iteration # 17     ecut=    40.00 Ry     beta= 0.60
     Davidson diagonalization with overlap
     ethr =  4.79E-04,  avg # of iterations =  1.0

     total cpu time spent up to now is    47343.5 secs

     total energy              =    -939.53575600 Ry
     Harris-Foulkes estimate   =    -939.67343927 Ry
     estimated scf accuracy    <       1.92853214 Ry

     iteration # 18     ecut=    40.00 Ry     beta= 0.60
     Davidson diagonalization with overlap
     ethr =  4.79E-04,  avg # of iterations =  1.8

     total cpu time spent up to now is    47381.8 secs

     total energy              =    -939.58635842 Ry
     Harris-Foulkes estimate   =    -939.57941653 Ry
     estimated scf accuracy    <       0.31224569 Ry

     iteration # 19     ecut=    40.00 Ry     beta= 0.60
     Davidson diagonalization with overlap
     ethr =  3.09E-04,  avg # of iterations =  1.6

     total cpu time spent up to now is    47419.4 secs

     total energy              =    -939.54771879 Ry
     Harris-Foulkes estimate   =    -939.59565487 Ry
     estimated scf accuracy    <       0.51360129 Ry

     iteration # 20     ecut=    40.00 Ry     beta= 0.60
     Davidson diagonalization with overlap
     ethr =  3.09E-04,  avg # of iterations =  3.2

     total cpu time spent up to now is    47463.5 secs

     total energy              =    -939.52436097 Ry
     Harris-Foulkes estimate   =    -939.57617046 Ry
     estimated scf accuracy    <       0.43249851 Ry

     iteration # 21     ecut=    40.00 Ry     beta= 0.60
     Davidson diagonalization with overlap
     ethr =  3.09E-04,  avg # of iterations =  2.6

     total cpu time spent up to now is    47506.5 secs

     total energy              =    -939.47668591 Ry
     Harris-Foulkes estimate   =    -939.57565015 Ry
     estimated scf accuracy    <       0.37019759 Ry

     iteration # 22     ecut=    40.00 Ry     beta= 0.60
     Davidson diagonalization with overlap
     ethr =  3.09E-04,  avg # of iterations =  5.6

     total cpu time spent up to now is    47571.4 secs

     total energy              =    -939.49634372 Ry
     Harris-Foulkes estimate   =    -939.56967227 Ry
     estimated scf accuracy    <       0.49075768 Ry

     iteration # 23     ecut=    40.00 Ry     beta= 0.60
     Davidson diagonalization with overlap
     ethr =  3.09E-04,  avg # of iterations =  4.4

     total cpu time spent up to now is    47623.1 secs

     total energy              =    -939.50904447 Ry
     Harris-Foulkes estimate   =    -939.57057624 Ry
     estimated scf accuracy    <       0.61162943 Ry

     iteration # 24     ecut=    40.00 Ry     beta= 0.60
     Davidson diagonalization with overlap
     ethr =  3.09E-04,  avg # of iterations =  1.4

     total cpu time spent up to now is    47659.6 secs

     total energy              =    -939.53186207 Ry
     Harris-Foulkes estimate   =    -939.53771681 Ry
     estimated scf accuracy    <       0.03619007 Ry

     iteration # 25     ecut=    40.00 Ry     beta= 0.60
     Davidson diagonalization with overlap
     ethr =  3.58E-05,  avg # of iterations =  6.4

     total cpu time spent up to now is    47730.7 secs

     total energy              =    -939.53535548 Ry
     Harris-Foulkes estimate   =    -939.54349674 Ry
     estimated scf accuracy    <       0.08047954 Ry

     iteration # 26     ecut=    40.00 Ry     beta= 0.60
     Davidson diagonalization with overlap
     c_bands:  1 eigenvalues not converged
     ethr =  3.58E-05,  avg # of iterations =  2.8

     total cpu time spent up to now is    47772.8 secs

     total energy              =    -939.53724383 Ry
     Harris-Foulkes estimate   =    -939.54150933 Ry
     estimated scf accuracy    <       0.04962627 Ry

     iteration # 27     ecut=    40.00 Ry     beta= 0.60
     Davidson diagonalization with overlap
     ethr =  3.58E-05,  avg # of iterations =  1.7

     total cpu time spent up to now is    47810.7 secs

     total energy              =    -939.53888175 Ry
     Harris-Foulkes estimate   =    -939.54021030 Ry
     estimated scf accuracy    <       0.01118712 Ry

     iteration # 28     ecut=    40.00 Ry     beta= 0.60
     Davidson diagonalization with overlap
     c_bands:  1 eigenvalues not converged
     ethr =  1.11E-05,  avg # of iterations =  3.0

     total cpu time spent up to now is    47853.6 secs

     total energy              =    -939.53949730 Ry
     Harris-Foulkes estimate   =    -939.53973723 Ry
     estimated scf accuracy    <       0.00234676 Ry

     iteration # 29     ecut=    40.00 Ry     beta= 0.60
     Davidson diagonalization with overlap
     ethr =  2.32E-06,  avg # of iterations =  7.5

     total cpu time spent up to now is    47920.1 secs

     total energy              =    -939.53962864 Ry
     Harris-Foulkes estimate   =    -939.53974484 Ry
     estimated scf accuracy    <       0.00070548 Ry

     iteration # 30     ecut=    40.00 Ry     beta= 0.60
     Davidson diagonalization with overlap
     ethr =  6.98E-07,  avg # of iterations =  2.6

     total cpu time spent up to now is    47962.2 secs

     total energy              =    -939.53969067 Ry
     Harris-Foulkes estimate   =    -939.53970090 Ry
     estimated scf accuracy    <       0.00006839 Ry

     iteration # 31     ecut=    40.00 Ry     beta= 0.60
     Davidson diagonalization with overlap
     ethr =  6.77E-08,  avg # of iterations =  4.1

     total cpu time spent up to now is    48019.3 secs

     total energy              =    -939.53968990 Ry
     Harris-Foulkes estimate   =    -939.53972480 Ry
     estimated scf accuracy    <       0.00040762 Ry

     iteration # 32     ecut=    40.00 Ry     beta= 0.60
     Davidson diagonalization with overlap
     ethr =  6.77E-08,  avg # of iterations =  3.2

     total cpu time spent up to now is    48065.7 secs

     total energy              =    -939.53970509 Ry
     Harris-Foulkes estimate   =    -939.53970732 Ry
     estimated scf accuracy    <       0.00001751 Ry

     iteration # 33     ecut=    40.00 Ry     beta= 0.60
     Davidson diagonalization with overlap
     ethr =  1.73E-08,  avg # of iterations =  2.9

     total cpu time spent up to now is    48110.7 secs

     total energy              =    -939.53970677 Ry
     Harris-Foulkes estimate   =    -939.53970705 Ry
     estimated scf accuracy    <       0.00000130 Ry

     iteration # 34     ecut=    40.00 Ry     beta= 0.60
     Davidson diagonalization with overlap
     ethr =  1.29E-09,  avg # of iterations =  4.2

     total cpu time spent up to now is    48168.9 secs

     total energy              =    -939.53970659 Ry
     Harris-Foulkes estimate   =    -939.53970741 Ry
     estimated scf accuracy    <       0.00000821 Ry

     iteration # 35     ecut=    40.00 Ry     beta= 0.60
     Davidson diagonalization with overlap
     ethr =  1.29E-09,  avg # of iterations =  3.9

     total cpu time spent up to now is    48222.3 secs

     total energy              =    -939.53970684 Ry
     Harris-Foulkes estimate   =    -939.53970726 Ry
     estimated scf accuracy    <       0.00000479 Ry

     iteration # 36     ecut=    40.00 Ry     beta= 0.60
     Davidson diagonalization with overlap
     ethr =  1.29E-09,  avg # of iterations =  2.8

     total cpu time spent up to now is    48266.2 secs

     total energy              =    -939.53970701 Ry
     Harris-Foulkes estimate   =    -939.53970708 Ry
     estimated scf accuracy    <       0.00000046 Ry

     iteration # 37     ecut=    40.00 Ry     beta= 0.60
     Davidson diagonalization with overlap
     ethr =  4.55E-10,  avg # of iterations =  3.1

     total cpu time spent up to now is    48312.5 secs

     total energy              =    -939.53970700 Ry
     Harris-Foulkes estimate   =    -939.53970709 Ry
     estimated scf accuracy    <       0.00000100 Ry

     iteration # 38     ecut=    40.00 Ry     beta= 0.60
     Davidson diagonalization with overlap
     ethr =  4.55E-10,  avg # of iterations =  2.5

     total cpu time spent up to now is    48353.3 secs

     total energy              =    -939.53970700 Ry
     Harris-Foulkes estimate   =    -939.53970707 Ry
     estimated scf accuracy    <       0.00000085 Ry

     iteration # 39     ecut=    40.00 Ry     beta= 0.60
     Davidson diagonalization with overlap
     ethr =  4.55E-10,  avg # of iterations =  1.8

     total cpu time spent up to now is    48391.7 secs

     total energy              =    -939.53970704 Ry
     Harris-Foulkes estimate   =    -939.53970705 Ry
     estimated scf accuracy    <       0.00000012 Ry

     iteration # 40     ecut=    40.00 Ry     beta= 0.60
     Davidson diagonalization with overlap
     ethr =  1.16E-10,  avg # of iterations =  2.0

     total cpu time spent up to now is    48431.1 secs

     total energy              =    -939.53970705 Ry
     Harris-Foulkes estimate   =    -939.53970705 Ry
     estimated scf accuracy    <          8.7E-09 Ry

     iteration # 41     ecut=    40.00 Ry     beta= 0.60
     Davidson diagonalization with overlap
     ethr =  8.62E-12,  avg # of iterations =  4.1

     total cpu time spent up to now is    48487.3 secs

     total energy              =    -939.53970705 Ry
     Harris-Foulkes estimate   =    -939.53970705 Ry
     estimated scf accuracy    <       0.00000002 Ry

     iteration # 42     ecut=    40.00 Ry     beta= 0.60
     Davidson diagonalization with overlap
     ethr =  8.62E-12,  avg # of iterations =  2.3

     total cpu time spent up to now is    48527.3 secs

     total energy              =    -939.53970705 Ry
     Harris-Foulkes estimate   =    -939.53970705 Ry
     estimated scf accuracy    <          2.8E-09 Ry

     iteration # 43     ecut=    40.00 Ry     beta= 0.60
     Davidson diagonalization with overlap
     ethr =  2.78E-12,  avg # of iterations =  3.7

     total cpu time spent up to now is    48579.2 secs

     total energy              =    -939.53970705 Ry
     Harris-Foulkes estimate   =    -939.53970705 Ry
     estimated scf accuracy    <          1.0E-09 Ry

     iteration # 44     ecut=    40.00 Ry     beta= 0.60
     Davidson diagonalization with overlap
     ethr =  1.00E-12,  avg # of iterations =  1.1

     total cpu time spent up to now is    48614.9 secs

     total energy              =    -939.53970705 Ry
     Harris-Foulkes estimate   =    -939.53970705 Ry
     estimated scf accuracy    <          2.0E-10 Ry

     iteration # 45     ecut=    40.00 Ry     beta= 0.60
     Davidson diagonalization with overlap
     ethr =  2.02E-13,  avg # of iterations =  3.2

     total cpu time spent up to now is    48660.4 secs

     total energy              =    -939.53970705 Ry
     Harris-Foulkes estimate   =    -939.53970705 Ry
     estimated scf accuracy    <          7.8E-11 Ry

     iteration # 46     ecut=    40.00 Ry     beta= 0.60
     Davidson diagonalization with overlap
     ethr =  1.00E-13,  avg # of iterations =  1.4

     total cpu time spent up to now is    48697.4 secs

     total energy              =    -939.53970705 Ry
     Harris-Foulkes estimate   =    -939.53970705 Ry
     estimated scf accuracy    <          2.9E-11 Ry

     iteration # 47     ecut=    40.00 Ry     beta= 0.60
     Davidson diagonalization with overlap
     ethr =  1.00E-13,  avg # of iterations =  1.2

     total cpu time spent up to now is    48733.4 secs

     total energy              =    -939.53970705 Ry
     Harris-Foulkes estimate   =    -939.53970705 Ry
     estimated scf accuracy    <          4.5E-11 Ry

     iteration # 48     ecut=    40.00 Ry     beta= 0.60
     Davidson diagonalization with overlap
     ethr =  1.00E-13,  avg # of iterations =  1.0

     total cpu time spent up to now is    48768.8 secs

     total energy              =    -939.53970705 Ry
     Harris-Foulkes estimate   =    -939.53970705 Ry
     estimated scf accuracy    <          1.6E-11 Ry

     iteration # 49     ecut=    40.00 Ry     beta= 0.60
     Davidson diagonalization with overlap
     ethr =  1.00E-13,  avg # of iterations =  1.0

     total cpu time spent up to now is    48804.3 secs

     total energy              =    -939.53970705 Ry
     Harris-Foulkes estimate   =    -939.53970705 Ry
     estimated scf accuracy    <          1.6E-12 Ry

     iteration # 50     ecut=    40.00 Ry     beta= 0.60
     Davidson diagonalization with overlap
     ethr =  1.00E-13,  avg # of iterations =  1.0

     total cpu time spent up to now is    48839.6 secs

     total energy              =    -939.53970705 Ry
     Harris-Foulkes estimate   =    -939.53970705 Ry
     estimated scf accuracy    <          1.8E-12 Ry

     iteration # 51     ecut=    40.00 Ry     beta= 0.60
     Davidson diagonalization with overlap
     ethr =  1.00E-13,  avg # of iterations =  1.0

     total cpu time spent up to now is    48875.0 secs

     total energy              =    -939.53970705 Ry
     Harris-Foulkes estimate   =    -939.53970705 Ry
     estimated scf accuracy    <          1.0E-12 Ry

     iteration # 52     ecut=    40.00 Ry     beta= 0.60
     Davidson diagonalization with overlap
     ethr =  1.00E-13,  avg # of iterations =  1.0

     total cpu time spent up to now is    48910.6 secs

     End of self-consistent calculation

     Number of k-points >= 100: set verbosity='high' to print the bands.

     the Fermi energy is    16.2109 ev

!    total energy              =    -939.53970705 Ry
     Harris-Foulkes estimate   =    -939.53970705 Ry
     estimated scf accuracy    <          2.2E-13 Ry

     The total energy is the sum of the following terms:

     one-electron contribution =    -209.91892720 Ry
     hartree contribution      =     149.95197957 Ry
     xc contribution           =    -135.74562137 Ry
     ewald contribution        =    -743.82654318 Ry
     smearing contrib. (-TS)   =      -0.00059487 Ry

     convergence has been achieved in  52 iterations

     Forces acting on atoms (cartesian axes, Ry/au):

     atom    1 type  1   force =     0.00001454    0.00000840    0.00000000
     atom    2 type  2   force =     0.00001485    0.00000858    0.00000000
     atom    3 type  2   force =     0.00007911    0.00004568    0.00000000
     atom    4 type  1   force =    -0.00002108   -0.00001217    0.00000000
     atom    5 type  2   force =    -0.00002586   -0.00001493    0.00000000
     atom    6 type  1   force =    -0.00003256   -0.00001880    0.00000000
     atom    7 type  1   force =    -0.00000321   -0.00000185    0.00000000
     atom    8 type  1   force =    -0.00002579   -0.00001489    0.00000000

     Total force =     0.000113     Total SCF correction =     0.000001


     Computing stress (Cartesian axis) and pressure

          total   stress  (Ry/bohr**3)                   (kbar)     P=   -1.55
  -0.00000502   0.00000998   0.00000000         -0.74      1.47      0.00
   0.00000998  -0.00001654   0.00000000          1.47     -2.43      0.00
   0.00000000   0.00000000  -0.00001000          0.00      0.00     -1.47

 
     init_run     :     38.27s CPU     39.19s WALL (       2 calls)
     electrons    :  46874.31s CPU  47845.58s WALL (      39 calls)
     update_pot   :     73.81s CPU     79.47s WALL (      37 calls)
     forces       :    242.42s CPU    248.83s WALL (      39 calls)
     stress       :    658.74s CPU    676.04s WALL (      39 calls)

     Called by init_run:
     wfcinit      :     34.91s CPU     35.61s WALL (       2 calls)
     potinit      :      0.98s CPU      0.99s WALL (       2 calls)
     hinit0       :      1.79s CPU      1.85s WALL (       2 calls)

     Called by electrons:
     c_bands      :  41340.82s CPU  41945.66s WALL (    1010 calls)
     sum_band     :   5202.27s CPU   5416.72s WALL (    1010 calls)
     v_of_rho     :     48.54s CPU     48.82s WALL (    1042 calls)
     newd         :    283.82s CPU    422.37s WALL (    1042 calls)
     mix_rho      :      7.26s CPU      7.32s WALL (    1010 calls)

     Called by c_bands:
     init_us_2    :    599.39s CPU    599.36s WALL (  504000 calls)
     cegterg      :  37584.03s CPU  38039.42s WALL (  242400 calls)

     Called by sum_band:
     sum_band:bec :     24.58s CPU     25.12s WALL (  242400 calls)
     addusdens    :    336.22s CPU    463.50s WALL (    1010 calls)

     Called by *egterg:
     h_psi        :  20173.49s CPU  20564.57s WALL ( 1063162 calls)
     s_psi        :   1853.86s CPU   1857.14s WALL ( 1063162 calls)
     g_psi        :    205.08s CPU    205.31s WALL (  820282 calls)
     cdiaghg      :   8208.41s CPU   8223.38s WALL ( 1052122 calls)

     Called by h_psi:
     h_psi:pot    :  20025.46s CPU  20416.03s WALL ( 1063162 calls)
     h_psi:calbec :   2084.73s CPU   2100.14s WALL ( 1063162 calls)
     vloc_psi     :  16050.23s CPU  16418.91s WALL ( 1063162 calls)
     add_vuspsi   :   1884.47s CPU   1889.64s WALL ( 1063162 calls)

     General routines
     calbec       :   3004.04s CPU   3027.91s WALL ( 1352362 calls)
     fft          :     29.75s CPU     30.15s WALL (   14526 calls)
     ffts         :      1.00s CPU      0.98s WALL (    2052 calls)
     fftw         :  17202.67s CPU  17549.10s WALL (87804838 calls)
     interpolate  :      2.72s CPU      2.74s WALL (    1042 calls)
 
     Parallel routines
     fft_scatt_xy :   3119.75s CPU   3182.57s WALL (87821416 calls)
     fft_scatt_yz :   4276.32s CPU   4299.21s WALL (87821416 calls)
 
     PWSCF        :    13h18m CPU       18h13m WALL

      35h
 
   This run was terminated on:   3:37:56  11Feb2020            

=------------------------------------------------------------------------------=
   JOB DONE.
=------------------------------------------------------------------------------=
