
     Program PWSCF v.6.3MaX starts on 25Mar2020 at 13:28:36 

     This program is part of the open-source Quantum ESPRESSO suite
     for quantum simulation of materials; please cite
         "P. Giannozzi et al., J. Phys.:Condens. Matter 21 395502 (2009);
         "P. Giannozzi et al., J. Phys.:Condens. Matter 29 465901 (2017);
          URL http://www.quantum-espresso.org", 
     in publications or presentations arising from this work. More details at
     http://www.quantum-espresso.org/quote

     Parallel version (MPI), running on     4 processors

     MPI processes distributed on     1 nodes
     R & G space division:  proc/nbgrp/npool/nimage =       4
     Waiting for input...
     Reading input from standard input

     Current dimensions of program PWSCF are:
     Max number of different atomic species (ntypx) = 10
     Max number of k-points (npk) =  40000
     Max angular momentum in pseudopotentials (lmaxx) =  3
     Message from routine iosys:
     minimal I/O required, wf_collect reset to FALSE

     Subspace diagonalization in iterative solution of the eigenvalue problem:
     a serial algorithm will be used

 
     Parallelization info
     --------------------
     sticks:   dense  smooth     PW     G-vecs:    dense   smooth      PW
     Min         861     343    104                36404     9203    1522
     Max         862     344    105                36405     9204    1524
     Sum        3447    1375    417               145617    36815    6091
 


     bravais-lattice index     =            0
     lattice parameter (alat)  =       1.8897  a.u.
     unit-cell volume          =    1077.7903 (a.u.)^3
     number of atoms/cell      =            8
     number of atomic types    =            2
     number of electrons       =       100.00
     number of Kohn-Sham states=           60
     kinetic-energy cutoff     =      40.0000  Ry
     charge density cutoff     =     400.0000  Ry
     convergence threshold     =      1.0E-10
     mixing beta               =       0.6000
     number of iterations used =            8  plain     mixing
     Exchange-correlation      = SLA PW PBE PBE ( 1  4  3  4 0 0)
     nstep                     =           50


     celldm(1)=   1.889726  celldm(2)=   0.000000  celldm(3)=   0.000000
     celldm(4)=   0.000000  celldm(5)=   0.000000  celldm(6)=   0.000000

     crystal axes: (cart. coord. in units of alat)
               a(1) = (  -1.522502   2.637051   4.972461 )  
               a(2) = (  -1.522502   2.637051  -4.972461 )  
               a(3) = (  -4.567506  -2.637051   0.000000 )  

     reciprocal axes: (cart. coord. in units 2 pi/alat)
               b(1) = ( -0.082102  0.142204  0.100554 )  
               b(2) = ( -0.082102  0.142204 -0.100554 )  
               b(3) = ( -0.164203 -0.094803  0.000000 )  


     PseudoPot. # 1 for Nb read from file:
     ./Nb.pbe-nsp-van.UPF
     MD5 check sum: 0a22fc7fb0ba19a08ca5db297a5d2854
     Pseudo is Ultrasoft + core correction, Zval = 13.0
     Generated by new atomic code, or converted to UPF format
     Using radial grid of  887 points,  6 beta functions with: 
                l(1) =   0
                l(2) =   0
                l(3) =   1
                l(4) =   1
                l(5) =   2
                l(6) =   2
     Q(r) pseudized with  6 coefficients,  rinner =    1.000   1.000   1.000
                                                       1.000   1.000

     PseudoPot. # 2 for Ti read from file:
     ./Ti.pbe-sp-van_ak.UPF
     MD5 check sum: f98fea3e8887528921fefa5636a534ca
     Pseudo is Ultrasoft, Zval = 12.0
     Generated by new atomic code, or converted to UPF format
     Using radial grid of  851 points,  6 beta functions with: 
                l(1) =   0
                l(2) =   0
                l(3) =   1
                l(4) =   1
                l(5) =   2
                l(6) =   2
     Q(r) pseudized with  8 coefficients,  rinner =    1.000   1.000   1.000
                                                       1.000   1.000

     atomic species   valence    mass     pseudopotential
        Nb            13.00    92.90638     Nb( 1.00)
        Ti            12.00    47.86700     Ti( 1.00)

      2 Sym. Ops. (no inversion) found ( 1 have fractional translation)
          (note:  2 additional sym.ops. were found but ignored
           their fractional translations are incommensurate with FFT grid)


   Cartesian axes

     site n.     atom                  positions (alat units)
         1           Ti  tau(   1) = (  -7.6125106   2.6370512   0.0000000  )
         2           Ti  tau(   2) = (  -3.0450027   3.5160674  -2.4862307  )
         3           Ti  tau(   3) = (  -4.5675063   2.6370512   0.0000000  )
         4           Ti  tau(   4) = (  -4.5675048   0.8790162  -2.4862307  )
         5           Nb  tau(   5) = (  -6.0900085   0.0000000   0.0000000  )
         6           Nb  tau(   6) = (  -3.0450027   3.5160674   2.4862307  )
         7           Nb  tau(   7) = (  -3.0450042   0.0000000   0.0000000  )
         8           Nb  tau(   8) = (  -4.5675048   0.8790162   2.4862307  )

     number of k points=   312  Marzari-Vanderbilt smearing, width (Ry)=  0.0200

     Number of k-points >= 100: set verbosity='high' to print them.

     Dense  grid:   145617 G-vectors     FFT dimensions: (  72,  72,  64)

     Smooth grid:    36815 G-vectors     FFT dimensions: (  45,  45,  45)

     Estimated max dynamical RAM per process >     471.89 MB

     Estimated total dynamical RAM >       1.84 GB

     Initial potential from superposition of free atoms

     starting charge   95.98889, renormalised to  100.00000
     Starting wfcs are   92 randomized atomic wfcs

     total cpu time spent up to now is       29.6 secs

     Self-consistent Calculation

     iteration #  1     ecut=    40.00 Ry     beta= 0.60
     Davidson diagonalization with overlap
     ethr =  1.00E-02,  avg # of iterations =  3.0

     total cpu time spent up to now is       96.0 secs

     total energy              =    -918.01174882 Ry
     Harris-Foulkes estimate   =    -941.89379260 Ry
     estimated scf accuracy    <      30.14499896 Ry

     iteration #  2     ecut=    40.00 Ry     beta= 0.60
     Davidson diagonalization with overlap
     ethr =  1.00E-02,  avg # of iterations =  5.2

     total cpu time spent up to now is      204.7 secs

     total energy              =    -935.74884973 Ry
     Harris-Foulkes estimate   =    -971.58880982 Ry
     estimated scf accuracy    <      99.74172839 Ry

     iteration #  3     ecut=    40.00 Ry     beta= 0.60
     Davidson diagonalization with overlap
     ethr =  1.00E-02,  avg # of iterations =  3.8

     total cpu time spent up to now is      283.1 secs

     total energy              =    -939.96639032 Ry
     Harris-Foulkes estimate   =    -941.63512218 Ry
     estimated scf accuracy    <      20.27125819 Ry

     iteration #  4     ecut=    40.00 Ry     beta= 0.60
     Davidson diagonalization with overlap
     ethr =  1.00E-02,  avg # of iterations =  1.0

     total cpu time spent up to now is      330.4 secs

     total energy              =    -938.66477787 Ry
     Harris-Foulkes estimate   =    -940.07516665 Ry
     estimated scf accuracy    <      15.21408351 Ry

     iteration #  5     ecut=    40.00 Ry     beta= 0.60
     Davidson diagonalization with overlap
     ethr =  1.00E-02,  avg # of iterations =  1.1

     total cpu time spent up to now is      377.9 secs

     total energy              =    -937.81276317 Ry
     Harris-Foulkes estimate   =    -938.83211972 Ry
     estimated scf accuracy    <       9.45384491 Ry

     iteration #  6     ecut=    40.00 Ry     beta= 0.60
     Davidson diagonalization with overlap
     ethr =  9.45E-03,  avg # of iterations =  1.5

     total cpu time spent up to now is      426.6 secs

     total energy              =    -937.25544117 Ry
     Harris-Foulkes estimate   =    -938.01611870 Ry
     estimated scf accuracy    <       4.83960938 Ry

     iteration #  7     ecut=    40.00 Ry     beta= 0.60
     Davidson diagonalization with overlap
     ethr =  4.84E-03,  avg # of iterations =  4.8

     total cpu time spent up to now is      506.3 secs

     total energy              =    -938.26625139 Ry
     Harris-Foulkes estimate   =    -938.38965009 Ry
     estimated scf accuracy    <       2.55123516 Ry

     iteration #  8     ecut=    40.00 Ry     beta= 0.60
     Davidson diagonalization with overlap
     ethr =  2.55E-03,  avg # of iterations =  1.1

     total cpu time spent up to now is      554.0 secs

     total energy              =    -938.25938948 Ry
     Harris-Foulkes estimate   =    -938.31026080 Ry
     estimated scf accuracy    <       2.07672304 Ry

     iteration #  9     ecut=    40.00 Ry     beta= 0.60
     Davidson diagonalization with overlap
     ethr =  2.08E-03,  avg # of iterations =  1.0

     total cpu time spent up to now is      601.2 secs

     total energy              =    -938.14526333 Ry
     Harris-Foulkes estimate   =    -938.27607554 Ry
     estimated scf accuracy    <       1.59125866 Ry

     iteration # 10     ecut=    40.00 Ry     beta= 0.60
     Davidson diagonalization with overlap
     ethr =  1.59E-03,  avg # of iterations =  1.0

     total cpu time spent up to now is      648.5 secs

     total energy              =    -938.09199257 Ry
     Harris-Foulkes estimate   =    -938.17514791 Ry
     estimated scf accuracy    <       0.56746753 Ry

     iteration # 11     ecut=    40.00 Ry     beta= 0.60
     Davidson diagonalization with overlap
     ethr =  5.67E-04,  avg # of iterations =  4.3

     total cpu time spent up to now is      719.6 secs

     total energy              =    -938.16437038 Ry
     Harris-Foulkes estimate   =    -938.20094223 Ry
     estimated scf accuracy    <       0.15137610 Ry

     iteration # 12     ecut=    40.00 Ry     beta= 0.60
     Davidson diagonalization with overlap
     ethr =  1.51E-04,  avg # of iterations =  4.3

     total cpu time spent up to now is      786.2 secs

     total energy              =    -938.18180302 Ry
     Harris-Foulkes estimate   =    -938.19358218 Ry
     estimated scf accuracy    <       0.05685798 Ry

     iteration # 13     ecut=    40.00 Ry     beta= 0.60
     Davidson diagonalization with overlap
     ethr =  5.69E-05,  avg # of iterations =  3.8

     total cpu time spent up to now is      846.1 secs

     total energy              =    -938.18871069 Ry
     Harris-Foulkes estimate   =    -938.18889788 Ry
     estimated scf accuracy    <       0.00082018 Ry

     iteration # 14     ecut=    40.00 Ry     beta= 0.60
     Davidson diagonalization with overlap
     ethr =  8.20E-07,  avg # of iterations =  6.8

     total cpu time spent up to now is      952.8 secs

     total energy              =    -938.18972057 Ry
     Harris-Foulkes estimate   =    -938.18974058 Ry
     estimated scf accuracy    <       0.00049100 Ry

     iteration # 15     ecut=    40.00 Ry     beta= 0.60
     Davidson diagonalization with overlap
     ethr =  4.91E-07,  avg # of iterations =  1.0

     total cpu time spent up to now is     1000.1 secs

     total energy              =    -938.18965232 Ry
     Harris-Foulkes estimate   =    -938.18973005 Ry
     estimated scf accuracy    <       0.00049987 Ry

     iteration # 16     ecut=    40.00 Ry     beta= 0.60
     Davidson diagonalization with overlap
     ethr =  4.91E-07,  avg # of iterations =  1.8

     total cpu time spent up to now is     1049.8 secs

     total energy              =    -938.18968093 Ry
     Harris-Foulkes estimate   =    -938.18968270 Ry
     estimated scf accuracy    <       0.00005973 Ry

     iteration # 17     ecut=    40.00 Ry     beta= 0.60
     Davidson diagonalization with overlap
     ethr =  5.97E-08,  avg # of iterations =  4.3

     total cpu time spent up to now is     1119.4 secs

     total energy              =    -938.18968620 Ry
     Harris-Foulkes estimate   =    -938.18968930 Ry
     estimated scf accuracy    <       0.00002582 Ry

     iteration # 18     ecut=    40.00 Ry     beta= 0.60
     Davidson diagonalization with overlap
     ethr =  2.58E-08,  avg # of iterations =  1.5

     total cpu time spent up to now is     1168.2 secs

     total energy              =    -938.18968681 Ry
     Harris-Foulkes estimate   =    -938.18968733 Ry
     estimated scf accuracy    <       0.00000646 Ry

     iteration # 19     ecut=    40.00 Ry     beta= 0.60
     Davidson diagonalization with overlap
     ethr =  6.46E-09,  avg # of iterations =  4.2

     total cpu time spent up to now is     1235.8 secs

     total energy              =    -938.18968751 Ry
     Harris-Foulkes estimate   =    -938.18968777 Ry
     estimated scf accuracy    <       0.00000232 Ry

     iteration # 20     ecut=    40.00 Ry     beta= 0.60
     Davidson diagonalization with overlap
     ethr =  2.32E-09,  avg # of iterations =  2.3

     total cpu time spent up to now is     1287.0 secs

     total energy              =    -938.18968760 Ry
     Harris-Foulkes estimate   =    -938.18968768 Ry
     estimated scf accuracy    <       0.00000047 Ry

     iteration # 21     ecut=    40.00 Ry     beta= 0.60
     Davidson diagonalization with overlap
     ethr =  4.73E-10,  avg # of iterations =  4.3

     total cpu time spent up to now is     1358.9 secs

     total energy              =    -938.18968767 Ry
     Harris-Foulkes estimate   =    -938.18968771 Ry
     estimated scf accuracy    <       0.00000030 Ry

     iteration # 22     ecut=    40.00 Ry     beta= 0.60
     Davidson diagonalization with overlap
     ethr =  3.05E-10,  avg # of iterations =  1.0

     total cpu time spent up to now is     1406.3 secs

     total energy              =    -938.18968767 Ry
     Harris-Foulkes estimate   =    -938.18968768 Ry
     estimated scf accuracy    <       0.00000008 Ry

     iteration # 23     ecut=    40.00 Ry     beta= 0.60
     Davidson diagonalization with overlap
     ethr =  7.61E-11,  avg # of iterations =  4.3

     total cpu time spent up to now is     1478.0 secs

     total energy              =    -938.18968768 Ry
     Harris-Foulkes estimate   =    -938.18968769 Ry
     estimated scf accuracy    <       0.00000006 Ry

     iteration # 24     ecut=    40.00 Ry     beta= 0.60
     Davidson diagonalization with overlap
     ethr =  6.03E-11,  avg # of iterations =  2.8

     total cpu time spent up to now is     1530.9 secs

     total energy              =    -938.18968768 Ry
     Harris-Foulkes estimate   =    -938.18968768 Ry
     estimated scf accuracy    <          1.2E-09 Ry

     iteration # 25     ecut=    40.00 Ry     beta= 0.60
     Davidson diagonalization with overlap
     ethr =  1.23E-12,  avg # of iterations =  5.9

     total cpu time spent up to now is     1620.5 secs

     total energy              =    -938.18968768 Ry
     Harris-Foulkes estimate   =    -938.18968768 Ry
     estimated scf accuracy    <          4.2E-09 Ry

     iteration # 26     ecut=    40.00 Ry     beta= 0.60
     Davidson diagonalization with overlap
     ethr =  1.23E-12,  avg # of iterations =  1.0

     total cpu time spent up to now is     1667.7 secs

     total energy              =    -938.18968768 Ry
     Harris-Foulkes estimate   =    -938.18968768 Ry
     estimated scf accuracy    <          1.4E-09 Ry

     iteration # 27     ecut=    40.00 Ry     beta= 0.60
     Davidson diagonalization with overlap
     ethr =  1.23E-12,  avg # of iterations =  4.0

     total cpu time spent up to now is     1736.3 secs

     total energy              =    -938.18968768 Ry
     Harris-Foulkes estimate   =    -938.18968768 Ry
     estimated scf accuracy    <          2.4E-10 Ry

     iteration # 28     ecut=    40.00 Ry     beta= 0.60
     Davidson diagonalization with overlap
     ethr =  2.41E-13,  avg # of iterations =  1.6

     total cpu time spent up to now is     1785.2 secs

     End of self-consistent calculation

     Number of k-points >= 100: set verbosity='high' to print the bands.

     the Fermi energy is    13.8326 ev

!    total energy              =    -938.18968768 Ry
     Harris-Foulkes estimate   =    -938.18968768 Ry
     estimated scf accuracy    <          5.9E-11 Ry

     The total energy is the sum of the following terms:

     one-electron contribution =    -272.61341325 Ry
     hartree contribution      =     170.14681048 Ry
     xc contribution           =    -130.99442973 Ry
     ewald contribution        =    -704.72082747 Ry
     smearing contrib. (-TS)   =      -0.00782771 Ry

     convergence has been achieved in  28 iterations

     Forces acting on atoms (cartesian axes, Ry/au):

     atom    1 type  2   force =     0.00128958   -0.00057835    0.00333716
     atom    2 type  2   force =    -0.00012208   -0.00139690    0.00333912
     atom    3 type  2   force =     0.00014392    0.00140599   -0.00333716
     atom    4 type  2   force =    -0.00127079    0.00059273   -0.00333912
     atom    5 type  1   force =    -0.00230131   -0.00004437   -0.00770230
     atom    6 type  1   force =     0.00116883    0.00195896   -0.00770289
     atom    7 type  1   force =    -0.00118908   -0.00197081    0.00770230
     atom    8 type  1   force =     0.00228092    0.00003276    0.00770289

     Total force =     0.017630     Total SCF correction =     0.000012


     Computing stress (Cartesian axis) and pressure

          total   stress  (Ry/bohr**3)                   (kbar)     P= -125.54
  -0.00092637  -0.00002293   0.00001507       -136.27     -3.37      2.22
  -0.00002293  -0.00089990  -0.00002611         -3.37   -132.38     -3.84
   0.00001507  -0.00002611  -0.00073398          2.22     -3.84   -107.97


     BFGS Geometry Optimization

     number of scf cycles    =   1
     number of bfgs steps    =   0

     enthalpy new            =    -938.1896876844 Ry

     new trust radius        =       0.1521291587 bohr
     new conv_thr            =            1.0E-10 Ry

     new unit-cell volume =   1010.25826 a.u.^3 (   149.70483 Ang^3 )
     density =      6.24588 g/cm^3

CELL_PARAMETERS (alat=  1.88972599)
  -1.486879443   2.575350926   4.878923769
  -1.490627218   2.581842262  -4.883513846
  -4.460214509  -2.575106233  -0.000000000

ATOMIC_POSITIONS (angstrom)
Ti      -7.437053715   2.581786244  -0.002856076
Ti      -2.977496552   3.439608798  -2.442316938
Ti      -4.463163946   2.581070162  -0.005176559
Ti      -4.463822871   0.863789219  -2.444639463
Nb      -5.950158958   0.003470769  -0.006296576
Nb      -2.974958585   3.438102444   2.433165008
Nb      -2.975096446   0.000723437   0.002854018
Nb      -4.460110653   0.860249003   2.442316205


     NEW-OLD atomic charge density approx. for the potential

     Check: negative/imaginary core charge=   -0.000001    0.000000
     extrapolated charge   93.58349, renormalised to  100.00000

     total cpu time spent up to now is     1813.9 secs

     Self-consistent Calculation

     iteration #  1     ecut=    40.00 Ry     beta= 0.60
     Davidson diagonalization with overlap
     c_bands:  1 eigenvalues not converged
     c_bands:  1 eigenvalues not converged
     c_bands:  1 eigenvalues not converged
     c_bands:  2 eigenvalues not converged
     c_bands:  1 eigenvalues not converged
     c_bands:  2 eigenvalues not converged
     c_bands:  1 eigenvalues not converged
     c_bands:  1 eigenvalues not converged
     c_bands:  1 eigenvalues not converged
     c_bands:  1 eigenvalues not converged
     c_bands:  3 eigenvalues not converged
     c_bands:  1 eigenvalues not converged
     c_bands:  1 eigenvalues not converged
     c_bands:  1 eigenvalues not converged
     c_bands:  1 eigenvalues not converged
     c_bands:  1 eigenvalues not converged
     c_bands:  2 eigenvalues not converged
     c_bands:  2 eigenvalues not converged
     c_bands:  1 eigenvalues not converged
     c_bands:  1 eigenvalues not converged
     c_bands:  1 eigenvalues not converged
     c_bands:  2 eigenvalues not converged
     c_bands:  3 eigenvalues not converged
     c_bands:  1 eigenvalues not converged
     c_bands:  1 eigenvalues not converged
     c_bands:  2 eigenvalues not converged
     c_bands:  1 eigenvalues not converged
     c_bands:  2 eigenvalues not converged
     c_bands:  1 eigenvalues not converged
     c_bands:  1 eigenvalues not converged
     c_bands:  1 eigenvalues not converged
     c_bands:  1 eigenvalues not converged
     c_bands:  2 eigenvalues not converged
     c_bands:  2 eigenvalues not converged
     c_bands:  1 eigenvalues not converged
     c_bands:  1 eigenvalues not converged
     c_bands:  2 eigenvalues not converged
     c_bands:  1 eigenvalues not converged
     c_bands:  1 eigenvalues not converged
     c_bands:  2 eigenvalues not converged
     c_bands:  1 eigenvalues not converged
     c_bands:  1 eigenvalues not converged
     c_bands:  1 eigenvalues not converged
     c_bands:  1 eigenvalues not converged
     c_bands:  2 eigenvalues not converged
     c_bands:  3 eigenvalues not converged
     c_bands:  1 eigenvalues not converged
     c_bands:  1 eigenvalues not converged
     c_bands:  1 eigenvalues not converged
     c_bands:  1 eigenvalues not converged
     c_bands:  1 eigenvalues not converged
     c_bands:  1 eigenvalues not converged
     c_bands:  1 eigenvalues not converged
     c_bands:  1 eigenvalues not converged
     c_bands:  1 eigenvalues not converged
     c_bands:  1 eigenvalues not converged
     c_bands:  1 eigenvalues not converged
     c_bands:  1 eigenvalues not converged
     c_bands:  1 eigenvalues not converged
     c_bands:  1 eigenvalues not converged
     c_bands:  1 eigenvalues not converged
     c_bands:  2 eigenvalues not converged
     c_bands:  1 eigenvalues not converged
     c_bands:  2 eigenvalues not converged
     c_bands:  2 eigenvalues not converged
     c_bands:  1 eigenvalues not converged
     c_bands:  2 eigenvalues not converged
     c_bands:  1 eigenvalues not converged
     c_bands:  1 eigenvalues not converged
     c_bands:  3 eigenvalues not converged
     c_bands:  2 eigenvalues not converged
     c_bands:  1 eigenvalues not converged
     c_bands:  1 eigenvalues not converged
     c_bands:  2 eigenvalues not converged
     c_bands:  2 eigenvalues not converged
     c_bands:  3 eigenvalues not converged
     c_bands:  2 eigenvalues not converged
     c_bands:  1 eigenvalues not converged
     c_bands:  2 eigenvalues not converged
     c_bands:  1 eigenvalues not converged
     c_bands:  1 eigenvalues not converged
     c_bands:  1 eigenvalues not converged
     c_bands:  2 eigenvalues not converged
     c_bands:  1 eigenvalues not converged
     c_bands:  1 eigenvalues not converged
     c_bands:  2 eigenvalues not converged
     c_bands:  1 eigenvalues not converged
     c_bands:  2 eigenvalues not converged
     c_bands:  3 eigenvalues not converged
     c_bands:  2 eigenvalues not converged
     c_bands:  1 eigenvalues not converged
     c_bands:  1 eigenvalues not converged
     c_bands:  2 eigenvalues not converged
     c_bands:  1 eigenvalues not converged
     c_bands:  2 eigenvalues not converged
     c_bands:  2 eigenvalues not converged
     c_bands:  1 eigenvalues not converged
     c_bands:  1 eigenvalues not converged
     c_bands:  1 eigenvalues not converged
     c_bands:  1 eigenvalues not converged
     c_bands:  1 eigenvalues not converged
     c_bands:  1 eigenvalues not converged
     c_bands:  1 eigenvalues not converged
     c_bands:  1 eigenvalues not converged
     c_bands:  1 eigenvalues not converged
     c_bands:  2 eigenvalues not converged
     c_bands:  1 eigenvalues not converged
     c_bands:  2 eigenvalues not converged
     c_bands:  1 eigenvalues not converged
     c_bands:  1 eigenvalues not converged
     c_bands:  1 eigenvalues not converged
     c_bands:  1 eigenvalues not converged
     c_bands:  2 eigenvalues not converged
     c_bands:  1 eigenvalues not converged
     c_bands:  1 eigenvalues not converged
     c_bands:  1 eigenvalues not converged
     c_bands:  1 eigenvalues not converged
     c_bands:  2 eigenvalues not converged
     c_bands:  2 eigenvalues not converged
     c_bands:  2 eigenvalues not converged
     c_bands:  1 eigenvalues not converged
     c_bands:  1 eigenvalues not converged
     c_bands:  1 eigenvalues not converged
     c_bands:  1 eigenvalues not converged
     c_bands:  1 eigenvalues not converged
     c_bands:  1 eigenvalues not converged
     c_bands:  1 eigenvalues not converged
     c_bands:  1 eigenvalues not converged
     c_bands:  2 eigenvalues not converged
     c_bands:  2 eigenvalues not converged
     c_bands:  1 eigenvalues not converged
     c_bands:  1 eigenvalues not converged
     c_bands:  1 eigenvalues not converged
     c_bands:  1 eigenvalues not converged
     c_bands:  1 eigenvalues not converged
     c_bands:  2 eigenvalues not converged
     c_bands:  2 eigenvalues not converged
     c_bands:  1 eigenvalues not converged
     c_bands:  3 eigenvalues not converged
     c_bands:  1 eigenvalues not converged
     c_bands:  1 eigenvalues not converged
     c_bands:  1 eigenvalues not converged
     c_bands:  1 eigenvalues not converged
     c_bands:  1 eigenvalues not converged
     c_bands:  1 eigenvalues not converged
     c_bands:  1 eigenvalues not converged
     c_bands:  2 eigenvalues not converged
     c_bands:  2 eigenvalues not converged
     c_bands:  1 eigenvalues not converged
     c_bands:  2 eigenvalues not converged
     c_bands:  1 eigenvalues not converged
     c_bands:  1 eigenvalues not converged
     c_bands:  1 eigenvalues not converged
     c_bands:  2 eigenvalues not converged
     c_bands:  2 eigenvalues not converged
     c_bands:  1 eigenvalues not converged
     c_bands:  1 eigenvalues not converged
     c_bands:  1 eigenvalues not converged
     c_bands:  1 eigenvalues not converged
     c_bands:  2 eigenvalues not converged
     c_bands:  2 eigenvalues not converged
     c_bands:  2 eigenvalues not converged
     c_bands:  2 eigenvalues not converged
     ethr =  1.00E-06,  avg # of iterations = 19.0

     total cpu time spent up to now is     2047.3 secs

     total energy              =    -928.70240846 Ry
     Harris-Foulkes estimate   =    -950.32254706 Ry
     estimated scf accuracy    <      10.08883686 Ry

     iteration #  2     ecut=    40.00 Ry     beta= 0.60
     Davidson diagonalization with overlap
     ethr =  1.00E-02,  avg # of iterations =  5.5

     total cpu time spent up to now is     2154.7 secs

     total energy              =    -937.23466393 Ry
     Harris-Foulkes estimate   =    -953.33254221 Ry
     estimated scf accuracy    <      53.47561316 Ry

     iteration #  3     ecut=    40.00 Ry     beta= 0.60
     Davidson diagonalization with overlap
     ethr =  1.00E-02,  avg # of iterations =  3.5

     total cpu time spent up to now is     2221.3 secs

     total energy              =    -938.42678415 Ry
     Harris-Foulkes estimate   =    -940.49901860 Ry
     estimated scf accuracy    <      10.66734183 Ry

     iteration #  4     ecut=    40.00 Ry     beta= 0.60
     Davidson diagonalization with overlap
     ethr =  1.00E-02,  avg # of iterations =  1.3

     total cpu time spent up to now is     2269.6 secs

     total energy              =    -937.54744446 Ry
     Harris-Foulkes estimate   =    -938.72919787 Ry
     estimated scf accuracy    <       6.45927395 Ry

     iteration #  5     ecut=    40.00 Ry     beta= 0.60
     Davidson diagonalization with overlap
     ethr =  6.46E-03,  avg # of iterations =  4.3

     total cpu time spent up to now is     2335.7 secs

     total energy              =    -938.29647578 Ry
     Harris-Foulkes estimate   =    -938.26357726 Ry
     estimated scf accuracy    <       0.30094455 Ry

     iteration #  6     ecut=    40.00 Ry     beta= 0.60
     Davidson diagonalization with overlap
     ethr =  3.01E-04,  avg # of iterations =  6.1

     total cpu time spent up to now is     2426.1 secs

     total energy              =    -938.34208084 Ry
     Harris-Foulkes estimate   =    -938.40445220 Ry
     estimated scf accuracy    <       0.94450406 Ry

     iteration #  7     ecut=    40.00 Ry     beta= 0.60
     Davidson diagonalization with overlap
     ethr =  3.01E-04,  avg # of iterations =  1.0

     total cpu time spent up to now is     2473.5 secs

     total energy              =    -938.31233848 Ry
     Harris-Foulkes estimate   =    -938.34508169 Ry
     estimated scf accuracy    <       0.76796850 Ry

     iteration #  8     ecut=    40.00 Ry     beta= 0.60
     Davidson diagonalization with overlap
     ethr =  3.01E-04,  avg # of iterations =  1.0

     total cpu time spent up to now is     2520.9 secs

     total energy              =    -938.20723592 Ry
     Harris-Foulkes estimate   =    -938.31553571 Ry
     estimated scf accuracy    <       0.60232050 Ry

     iteration #  9     ecut=    40.00 Ry     beta= 0.60
     Davidson diagonalization with overlap
     ethr =  3.01E-04,  avg # of iterations =  3.9

     total cpu time spent up to now is     2579.7 secs

     total energy              =    -938.21743652 Ry
     Harris-Foulkes estimate   =    -938.23056353 Ry
     estimated scf accuracy    <       0.11935480 Ry

     iteration # 10     ecut=    40.00 Ry     beta= 0.60
     Davidson diagonalization with overlap
     ethr =  1.19E-04,  avg # of iterations =  5.1

     total cpu time spent up to now is     2652.9 secs

     total energy              =    -938.22943356 Ry
     Harris-Foulkes estimate   =    -938.23475541 Ry
     estimated scf accuracy    <       0.00848228 Ry

     iteration # 11     ecut=    40.00 Ry     beta= 0.60
     Davidson diagonalization with overlap
     ethr =  8.48E-06,  avg # of iterations =  5.9

     total cpu time spent up to now is     2763.3 secs

     total energy              =    -938.23235849 Ry
     Harris-Foulkes estimate   =    -938.23969782 Ry
     estimated scf accuracy    <       0.06813604 Ry

     iteration # 12     ecut=    40.00 Ry     beta= 0.60
     Davidson diagonalization with overlap
     ethr =  8.48E-06,  avg # of iterations =  4.4

     total cpu time spent up to now is     2830.4 secs

     total energy              =    -938.23554013 Ry
     Harris-Foulkes estimate   =    -938.23442106 Ry
     estimated scf accuracy    <       0.00992186 Ry

     iteration # 13     ecut=    40.00 Ry     beta= 0.60
     Davidson diagonalization with overlap
     ethr =  8.48E-06,  avg # of iterations =  1.0

     total cpu time spent up to now is     2877.8 secs

     total energy              =    -938.23481572 Ry
     Harris-Foulkes estimate   =    -938.23589234 Ry
     estimated scf accuracy    <       0.02138747 Ry

     iteration # 14     ecut=    40.00 Ry     beta= 0.60
     Davidson diagonalization with overlap
     ethr =  8.48E-06,  avg # of iterations =  1.0

     total cpu time spent up to now is     2925.4 secs

     total energy              =    -938.23357330 Ry
     Harris-Foulkes estimate   =    -938.23496513 Ry
     estimated scf accuracy    <       0.01695947 Ry

     iteration # 15     ecut=    40.00 Ry     beta= 0.60
     Davidson diagonalization with overlap
     ethr =  8.48E-06,  avg # of iterations =  1.7

     total cpu time spent up to now is     2975.2 secs

     total energy              =    -938.23370978 Ry
     Harris-Foulkes estimate   =    -938.23386438 Ry
     estimated scf accuracy    <       0.00675404 Ry

     iteration # 16     ecut=    40.00 Ry     beta= 0.60
     Davidson diagonalization with overlap
     ethr =  6.75E-06,  avg # of iterations =  1.0

     total cpu time spent up to now is     3022.8 secs

     total energy              =    -938.23356864 Ry
     Harris-Foulkes estimate   =    -938.23376288 Ry
     estimated scf accuracy    <       0.00523322 Ry

     iteration # 17     ecut=    40.00 Ry     beta= 0.60
     Davidson diagonalization with overlap
     ethr =  5.23E-06,  avg # of iterations =  1.0

     total cpu time spent up to now is     3070.4 secs

     total energy              =    -938.23310933 Ry
     Harris-Foulkes estimate   =    -938.23361847 Ry
     estimated scf accuracy    <       0.00322720 Ry

     iteration # 18     ecut=    40.00 Ry     beta= 0.60
     Davidson diagonalization with overlap
     ethr =  3.23E-06,  avg # of iterations =  5.3

     total cpu time spent up to now is     3145.8 secs

     total energy              =    -938.23358942 Ry
     Harris-Foulkes estimate   =    -938.23360008 Ry
     estimated scf accuracy    <       0.00026218 Ry

     iteration # 19     ecut=    40.00 Ry     beta= 0.60
     Davidson diagonalization with overlap
     ethr =  2.62E-07,  avg # of iterations =  2.3

     total cpu time spent up to now is     3198.5 secs

     total energy              =    -938.23357614 Ry
     Harris-Foulkes estimate   =    -938.23359944 Ry
     estimated scf accuracy    <       0.00020667 Ry

     iteration # 20     ecut=    40.00 Ry     beta= 0.60
     Davidson diagonalization with overlap
     ethr =  2.07E-07,  avg # of iterations =  2.0

     total cpu time spent up to now is     3249.1 secs

     total energy              =    -938.23357920 Ry
     Harris-Foulkes estimate   =    -938.23358361 Ry
     estimated scf accuracy    <       0.00003892 Ry

     iteration # 21     ecut=    40.00 Ry     beta= 0.60
     Davidson diagonalization with overlap
     ethr =  3.89E-08,  avg # of iterations =  4.3

     total cpu time spent up to now is     3319.1 secs

     total energy              =    -938.23358537 Ry
     Harris-Foulkes estimate   =    -938.23358554 Ry
     estimated scf accuracy    <       0.00000139 Ry

     iteration # 22     ecut=    40.00 Ry     beta= 0.60
     Davidson diagonalization with overlap
     ethr =  1.39E-09,  avg # of iterations =  4.0

     total cpu time spent up to now is     3383.8 secs

     total energy              =    -938.23358549 Ry
     Harris-Foulkes estimate   =    -938.23358559 Ry
     estimated scf accuracy    <       0.00000079 Ry

     iteration # 23     ecut=    40.00 Ry     beta= 0.60
     Davidson diagonalization with overlap
     ethr =  7.94E-10,  avg # of iterations =  1.2

     total cpu time spent up to now is     3432.0 secs

     total energy              =    -938.23358549 Ry
     Harris-Foulkes estimate   =    -938.23358553 Ry
     estimated scf accuracy    <       0.00000013 Ry

     iteration # 24     ecut=    40.00 Ry     beta= 0.60
     Davidson diagonalization with overlap
     ethr =  1.28E-10,  avg # of iterations =  4.7

     total cpu time spent up to now is     3509.0 secs

     total energy              =    -938.23358553 Ry
     Harris-Foulkes estimate   =    -938.23358556 Ry
     estimated scf accuracy    <       0.00000027 Ry

     iteration # 25     ecut=    40.00 Ry     beta= 0.60
     Davidson diagonalization with overlap
     ethr =  1.28E-10,  avg # of iterations =  1.3

     total cpu time spent up to now is     3557.4 secs

     total energy              =    -938.23358553 Ry
     Harris-Foulkes estimate   =    -938.23358554 Ry
     estimated scf accuracy    <       0.00000005 Ry

     iteration # 26     ecut=    40.00 Ry     beta= 0.60
     Davidson diagonalization with overlap
     ethr =  4.65E-11,  avg # of iterations =  4.1

     total cpu time spent up to now is     3626.9 secs

     total energy              =    -938.23358554 Ry
     Harris-Foulkes estimate   =    -938.23358554 Ry
     estimated scf accuracy    <          3.3E-09 Ry

     iteration # 27     ecut=    40.00 Ry     beta= 0.60
     Davidson diagonalization with overlap
     ethr =  3.25E-12,  avg # of iterations =  3.0

     total cpu time spent up to now is     3683.3 secs

     total energy              =    -938.23358554 Ry
     Harris-Foulkes estimate   =    -938.23358554 Ry
     estimated scf accuracy    <          1.1E-09 Ry

     iteration # 28     ecut=    40.00 Ry     beta= 0.60
     Davidson diagonalization with overlap
     ethr =  1.07E-12,  avg # of iterations =  4.1

     total cpu time spent up to now is     3751.8 secs

     total energy              =    -938.23358554 Ry
     Harris-Foulkes estimate   =    -938.23358554 Ry
     estimated scf accuracy    <          3.8E-10 Ry

     iteration # 29     ecut=    40.00 Ry     beta= 0.60
     Davidson diagonalization with overlap
     ethr =  3.81E-13,  avg # of iterations =  1.3

     total cpu time spent up to now is     3800.2 secs

     End of self-consistent calculation

     Number of k-points >= 100: set verbosity='high' to print the bands.

     the Fermi energy is    14.9302 ev

!    total energy              =    -938.23358554 Ry
     Harris-Foulkes estimate   =    -938.23358554 Ry
     estimated scf accuracy    <          4.4E-11 Ry

     The total energy is the sum of the following terms:

     one-electron contribution =    -250.10006089 Ry
     hartree contribution      =     163.41480368 Ry
     xc contribution           =    -131.44059368 Ry
     ewald contribution        =    -720.10112193 Ry
     smearing contrib. (-TS)   =      -0.00661272 Ry

     convergence has been achieved in  29 iterations

     Forces acting on atoms (cartesian axes, Ry/au):

     atom    1 type  2   force =     0.00156271   -0.00193720    0.00481877
     atom    2 type  2   force =     0.00092530   -0.00230712    0.00481939
     atom    3 type  2   force =    -0.00089631    0.00232195   -0.00481877
     atom    4 type  2   force =    -0.00153537    0.00195489   -0.00481939
     atom    5 type  1   force =    -0.00350943    0.00170486   -0.01000970
     atom    6 type  1   force =     0.00025016    0.00387532   -0.01000919
     atom    7 type  1   force =    -0.00027826   -0.00389169    0.01000970
     atom    8 type  1   force =     0.00348120   -0.00172101    0.01000919

     Total force =     0.024063     Total SCF correction =     0.000011


     Computing stress (Cartesian axis) and pressure

          total   stress  (Ry/bohr**3)                   (kbar)     P=  -57.54
  -0.00047412  -0.00002205   0.00001610        -69.75     -3.24      2.37
  -0.00002205  -0.00044865  -0.00002789         -3.24    -66.00     -4.10
   0.00001610  -0.00002789  -0.00025072          2.37     -4.10    -36.88


     number of scf cycles    =   2
     number of bfgs steps    =   1

     enthalpy old            =    -938.1896876844 Ry
     enthalpy new            =    -938.2335855399 Ry

     CASE: enthalpy_new < enthalpy_old

     new trust radius        =       0.1397775538 bohr
     new conv_thr            =            1.0E-10 Ry

     new unit-cell volume =    956.25114 a.u.^3 (   141.70180 Ang^3 )
     density =      6.59864 g/cm^3

CELL_PARAMETERS (alat=  1.88972599)
  -1.453274416   2.517145315   4.817493541
  -1.464176533   2.536028336  -4.830841361
  -4.359657461  -2.517049599  -0.000000000

ATOMIC_POSITIONS (angstrom)
Ti      -7.275016724   2.534054667  -0.007147506
Ti      -2.916638123   3.372263790  -2.415892654
Ti      -4.368663240   2.534201585  -0.016211180
Ti      -4.369945186   0.855366455  -2.424959566
Nb      -5.822762902   0.011093561  -0.019954291
Nb      -2.911164450   3.370200816   2.388792639
Nb      -2.910033626   0.000197284   0.009943426
Nb      -4.358092820   0.842255261   2.418690044


     NEW-OLD atomic charge density approx. for the potential

     Check: negative/imaginary core charge=   -0.000001    0.000000
     extrapolated charge   94.57874, renormalised to  100.00000

     total cpu time spent up to now is     3829.2 secs

     Self-consistent Calculation

     iteration #  1     ecut=    40.00 Ry     beta= 0.60
     Davidson diagonalization with overlap
     c_bands:  1 eigenvalues not converged
     c_bands:  1 eigenvalues not converged
     c_bands:  1 eigenvalues not converged
     c_bands:  1 eigenvalues not converged
     c_bands:  2 eigenvalues not converged
     c_bands:  3 eigenvalues not converged
     c_bands:  1 eigenvalues not converged
     c_bands:  1 eigenvalues not converged
     c_bands:  1 eigenvalues not converged
     c_bands:  2 eigenvalues not converged
     c_bands:  1 eigenvalues not converged
     c_bands:  1 eigenvalues not converged
     c_bands:  1 eigenvalues not converged
     c_bands:  2 eigenvalues not converged
     c_bands:  2 eigenvalues not converged
     c_bands:  1 eigenvalues not converged
     c_bands:  2 eigenvalues not converged
     c_bands:  1 eigenvalues not converged
     c_bands:  2 eigenvalues not converged
     c_bands:  3 eigenvalues not converged
     c_bands:  2 eigenvalues not converged
     c_bands:  2 eigenvalues not converged
     c_bands:  1 eigenvalues not converged
     c_bands:  1 eigenvalues not converged
     c_bands:  1 eigenvalues not converged
     c_bands:  2 eigenvalues not converged
     c_bands:  2 eigenvalues not converged
     c_bands:  1 eigenvalues not converged
     c_bands:  1 eigenvalues not converged
     c_bands:  2 eigenvalues not converged
     c_bands:  1 eigenvalues not converged
     c_bands:  1 eigenvalues not converged
     c_bands:  1 eigenvalues not converged
     c_bands:  1 eigenvalues not converged
     c_bands:  1 eigenvalues not converged
     c_bands:  2 eigenvalues not converged
     c_bands:  1 eigenvalues not converged
     c_bands:  1 eigenvalues not converged
     c_bands:  1 eigenvalues not converged
     c_bands:  1 eigenvalues not converged
     c_bands:  2 eigenvalues not converged
     c_bands:  2 eigenvalues not converged
     c_bands:  1 eigenvalues not converged
     c_bands:  1 eigenvalues not converged
     c_bands:  3 eigenvalues not converged
     c_bands:  2 eigenvalues not converged
     c_bands:  1 eigenvalues not converged
     c_bands:  1 eigenvalues not converged
     c_bands:  1 eigenvalues not converged
     c_bands:  1 eigenvalues not converged
     c_bands:  2 eigenvalues not converged
     c_bands:  2 eigenvalues not converged
     c_bands:  2 eigenvalues not converged
     c_bands:  1 eigenvalues not converged
     c_bands:  1 eigenvalues not converged
     c_bands:  1 eigenvalues not converged
     c_bands:  1 eigenvalues not converged
     c_bands:  1 eigenvalues not converged
     c_bands:  1 eigenvalues not converged
     c_bands:  1 eigenvalues not converged
     c_bands:  1 eigenvalues not converged
     c_bands:  1 eigenvalues not converged
     c_bands:  1 eigenvalues not converged
     c_bands:  2 eigenvalues not converged
     c_bands:  1 eigenvalues not converged
     c_bands:  1 eigenvalues not converged
     c_bands:  2 eigenvalues not converged
     c_bands:  2 eigenvalues not converged
     c_bands:  3 eigenvalues not converged
     c_bands:  1 eigenvalues not converged
     c_bands:  1 eigenvalues not converged
     c_bands:  1 eigenvalues not converged
     c_bands:  2 eigenvalues not converged
     c_bands:  1 eigenvalues not converged
     c_bands:  1 eigenvalues not converged
     c_bands:  1 eigenvalues not converged
     c_bands:  2 eigenvalues not converged
     c_bands:  2 eigenvalues not converged
     c_bands:  2 eigenvalues not converged
     c_bands:  1 eigenvalues not converged
     c_bands:  1 eigenvalues not converged
     c_bands:  2 eigenvalues not converged
     c_bands:  1 eigenvalues not converged
     c_bands:  2 eigenvalues not converged
     c_bands:  1 eigenvalues not converged
     c_bands:  1 eigenvalues not converged
     c_bands:  2 eigenvalues not converged
     c_bands:  1 eigenvalues not converged
     c_bands:  2 eigenvalues not converged
     c_bands:  2 eigenvalues not converged
     c_bands:  1 eigenvalues not converged
     c_bands:  2 eigenvalues not converged
     c_bands:  1 eigenvalues not converged
     c_bands:  2 eigenvalues not converged
     c_bands:  2 eigenvalues not converged
     c_bands:  2 eigenvalues not converged
     c_bands:  1 eigenvalues not converged
     c_bands:  2 eigenvalues not converged
     c_bands:  1 eigenvalues not converged
     c_bands:  1 eigenvalues not converged
     c_bands:  1 eigenvalues not converged
     c_bands:  1 eigenvalues not converged
     c_bands:  1 eigenvalues not converged
     c_bands:  1 eigenvalues not converged
     c_bands:  1 eigenvalues not converged
     c_bands:  2 eigenvalues not converged
     c_bands:  3 eigenvalues not converged
     c_bands:  1 eigenvalues not converged
     c_bands:  1 eigenvalues not converged
     c_bands:  2 eigenvalues not converged
     c_bands:  1 eigenvalues not converged
     c_bands:  2 eigenvalues not converged
     c_bands:  1 eigenvalues not converged
     c_bands:  2 eigenvalues not converged
     c_bands:  2 eigenvalues not converged
     c_bands:  2 eigenvalues not converged
     c_bands:  2 eigenvalues not converged
     c_bands:  2 eigenvalues not converged
     c_bands:  1 eigenvalues not converged
     c_bands:  1 eigenvalues not converged
     c_bands:  1 eigenvalues not converged
     c_bands:  1 eigenvalues not converged
     c_bands:  1 eigenvalues not converged
     c_bands:  3 eigenvalues not converged
     c_bands:  2 eigenvalues not converged
     c_bands:  3 eigenvalues not converged
     c_bands:  1 eigenvalues not converged
     c_bands:  2 eigenvalues not converged
     c_bands:  1 eigenvalues not converged
     c_bands:  1 eigenvalues not converged
     c_bands:  1 eigenvalues not converged
     c_bands:  2 eigenvalues not converged
     c_bands:  1 eigenvalues not converged
     c_bands:  1 eigenvalues not converged
     c_bands:  2 eigenvalues not converged
     c_bands:  1 eigenvalues not converged
     c_bands:  2 eigenvalues not converged
     ethr =  1.00E-06,  avg # of iterations = 18.1

     total cpu time spent up to now is     4046.1 secs

     total energy              =    -933.36823751 Ry
     Harris-Foulkes estimate   =    -947.62040434 Ry
     estimated scf accuracy    <       4.99485746 Ry

     iteration #  2     ecut=    40.00 Ry     beta= 0.60
     Davidson diagonalization with overlap
     ethr =  4.99E-03,  avg # of iterations =  5.4

     total cpu time spent up to now is     4154.1 secs

     total energy              =    -937.03495619 Ry
     Harris-Foulkes estimate   =    -946.62044691 Ry
     estimated scf accuracy    <      35.61544325 Ry

     iteration #  3     ecut=    40.00 Ry     beta= 0.60
     Davidson diagonalization with overlap
     ethr =  4.99E-03,  avg # of iterations =  5.1

     total cpu time spent up to now is     4235.1 secs

     total energy              =    -938.43078881 Ry
     Harris-Foulkes estimate   =    -939.38130050 Ry
     estimated scf accuracy    <       4.77513219 Ry

     iteration #  4     ecut=    40.00 Ry     beta= 0.60
     Davidson diagonalization with overlap
     ethr =  4.78E-03,  avg # of iterations =  1.1

     total cpu time spent up to now is     4282.9 secs

     total energy              =    -938.08881779 Ry
     Harris-Foulkes estimate   =    -938.56308397 Ry
     estimated scf accuracy    <       2.98162230 Ry

     iteration #  5     ecut=    40.00 Ry     beta= 0.60
     Davidson diagonalization with overlap
     ethr =  2.98E-03,  avg # of iterations =  2.6

     total cpu time spent up to now is     4337.8 secs

     total energy              =    -938.25158763 Ry
     Harris-Foulkes estimate   =    -938.26772460 Ry
     estimated scf accuracy    <       0.56980294 Ry

     iteration #  6     ecut=    40.00 Ry     beta= 0.60
     Davidson diagonalization with overlap
     ethr =  5.70E-04,  avg # of iterations =  4.5

     total cpu time spent up to now is     4402.0 secs

     total energy              =    -938.27180435 Ry
     Harris-Foulkes estimate   =    -938.28420719 Ry
     estimated scf accuracy    <       0.35765364 Ry

     iteration #  7     ecut=    40.00 Ry     beta= 0.60
     Davidson diagonalization with overlap
     ethr =  3.58E-04,  avg # of iterations =  1.6

     total cpu time spent up to now is     4451.2 secs

     total energy              =    -938.22016384 Ry
     Harris-Foulkes estimate   =    -938.27770956 Ry
     estimated scf accuracy    <       0.33118459 Ry

     iteration #  8     ecut=    40.00 Ry     beta= 0.60
     Davidson diagonalization with overlap
     ethr =  3.31E-04,  avg # of iterations =  3.4

     total cpu time spent up to now is     4507.5 secs

     total energy              =    -938.22835058 Ry
     Harris-Foulkes estimate   =    -938.23851758 Ry
     estimated scf accuracy    <       0.04963426 Ry

     iteration #  9     ecut=    40.00 Ry     beta= 0.60
     Davidson diagonalization with overlap
     ethr =  4.96E-05,  avg # of iterations =  5.8

     total cpu time spent up to now is     4600.0 secs

     total energy              =    -938.24394297 Ry
     Harris-Foulkes estimate   =    -938.24590310 Ry
     estimated scf accuracy    <       0.01364781 Ry

     iteration # 10     ecut=    40.00 Ry     beta= 0.60
     Davidson diagonalization with overlap
     ethr =  1.36E-05,  avg # of iterations =  3.7

     total cpu time spent up to now is     4657.8 secs

     total energy              =    -938.24453142 Ry
     Harris-Foulkes estimate   =    -938.24520108 Ry
     estimated scf accuracy    <       0.00253933 Ry

     iteration # 11     ecut=    40.00 Ry     beta= 0.60
     Davidson diagonalization with overlap
     ethr =  2.54E-06,  avg # of iterations =  5.1

     total cpu time spent up to now is     4746.5 secs

     total energy              =    -938.24435648 Ry
     Harris-Foulkes estimate   =    -938.24696911 Ry
     estimated scf accuracy    <       0.02348742 Ry

     iteration # 12     ecut=    40.00 Ry     beta= 0.60
     Davidson diagonalization with overlap
     ethr =  2.54E-06,  avg # of iterations =  4.2

     total cpu time spent up to now is     4815.1 secs

     total energy              =    -938.24497579 Ry
     Harris-Foulkes estimate   =    -938.24506713 Ry
     estimated scf accuracy    <       0.00388850 Ry

     iteration # 13     ecut=    40.00 Ry     beta= 0.60
     Davidson diagonalization with overlap
     ethr =  2.54E-06,  avg # of iterations =  1.0

     total cpu time spent up to now is     4862.7 secs

     total energy              =    -938.24491211 Ry
     Harris-Foulkes estimate   =    -938.24500374 Ry
     estimated scf accuracy    <       0.00311586 Ry

     iteration # 14     ecut=    40.00 Ry     beta= 0.60
     Davidson diagonalization with overlap
     ethr =  2.54E-06,  avg # of iterations =  1.0

     total cpu time spent up to now is     4910.3 secs

     total energy              =    -938.24483976 Ry
     Harris-Foulkes estimate   =    -938.24492824 Ry
     estimated scf accuracy    <       0.00224365 Ry

     iteration # 15     ecut=    40.00 Ry     beta= 0.60
     Davidson diagonalization with overlap
     ethr =  2.24E-06,  avg # of iterations =  1.0

     total cpu time spent up to now is     4957.8 secs

     total energy              =    -938.24480994 Ry
     Harris-Foulkes estimate   =    -938.24485471 Ry
     estimated scf accuracy    <       0.00149009 Ry

     iteration # 16     ecut=    40.00 Ry     beta= 0.60
     Davidson diagonalization with overlap
     ethr =  1.49E-06,  avg # of iterations =  1.0

     total cpu time spent up to now is     5005.3 secs

     total energy              =    -938.24479309 Ry
     Harris-Foulkes estimate   =    -938.24482197 Ry
     estimated scf accuracy    <       0.00104950 Ry

     iteration # 17     ecut=    40.00 Ry     beta= 0.60
     Davidson diagonalization with overlap
     ethr =  1.05E-06,  avg # of iterations =  1.0

     total cpu time spent up to now is     5052.9 secs

     total energy              =    -938.24467234 Ry
     Harris-Foulkes estimate   =    -938.24480328 Ry
     estimated scf accuracy    <       0.00074437 Ry

     iteration # 18     ecut=    40.00 Ry     beta= 0.60
     Davidson diagonalization with overlap
     ethr =  7.44E-07,  avg # of iterations =  5.1

     total cpu time spent up to now is     5125.3 secs

     total energy              =    -938.24479501 Ry
     Harris-Foulkes estimate   =    -938.24480343 Ry
     estimated scf accuracy    <       0.00012326 Ry

     iteration # 19     ecut=    40.00 Ry     beta= 0.60
     Davidson diagonalization with overlap
     ethr =  1.23E-07,  avg # of iterations =  1.7

     total cpu time spent up to now is     5174.8 secs

     total energy              =    -938.24479564 Ry
     Harris-Foulkes estimate   =    -938.24479789 Ry
     estimated scf accuracy    <       0.00006497 Ry

     iteration # 20     ecut=    40.00 Ry     beta= 0.60
     Davidson diagonalization with overlap
     ethr =  6.50E-08,  avg # of iterations =  1.0

     total cpu time spent up to now is     5222.3 secs

     total energy              =    -938.24478885 Ry
     Harris-Foulkes estimate   =    -938.24479640 Ry
     estimated scf accuracy    <       0.00004676 Ry

     iteration # 21     ecut=    40.00 Ry     beta= 0.60
     Davidson diagonalization with overlap
     ethr =  4.68E-08,  avg # of iterations =  4.0

     total cpu time spent up to now is     5283.8 secs

     total energy              =    -938.24479411 Ry
     Harris-Foulkes estimate   =    -938.24479389 Ry
     estimated scf accuracy    <       0.00000017 Ry

     iteration # 22     ecut=    40.00 Ry     beta= 0.60
     Davidson diagonalization with overlap
     ethr =  1.72E-10,  avg # of iterations =  6.0

     total cpu time spent up to now is     5389.5 secs

     total energy              =    -938.24479515 Ry
     Harris-Foulkes estimate   =    -938.24479669 Ry
     estimated scf accuracy    <       0.00002182 Ry

     iteration # 23     ecut=    40.00 Ry     beta= 0.60
     Davidson diagonalization with overlap
     ethr =  1.72E-10,  avg # of iterations =  5.2

     total cpu time spent up to now is     5473.0 secs

     total energy              =    -938.24479463 Ry
     Harris-Foulkes estimate   =    -938.24479545 Ry
     estimated scf accuracy    <       0.00000713 Ry

     iteration # 24     ecut=    40.00 Ry     beta= 0.60
     Davidson diagonalization with overlap
     ethr =  1.72E-10,  avg # of iterations =  5.1

     total cpu time spent up to now is     5556.0 secs

     total energy              =    -938.24479478 Ry
     Harris-Foulkes estimate   =    -938.24479490 Ry
     estimated scf accuracy    <       0.00000058 Ry

     iteration # 25     ecut=    40.00 Ry     beta= 0.60
     Davidson diagonalization with overlap
     ethr =  1.72E-10,  avg # of iterations =  4.3

     total cpu time spent up to now is     5629.5 secs

     total energy              =    -938.24479485 Ry
     Harris-Foulkes estimate   =    -938.24479485 Ry
     estimated scf accuracy    <       0.00000006 Ry

     iteration # 26     ecut=    40.00 Ry     beta= 0.60
     Davidson diagonalization with overlap
     ethr =  5.87E-11,  avg # of iterations =  1.0

     total cpu time spent up to now is     5677.0 secs

     total energy              =    -938.24479485 Ry
     Harris-Foulkes estimate   =    -938.24479485 Ry
     estimated scf accuracy    <       0.00000002 Ry

     iteration # 27     ecut=    40.00 Ry     beta= 0.60
     Davidson diagonalization with overlap
     ethr =  2.19E-11,  avg # of iterations =  4.0

     total cpu time spent up to now is     5745.2 secs

     total energy              =    -938.24479485 Ry
     Harris-Foulkes estimate   =    -938.24479485 Ry
     estimated scf accuracy    <       0.00000002 Ry

     iteration # 28     ecut=    40.00 Ry     beta= 0.60
     Davidson diagonalization with overlap
     ethr =  1.74E-11,  avg # of iterations =  1.0

     total cpu time spent up to now is     5792.7 secs

     total energy              =    -938.24479485 Ry
     Harris-Foulkes estimate   =    -938.24479485 Ry
     estimated scf accuracy    <          1.9E-09 Ry

     iteration # 29     ecut=    40.00 Ry     beta= 0.60
     Davidson diagonalization with overlap
     ethr =  1.91E-12,  avg # of iterations =  4.8

     total cpu time spent up to now is     5870.5 secs

     total energy              =    -938.24479485 Ry
     Harris-Foulkes estimate   =    -938.24479485 Ry
     estimated scf accuracy    <          2.5E-09 Ry

     iteration # 30     ecut=    40.00 Ry     beta= 0.60
     Davidson diagonalization with overlap
     ethr =  1.91E-12,  avg # of iterations =  1.0

     total cpu time spent up to now is     5918.0 secs

     total energy              =    -938.24479485 Ry
     Harris-Foulkes estimate   =    -938.24479485 Ry
     estimated scf accuracy    <          3.8E-10 Ry

     iteration # 31     ecut=    40.00 Ry     beta= 0.60
     Davidson diagonalization with overlap
     ethr =  3.82E-13,  avg # of iterations =  4.1

     total cpu time spent up to now is     5988.3 secs

     End of self-consistent calculation

     Number of k-points >= 100: set verbosity='high' to print the bands.

     the Fermi energy is    15.9078 ev

!    total energy              =    -938.24479485 Ry
     Harris-Foulkes estimate   =    -938.24479485 Ry
     estimated scf accuracy    <          3.3E-11 Ry

     The total energy is the sum of the following terms:

     one-electron contribution =    -230.74424331 Ry
     hartree contribution      =     157.77714372 Ry
     xc contribution           =    -131.84770376 Ry
     ewald contribution        =    -733.42460138 Ry
     smearing contrib. (-TS)   =      -0.00539013 Ry

     convergence has been achieved in  31 iterations

     Forces acting on atoms (cartesian axes, Ry/au):

     atom    1 type  2   force =     0.00064766   -0.00262830    0.00536558
     atom    2 type  2   force =     0.00197620   -0.00186098    0.00536378
     atom    3 type  2   force =    -0.00195235    0.00187504   -0.00536558
     atom    4 type  2   force =    -0.00062355    0.00264193   -0.00536378
     atom    5 type  1   force =    -0.00394917    0.00296284   -0.01124741
     atom    6 type  1   force =    -0.00061473    0.00488668   -0.01124388
     atom    7 type  1   force =     0.00059131   -0.00490150    0.01124741
     atom    8 type  1   force =     0.00392463   -0.00297572    0.01124388

     Total force =     0.027343     Total SCF correction =     0.000009


     Computing stress (Cartesian axis) and pressure

          total   stress  (Ry/bohr**3)                   (kbar)     P=   13.83
   0.00001064  -0.00001948   0.00001891          1.57     -2.87      2.78
  -0.00001948   0.00003314  -0.00003276         -2.87      4.88     -4.82
   0.00001891  -0.00003276   0.00023827          2.78     -4.82     35.05


     number of scf cycles    =   3
     number of bfgs steps    =   2

     enthalpy old            =    -938.2335855399 Ry
     enthalpy new            =    -938.2447948504 Ry

     CASE: enthalpy_new < enthalpy_old

     new trust radius        =       0.0294332468 bohr
     new conv_thr            =            1.0E-10 Ry

     new unit-cell volume =    960.68852 a.u.^3 (   142.35935 Ang^3 )
     density =      6.56816 g/cm^3

CELL_PARAMETERS (alat=  1.88972599)
  -1.451997171   2.514933063   4.837681604
  -1.466869411   2.540692537  -4.855896007
  -4.357350666  -2.515717770  -0.000000000

ATOMIC_POSITIONS (angstrom)
Ti      -7.273818010   2.536660228  -0.009508042
Ti      -2.917430723   3.375194593  -2.428348008
Ti      -4.369438156   2.537561916  -0.022367163
Ti      -4.370404541   0.860383717  -2.441208792
Nb      -5.822938875   0.014994283  -0.027648256
Nb      -2.911135092   3.372744664   2.391194312
Nb      -2.908958610  -0.000732427   0.013987454
Nb      -4.354506186   0.841301384   2.432826500


     NEW-OLD atomic charge density approx. for the potential

     Check: negative/imaginary core charge=   -0.000001    0.000000
     extrapolated charge  100.44337, renormalised to  100.00000

     total cpu time spent up to now is     6017.5 secs

     Self-consistent Calculation

     iteration #  1     ecut=    40.00 Ry     beta= 0.60
     Davidson diagonalization with overlap
     c_bands:  1 eigenvalues not converged
     c_bands:  1 eigenvalues not converged
     c_bands:  1 eigenvalues not converged
     ethr =  1.00E-06,  avg # of iterations =  6.2

     total cpu time spent up to now is     6139.4 secs

     total energy              =    -938.23465885 Ry
     Harris-Foulkes estimate   =    -937.51249363 Ry
     estimated scf accuracy    <       0.00995123 Ry

     iteration #  2     ecut=    40.00 Ry     beta= 0.60
     Davidson diagonalization with overlap
     c_bands:  1 eigenvalues not converged
     c_bands:  1 eigenvalues not converged
     c_bands:  1 eigenvalues not converged
     c_bands:  2 eigenvalues not converged
     c_bands:  1 eigenvalues not converged
     ethr =  9.95E-06,  avg # of iterations =  7.1

     total cpu time spent up to now is     6251.4 secs

     total energy              =    -938.23198820 Ry
     Harris-Foulkes estimate   =    -938.26681478 Ry
     estimated scf accuracy    <       0.21840907 Ry

     iteration #  3     ecut=    40.00 Ry     beta= 0.60
     Davidson diagonalization with overlap
     ethr =  9.95E-06,  avg # of iterations =  5.2

     total cpu time spent up to now is     6343.6 secs

     total energy              =    -938.24599137 Ry
     Harris-Foulkes estimate   =    -938.24904810 Ry
     estimated scf accuracy    <       0.00879766 Ry

     iteration #  4     ecut=    40.00 Ry     beta= 0.60
     Davidson diagonalization with overlap
     ethr =  8.80E-06,  avg # of iterations =  2.1

     total cpu time spent up to now is     6397.8 secs

     total energy              =    -938.24677936 Ry
     Harris-Foulkes estimate   =    -938.24703850 Ry
     estimated scf accuracy    <       0.00294049 Ry

     iteration #  5     ecut=    40.00 Ry     beta= 0.60
     Davidson diagonalization with overlap
     ethr =  2.94E-06,  avg # of iterations =  1.9

     total cpu time spent up to now is     6448.0 secs

     total energy              =    -938.24623466 Ry
     Harris-Foulkes estimate   =    -938.24685644 Ry
     estimated scf accuracy    <       0.00232555 Ry

     iteration #  6     ecut=    40.00 Ry     beta= 0.60
     Davidson diagonalization with overlap
     ethr =  2.33E-06,  avg # of iterations =  2.7

     total cpu time spent up to now is     6502.7 secs

     total energy              =    -938.24636577 Ry
     Harris-Foulkes estimate   =    -938.24641952 Ry
     estimated scf accuracy    <       0.00049845 Ry

     iteration #  7     ecut=    40.00 Ry     beta= 0.60
     Davidson diagonalization with overlap
     ethr =  4.98E-07,  avg # of iterations =  3.1

     total cpu time spent up to now is     6561.5 secs

     total energy              =    -938.24639939 Ry
     Harris-Foulkes estimate   =    -938.24642190 Ry
     estimated scf accuracy    <       0.00022167 Ry

     iteration #  8     ecut=    40.00 Ry     beta= 0.60
     Davidson diagonalization with overlap
     ethr =  2.22E-07,  avg # of iterations =  3.0

     total cpu time spent up to now is     6616.6 secs

     total energy              =    -938.24640684 Ry
     Harris-Foulkes estimate   =    -938.24641335 Ry
     estimated scf accuracy    <       0.00005851 Ry

     iteration #  9     ecut=    40.00 Ry     beta= 0.60
     Davidson diagonalization with overlap
     ethr =  5.85E-08,  avg # of iterations =  4.0

     total cpu time spent up to now is     6679.8 secs

     total energy              =    -938.24641173 Ry
     Harris-Foulkes estimate   =    -938.24641266 Ry
     estimated scf accuracy    <       0.00000901 Ry

     iteration # 10     ecut=    40.00 Ry     beta= 0.60
     Davidson diagonalization with overlap
     ethr =  9.01E-09,  avg # of iterations =  4.0

     total cpu time spent up to now is     6742.8 secs

     total energy              =    -938.24641187 Ry
     Harris-Foulkes estimate   =    -938.24641265 Ry
     estimated scf accuracy    <       0.00000427 Ry

     iteration # 11     ecut=    40.00 Ry     beta= 0.60
     Davidson diagonalization with overlap
     ethr =  4.27E-09,  avg # of iterations =  2.3

     total cpu time spent up to now is     6796.4 secs

     total energy              =    -938.24641163 Ry
     Harris-Foulkes estimate   =    -938.24641218 Ry
     estimated scf accuracy    <       0.00000402 Ry

     iteration # 12     ecut=    40.00 Ry     beta= 0.60
     Davidson diagonalization with overlap
     ethr =  4.02E-09,  avg # of iterations =  2.0

     total cpu time spent up to now is     6848.6 secs

     total energy              =    -938.24641170 Ry
     Harris-Foulkes estimate   =    -938.24641186 Ry
     estimated scf accuracy    <       0.00000135 Ry

     iteration # 13     ecut=    40.00 Ry     beta= 0.60
     Davidson diagonalization with overlap
     ethr =  1.35E-09,  avg # of iterations =  3.2

     total cpu time spent up to now is     6903.8 secs

     total energy              =    -938.24641173 Ry
     Harris-Foulkes estimate   =    -938.24641178 Ry
     estimated scf accuracy    <       0.00000025 Ry

     iteration # 14     ecut=    40.00 Ry     beta= 0.60
     Davidson diagonalization with overlap
     ethr =  2.46E-10,  avg # of iterations =  4.5

     total cpu time spent up to now is     6978.9 secs

     total energy              =    -938.24641179 Ry
     Harris-Foulkes estimate   =    -938.24641181 Ry
     estimated scf accuracy    <       0.00000012 Ry

     iteration # 15     ecut=    40.00 Ry     beta= 0.60
     Davidson diagonalization with overlap
     ethr =  1.21E-10,  avg # of iterations =  1.1

     total cpu time spent up to now is     7026.8 secs

     total energy              =    -938.24641179 Ry
     Harris-Foulkes estimate   =    -938.24641180 Ry
     estimated scf accuracy    <       0.00000002 Ry

     iteration # 16     ecut=    40.00 Ry     beta= 0.60
     Davidson diagonalization with overlap
     ethr =  1.77E-11,  avg # of iterations =  4.7

     total cpu time spent up to now is     7104.0 secs

     total energy              =    -938.24641180 Ry
     Harris-Foulkes estimate   =    -938.24641180 Ry
     estimated scf accuracy    <       0.00000004 Ry

     iteration # 17     ecut=    40.00 Ry     beta= 0.60
     Davidson diagonalization with overlap
     ethr =  1.77E-11,  avg # of iterations =  1.0

     total cpu time spent up to now is     7151.6 secs

     total energy              =    -938.24641180 Ry
     Harris-Foulkes estimate   =    -938.24641180 Ry
     estimated scf accuracy    <       0.00000001 Ry

     iteration # 18     ecut=    40.00 Ry     beta= 0.60
     Davidson diagonalization with overlap
     ethr =  1.36E-11,  avg # of iterations =  3.8

     total cpu time spent up to now is     7216.5 secs

     total energy              =    -938.24641180 Ry
     Harris-Foulkes estimate   =    -938.24641180 Ry
     estimated scf accuracy    <          4.8E-10 Ry

     iteration # 19     ecut=    40.00 Ry     beta= 0.60
     Davidson diagonalization with overlap
     ethr =  4.80E-13,  avg # of iterations =  3.6

     total cpu time spent up to now is     7280.7 secs

     End of self-consistent calculation

     Number of k-points >= 100: set verbosity='high' to print the bands.

     the Fermi energy is    15.8190 ev

!    total energy              =    -938.24641180 Ry
     Harris-Foulkes estimate   =    -938.24641180 Ry
     estimated scf accuracy    <          9.7E-11 Ry

     The total energy is the sum of the following terms:

     one-electron contribution =    -232.40112615 Ry
     hartree contribution      =     158.25876212 Ry
     xc contribution           =    -131.81263752 Ry
     ewald contribution        =    -732.28613015 Ry
     smearing contrib. (-TS)   =      -0.00528010 Ry

     convergence has been achieved in  19 iterations

     Forces acting on atoms (cartesian axes, Ry/au):

     atom    1 type  2   force =    -0.00018971   -0.00207975    0.00467265
     atom    2 type  2   force =     0.00191734   -0.00086280    0.00467041
     atom    3 type  2   force =    -0.00189597    0.00087559   -0.00467265
     atom    4 type  2   force =     0.00021146    0.00209187   -0.00467041
     atom    5 type  1   force =    -0.00344118    0.00244428   -0.01058138
     atom    6 type  1   force =    -0.00041732    0.00418903   -0.01057687
     atom    7 type  1   force =     0.00039622   -0.00420229    0.01058138
     atom    8 type  1   force =     0.00341915   -0.00245592    0.01057687

     Total force =     0.024972     Total SCF correction =     0.000015


     Computing stress (Cartesian axis) and pressure

          total   stress  (Ry/bohr**3)                   (kbar)     P=    6.50
  -0.00002940  -0.00001830   0.00002070         -4.32     -2.69      3.05
  -0.00001830  -0.00000827  -0.00003585         -2.69     -1.22     -5.27
   0.00002070  -0.00003585   0.00017019          3.05     -5.27     25.04


     number of scf cycles    =   4
     number of bfgs steps    =   3

     enthalpy old            =    -938.2447948504 Ry
     enthalpy new            =    -938.2464118005 Ry

     CASE: enthalpy_new < enthalpy_old


     WARNING: bfgs curvature condition failed, Theta= 0.997
     new trust radius        =       0.0440389596 bohr
     new conv_thr            =            1.0E-10 Ry

     new unit-cell volume =    962.86595 a.u.^3 (   142.68201 Ang^3 )
     density =      6.55330 g/cm^3

CELL_PARAMETERS (alat=  1.88972599)
  -1.445761934   2.504133316   4.865508721
  -1.469507234   2.545261379  -4.894623811
  -4.342862707  -2.507353144  -0.000000000

ATOMIC_POSITIONS (angstrom)
Ti      -7.255560452   2.536673280  -0.015536080
Ti      -2.912764931   3.374560492  -2.448291477
Ti      -4.361246578   2.538280502  -0.035415328
Ti      -4.361316576   0.868819442  -2.468168637
Nb      -5.810063531   0.022730264  -0.043835366
Nb      -2.904272595   3.369808225   2.388924708
Nb      -2.900367300  -0.002305535   0.021999049
Nb      -4.337440692   0.837422091   2.454747710


     NEW-OLD atomic charge density approx. for the potential

     Check: negative/imaginary core charge=   -0.000001    0.000000
     extrapolated charge  100.21707, renormalised to  100.00000

     total cpu time spent up to now is     7309.8 secs

     Self-consistent Calculation

     iteration #  1     ecut=    40.00 Ry     beta= 0.60
     Davidson diagonalization with overlap
     c_bands:  1 eigenvalues not converged
     c_bands:  1 eigenvalues not converged
     c_bands:  1 eigenvalues not converged
     c_bands:  2 eigenvalues not converged
     c_bands:  1 eigenvalues not converged
     c_bands:  1 eigenvalues not converged
     ethr =  1.00E-06,  avg # of iterations =  7.2

     total cpu time spent up to now is     7437.9 secs

     total energy              =    -938.24626846 Ry
     Harris-Foulkes estimate   =    -937.88777234 Ry
     estimated scf accuracy    <       0.00237087 Ry

     iteration #  2     ecut=    40.00 Ry     beta= 0.60
     Davidson diagonalization with overlap
     c_bands:  1 eigenvalues not converged
     ethr =  2.37E-06,  avg # of iterations =  5.5

     total cpu time spent up to now is     7543.3 secs

     total energy              =    -938.24752128 Ry
     Harris-Foulkes estimate   =    -938.25048548 Ry
     estimated scf accuracy    <       0.01022656 Ry

     iteration #  3     ecut=    40.00 Ry     beta= 0.60
     Davidson diagonalization with overlap
     ethr =  2.37E-06,  avg # of iterations =  5.0

     total cpu time spent up to now is     7631.3 secs

     total energy              =    -938.24786984 Ry
     Harris-Foulkes estimate   =    -938.24969286 Ry
     estimated scf accuracy    <       0.00865346 Ry

     iteration #  4     ecut=    40.00 Ry     beta= 0.60
     Davidson diagonalization with overlap
     ethr =  2.37E-06,  avg # of iterations =  5.1

     total cpu time spent up to now is     7709.1 secs

     total energy              =    -938.24874873 Ry
     Harris-Foulkes estimate   =    -938.24890273 Ry
     estimated scf accuracy    <       0.00117065 Ry

     iteration #  5     ecut=    40.00 Ry     beta= 0.60
     Davidson diagonalization with overlap
     ethr =  1.17E-06,  avg # of iterations =  1.1

     total cpu time spent up to now is     7756.9 secs

     total energy              =    -938.24868455 Ry
     Harris-Foulkes estimate   =    -938.24877725 Ry
     estimated scf accuracy    <       0.00056511 Ry

     iteration #  6     ecut=    40.00 Ry     beta= 0.60
     Davidson diagonalization with overlap
     ethr =  5.65E-07,  avg # of iterations =  3.3

     total cpu time spent up to now is     7815.3 secs

     total energy              =    -938.24866683 Ry
     Harris-Foulkes estimate   =    -938.24875915 Ry
     estimated scf accuracy    <       0.00056095 Ry

     iteration #  7     ecut=    40.00 Ry     beta= 0.60
     Davidson diagonalization with overlap
     ethr =  5.61E-07,  avg # of iterations =  2.7

     total cpu time spent up to now is     7868.1 secs

     total energy              =    -938.24871441 Ry
     Harris-Foulkes estimate   =    -938.24871721 Ry
     estimated scf accuracy    <       0.00001148 Ry

     iteration #  8     ecut=    40.00 Ry     beta= 0.60
     Davidson diagonalization with overlap
     ethr =  1.15E-08,  avg # of iterations =  5.4

     total cpu time spent up to now is     7959.4 secs

     total energy              =    -938.24873053 Ry
     Harris-Foulkes estimate   =    -938.24873385 Ry
     estimated scf accuracy    <       0.00007181 Ry

     iteration #  9     ecut=    40.00 Ry     beta= 0.60
     Davidson diagonalization with overlap
     ethr =  1.15E-08,  avg # of iterations =  1.0

     total cpu time spent up to now is     8007.0 secs

     total energy              =    -938.24873043 Ry
     Harris-Foulkes estimate   =    -938.24873090 Ry
     estimated scf accuracy    <       0.00004802 Ry

     iteration # 10     ecut=    40.00 Ry     beta= 0.60
     Davidson diagonalization with overlap
     ethr =  1.15E-08,  avg # of iterations =  1.0

     total cpu time spent up to now is     8054.5 secs

     total energy              =    -938.24872487 Ry
     Harris-Foulkes estimate   =    -938.24873051 Ry
     estimated scf accuracy    <       0.00004337 Ry

     iteration # 11     ecut=    40.00 Ry     beta= 0.60
     Davidson diagonalization with overlap
     ethr =  1.15E-08,  avg # of iterations =  4.1

     total cpu time spent up to now is     8123.1 secs

     total energy              =    -938.24872727 Ry
     Harris-Foulkes estimate   =    -938.24872764 Ry
     estimated scf accuracy    <       0.00000127 Ry

     iteration # 12     ecut=    40.00 Ry     beta= 0.60
     Davidson diagonalization with overlap
     ethr =  1.27E-09,  avg # of iterations =  4.8

     total cpu time spent up to now is     8204.0 secs

     total energy              =    -938.24872783 Ry
     Harris-Foulkes estimate   =    -938.24872783 Ry
     estimated scf accuracy    <       0.00000239 Ry

     iteration # 13     ecut=    40.00 Ry     beta= 0.60
     Davidson diagonalization with overlap
     ethr =  1.27E-09,  avg # of iterations =  1.0

     total cpu time spent up to now is     8251.6 secs

     total energy              =    -938.24872775 Ry
     Harris-Foulkes estimate   =    -938.24872784 Ry
     estimated scf accuracy    <       0.00000253 Ry

     iteration # 14     ecut=    40.00 Ry     beta= 0.60
     Davidson diagonalization with overlap
     ethr =  1.27E-09,  avg # of iterations =  1.0

     total cpu time spent up to now is     8299.2 secs

     total energy              =    -938.24872756 Ry
     Harris-Foulkes estimate   =    -938.24872776 Ry
     estimated scf accuracy    <       0.00000200 Ry

     iteration # 15     ecut=    40.00 Ry     beta= 0.60
     Davidson diagonalization with overlap
     ethr =  1.27E-09,  avg # of iterations =  1.0

     total cpu time spent up to now is     8346.9 secs

     total energy              =    -938.24872752 Ry
     Harris-Foulkes estimate   =    -938.24872760 Ry
     estimated scf accuracy    <       0.00000066 Ry

     iteration # 16     ecut=    40.00 Ry     beta= 0.60
     Davidson diagonalization with overlap
     ethr =  6.56E-10,  avg # of iterations =  4.0

     total cpu time spent up to now is     8412.4 secs

     total energy              =    -938.24872760 Ry
     Harris-Foulkes estimate   =    -938.24872760 Ry
     estimated scf accuracy    <          9.2E-09 Ry

     iteration # 17     ecut=    40.00 Ry     beta= 0.60
     Davidson diagonalization with overlap
     ethr =  9.24E-12,  avg # of iterations =  5.3

     total cpu time spent up to now is     8504.2 secs

     total energy              =    -938.24872760 Ry
     Harris-Foulkes estimate   =    -938.24872761 Ry
     estimated scf accuracy    <       0.00000008 Ry

     iteration # 18     ecut=    40.00 Ry     beta= 0.60
     Davidson diagonalization with overlap
     ethr =  9.24E-12,  avg # of iterations =  4.6

     total cpu time spent up to now is     8579.8 secs

     total energy              =    -938.24872760 Ry
     Harris-Foulkes estimate   =    -938.24872760 Ry
     estimated scf accuracy    <          7.3E-10 Ry

     iteration # 19     ecut=    40.00 Ry     beta= 0.60
     Davidson diagonalization with overlap
     ethr =  7.32E-13,  avg # of iterations =  2.2

     total cpu time spent up to now is     8634.4 secs

     total energy              =    -938.24872760 Ry
     Harris-Foulkes estimate   =    -938.24872760 Ry
     estimated scf accuracy    <          6.2E-10 Ry

     iteration # 20     ecut=    40.00 Ry     beta= 0.60
     Davidson diagonalization with overlap
     ethr =  6.20E-13,  avg # of iterations =  2.1

     total cpu time spent up to now is     8685.2 secs

     End of self-consistent calculation

     Number of k-points >= 100: set verbosity='high' to print the bands.

     the Fermi energy is    15.7697 ev

!    total energy              =    -938.24872760 Ry
     Harris-Foulkes estimate   =    -938.24872760 Ry
     estimated scf accuracy    <          5.3E-11 Ry

     The total energy is the sum of the following terms:

     one-electron contribution =    -233.30597087 Ry
     hartree contribution      =     158.54313399 Ry
     xc contribution           =    -131.79710415 Ry
     ewald contribution        =    -731.68378437 Ry
     smearing contrib. (-TS)   =      -0.00500219 Ry

     convergence has been achieved in  20 iterations

     Forces acting on atoms (cartesian axes, Ry/au):

     atom    1 type  2   force =    -0.00175357   -0.00120165    0.00348010
     atom    2 type  2   force =     0.00193262    0.00092566    0.00347484
     atom    3 type  2   force =    -0.00191744   -0.00091781   -0.00348010
     atom    4 type  2   force =     0.00176795    0.00121087   -0.00347484
     atom    5 type  1   force =    -0.00252576    0.00174401   -0.00942658
     atom    6 type  1   force =    -0.00026169    0.00304986   -0.00942154
     atom    7 type  1   force =     0.00024748   -0.00305938    0.00942658
     atom    8 type  1   force =     0.00251041   -0.00175156    0.00942154

     Total force =     0.021434     Total SCF correction =     0.000013


     Computing stress (Cartesian axis) and pressure

          total   stress  (Ry/bohr**3)                   (kbar)     P=    2.24
  -0.00004073  -0.00001527   0.00002405         -5.99     -2.25      3.54
  -0.00001527  -0.00002309  -0.00004165         -2.25     -3.40     -6.13
   0.00002405  -0.00004165   0.00010952          3.54     -6.13     16.11


     number of scf cycles    =   5
     number of bfgs steps    =   4

     enthalpy old            =    -938.2464118005 Ry
     enthalpy new            =    -938.2487276030 Ry

     CASE: enthalpy_new < enthalpy_old

     new trust radius        =       0.0656581162 bohr
     new conv_thr            =            1.0E-10 Ry

     new unit-cell volume =    963.72652 a.u.^3 (   142.80953 Ang^3 )
     density =      6.54745 g/cm^3

CELL_PARAMETERS (alat=  1.88972599)
  -1.433241306   2.482446954   4.903706872
  -1.474025468   2.553087191  -4.953846315
[...]
     atom    5 type  1   force =     0.00002151   -0.00021720   -0.00005110
     atom    6 type  1   force =     0.00017774   -0.00013625   -0.00007470
     atom    7 type  1   force =    -0.00017735    0.00012722    0.00005110
     atom    8 type  1   force =    -0.00002913    0.00022205    0.00007470

     Total force =     0.000519     Total SCF correction =     0.000006


     Computing stress (Cartesian axis) and pressure

          total   stress  (Ry/bohr**3)                   (kbar)     P=   -0.32
  -0.00000181   0.00000190   0.00000076         -0.27      0.28      0.11
   0.00000190  -0.00000401  -0.00000132          0.28     -0.59     -0.19
   0.00000076  -0.00000132  -0.00000064          0.11     -0.19     -0.09


     number of scf cycles    =  48
     number of bfgs steps    =  47

     enthalpy old            =    -938.3227608623 Ry
     enthalpy new            =    -938.3227657701 Ry

     CASE: enthalpy_new < enthalpy_old

     new trust radius        =       0.0022583974 bohr
     new conv_thr            =            2.2E-11 Ry

     new unit-cell volume =    946.39674 a.u.^3 (   140.24153 Ang^3 )
     density =      6.66735 g/cm^3

CELL_PARAMETERS (alat=  1.88972599)
  -1.663853254   2.881878543   4.617097814
  -1.623843017   2.812578768  -4.704734921
  -3.962457809  -2.287726280  -0.000000001

ATOMIC_POSITIONS (angstrom)
Ti      -7.607833478   3.263691518  -0.015581243
Ti      -2.813443519   4.110464430  -2.324196322
Ti      -4.749716671   2.888740180  -0.137783697
Ti      -3.917797789   1.447809794  -2.446266386
Nb      -5.905702434   0.316339658  -0.106466041
Nb      -2.775921492   4.044592838   2.202151613
Nb      -3.163436323   0.142047603   0.040738208
Nb      -3.996093494   1.582540389   2.349218414


     NEW-OLD atomic charge density approx. for the potential
     extrapolated charge   99.99423, renormalised to  100.00000

     total cpu time spent up to now is    58072.2 secs

     Self-consistent Calculation

     iteration #  1     ecut=    40.00 Ry     beta= 0.60
     Davidson diagonalization with overlap
     ethr =  1.00E-06,  avg # of iterations =  3.0

     Threshold (ethr) on eigenvalues was too large:
     Diagonalizing with lowered threshold

     Davidson diagonalization with overlap
     ethr =  5.65E-09,  avg # of iterations =  4.8

     total cpu time spent up to now is    58232.5 secs

     total energy              =    -938.32276307 Ry
     Harris-Foulkes estimate   =    -938.33218565 Ry
     estimated scf accuracy    <       0.00000606 Ry

     iteration #  2     ecut=    40.00 Ry     beta= 0.60
     Davidson diagonalization with overlap
     ethr =  6.06E-09,  avg # of iterations =  5.0

     total cpu time spent up to now is    58331.4 secs

     total energy              =    -938.32275455 Ry
     Harris-Foulkes estimate   =    -938.32278270 Ry
     estimated scf accuracy    <       0.00020005 Ry

     iteration #  3     ecut=    40.00 Ry     beta= 0.60
     Davidson diagonalization with overlap
     ethr =  6.06E-09,  avg # of iterations =  5.0

     total cpu time spent up to now is    58413.1 secs

     total energy              =    -938.32276756 Ry
     Harris-Foulkes estimate   =    -938.32276811 Ry
     estimated scf accuracy    <       0.00000126 Ry

     iteration #  4     ecut=    40.00 Ry     beta= 0.60
     Davidson diagonalization with overlap
     ethr =  1.26E-09,  avg # of iterations =  2.5

     total cpu time spent up to now is    58472.3 secs

     total energy              =    -938.32276764 Ry
     Harris-Foulkes estimate   =    -938.32276775 Ry
     estimated scf accuracy    <       0.00000040 Ry

     iteration #  5     ecut=    40.00 Ry     beta= 0.60
     Davidson diagonalization with overlap
     ethr =  3.98E-10,  avg # of iterations =  4.1

     total cpu time spent up to now is    58545.1 secs

     total energy              =    -938.32276745 Ry
     Harris-Foulkes estimate   =    -938.32276796 Ry
     estimated scf accuracy    <       0.00000437 Ry

     iteration #  6     ecut=    40.00 Ry     beta= 0.60
     Davidson diagonalization with overlap
     ethr =  3.98E-10,  avg # of iterations =  4.1

     total cpu time spent up to now is    58616.7 secs

     total energy              =    -938.32276771 Ry
     Harris-Foulkes estimate   =    -938.32276771 Ry
     estimated scf accuracy    <       0.00000004 Ry

     iteration #  7     ecut=    40.00 Ry     beta= 0.60
     Davidson diagonalization with overlap
     ethr =  3.86E-11,  avg # of iterations =  3.4

     total cpu time spent up to now is    58681.1 secs

     total energy              =    -938.32276771 Ry
     Harris-Foulkes estimate   =    -938.32276772 Ry
     estimated scf accuracy    <       0.00000004 Ry

     iteration #  8     ecut=    40.00 Ry     beta= 0.60
     Davidson diagonalization with overlap
     ethr =  3.86E-11,  avg # of iterations =  2.0

     total cpu time spent up to now is    58732.6 secs

     total energy              =    -938.32276771 Ry
     Harris-Foulkes estimate   =    -938.32276771 Ry
     estimated scf accuracy    <          2.8E-09 Ry

     iteration #  9     ecut=    40.00 Ry     beta= 0.60
     Davidson diagonalization with overlap
     ethr =  2.75E-12,  avg # of iterations =  4.5

     total cpu time spent up to now is    58809.5 secs

     total energy              =    -938.32276771 Ry
     Harris-Foulkes estimate   =    -938.32276771 Ry
     estimated scf accuracy    <          2.7E-09 Ry

     iteration # 10     ecut=    40.00 Ry     beta= 0.60
     Davidson diagonalization with overlap
     ethr =  2.68E-12,  avg # of iterations =  1.0

     total cpu time spent up to now is    58857.4 secs

     total energy              =    -938.32276771 Ry
     Harris-Foulkes estimate   =    -938.32276771 Ry
     estimated scf accuracy    <          5.8E-10 Ry

     iteration # 11     ecut=    40.00 Ry     beta= 0.60
     Davidson diagonalization with overlap
     ethr =  5.79E-13,  avg # of iterations =  3.4

     total cpu time spent up to now is    58922.7 secs

     total energy              =    -938.32276771 Ry
     Harris-Foulkes estimate   =    -938.32276771 Ry
     estimated scf accuracy    <          4.5E-11 Ry

     iteration # 12     ecut=    40.00 Ry     beta= 0.60
     Davidson diagonalization with overlap
     ethr =  1.00E-13,  avg # of iterations =  1.5

     total cpu time spent up to now is    58972.0 secs

     End of self-consistent calculation

     Number of k-points >= 100: set verbosity='high' to print the bands.

     the Fermi energy is    15.7554 ev

!    total energy              =    -938.32276771 Ry
     Harris-Foulkes estimate   =    -938.32276771 Ry
     estimated scf accuracy    <          9.6E-12 Ry

     The total energy is the sum of the following terms:

     one-electron contribution =    -227.87032437 Ry
     hartree contribution      =     157.05596071 Ry
     xc contribution           =    -131.95901274 Ry
     ewald contribution        =    -735.54844161 Ry
     smearing contrib. (-TS)   =      -0.00094969 Ry

     convergence has been achieved in  12 iterations

     Forces acting on atoms (cartesian axes, Ry/au):

     atom    1 type  2   force =     0.00007325   -0.00010256    0.00007009
     atom    2 type  2   force =     0.00005034   -0.00010354    0.00008287
     atom    3 type  2   force =    -0.00005219    0.00011472   -0.00007009
     atom    4 type  2   force =    -0.00006450    0.00009537   -0.00008287
     atom    5 type  1   force =    -0.00004811   -0.00007252   -0.00010324
     atom    6 type  1   force =     0.00008959   -0.00000729   -0.00012259
     atom    7 type  1   force =    -0.00008686   -0.00000541    0.00010324
     atom    8 type  1   force =     0.00003849    0.00008123    0.00012259

     Total force =     0.000406     Total SCF correction =     0.000008


     Computing stress (Cartesian axis) and pressure

          total   stress  (Ry/bohr**3)                   (kbar)     P=   -0.20
  -0.00000067   0.00000110   0.00000031         -0.10      0.16      0.05
   0.00000110  -0.00000194  -0.00000054          0.16     -0.29     -0.08
   0.00000031  -0.00000054  -0.00000152          0.05     -0.08     -0.22


     number of scf cycles    =  49
     number of bfgs steps    =  48

     enthalpy old            =    -938.3227657701 Ry
     enthalpy new            =    -938.3227677114 Ry

     CASE: enthalpy_new < enthalpy_old

     new trust radius        =       0.0011245291 bohr
     new conv_thr            =            1.2E-11 Ry

     new unit-cell volume =    946.29136 a.u.^3 (   140.22591 Ang^3 )
     density =      6.66809 g/cm^3

CELL_PARAMETERS (alat=  1.88972599)
  -1.663281525   2.880888279   4.617179071
  -1.623870102   2.812625681  -4.705488108
  -3.962321708  -2.287647702  -0.000000001

ATOMIC_POSITIONS (angstrom)
Ti      -7.607164969   3.262579809  -0.015912496
Ti      -2.812947712   4.109926804  -2.324562077
Ti      -4.749460108   2.888184828  -0.138628322
Ti      -3.917566036   1.447886679  -2.447157765
Nb      -5.905246148   0.315859278  -0.106768000
Nb      -2.775284495   4.043545672   2.201875279
Nb      -3.163283770   0.141936147   0.040536220
Nb      -3.995633606   1.581957140   2.349072059


     NEW-OLD atomic charge density approx. for the potential
     extrapolated charge   99.98931, renormalised to  100.00000

     total cpu time spent up to now is    59001.3 secs

     Self-consistent Calculation

     iteration #  1     ecut=    40.00 Ry     beta= 0.60
     Davidson diagonalization with overlap
     ethr =  1.00E-06,  avg # of iterations =  2.8

     Threshold (ethr) on eigenvalues was too large:
     Diagonalizing with lowered threshold

     Davidson diagonalization with overlap
     ethr =  1.03E-08,  avg # of iterations =  3.0

     total cpu time spent up to now is    59135.5 secs

     total energy              =    -938.32275556 Ry
     Harris-Foulkes estimate   =    -938.34022582 Ry
     estimated scf accuracy    <       0.00001353 Ry

     iteration #  2     ecut=    40.00 Ry     beta= 0.60
     Davidson diagonalization with overlap
     ethr =  1.35E-08,  avg # of iterations =  5.0

     total cpu time spent up to now is    59235.4 secs

     total energy              =    -938.32273437 Ry
     Harris-Foulkes estimate   =    -938.32280964 Ry
     estimated scf accuracy    <       0.00054698 Ry

     iteration #  3     ecut=    40.00 Ry     beta= 0.60
     Davidson diagonalization with overlap
     ethr =  1.35E-08,  avg # of iterations =  5.0

     total cpu time spent up to now is    59318.1 secs

     total energy              =    -938.32276817 Ry
     Harris-Foulkes estimate   =    -938.32276964 Ry
     estimated scf accuracy    <       0.00000422 Ry

     iteration #  4     ecut=    40.00 Ry     beta= 0.60
     Davidson diagonalization with overlap
     ethr =  4.22E-09,  avg # of iterations =  2.0

     total cpu time spent up to now is    59371.5 secs

     total energy              =    -938.32276820 Ry
     Harris-Foulkes estimate   =    -938.32276853 Ry
     estimated scf accuracy    <       0.00000186 Ry

     iteration #  5     ecut=    40.00 Ry     beta= 0.60
     Davidson diagonalization with overlap
     ethr =  1.86E-09,  avg # of iterations =  2.5

     total cpu time spent up to now is    59426.9 secs

     total energy              =    -938.32276815 Ry
     Harris-Foulkes estimate   =    -938.32276843 Ry
     estimated scf accuracy    <       0.00000223 Ry

     iteration #  6     ecut=    40.00 Ry     beta= 0.60
     Davidson diagonalization with overlap
     ethr =  1.86E-09,  avg # of iterations =  1.0

     total cpu time spent up to now is    59474.7 secs

     total energy              =    -938.32276815 Ry
     Harris-Foulkes estimate   =    -938.32276826 Ry
     estimated scf accuracy    <       0.00000044 Ry

     iteration #  7     ecut=    40.00 Ry     beta= 0.60
     Davidson diagonalization with overlap
     ethr =  4.39E-10,  avg # of iterations =  3.6

     total cpu time spent up to now is    59540.6 secs

     total energy              =    -938.32276823 Ry
     Harris-Foulkes estimate   =    -938.32276823 Ry
     estimated scf accuracy    <       0.00000004 Ry

     iteration #  8     ecut=    40.00 Ry     beta= 0.60
     Davidson diagonalization with overlap
     ethr =  4.42E-11,  avg # of iterations =  3.7

     total cpu time spent up to now is    59604.9 secs

     total energy              =    -938.32276823 Ry
     Harris-Foulkes estimate   =    -938.32276824 Ry
     estimated scf accuracy    <       0.00000003 Ry

     iteration #  9     ecut=    40.00 Ry     beta= 0.60
     Davidson diagonalization with overlap
     ethr =  3.19E-11,  avg # of iterations =  1.0

     total cpu time spent up to now is    59652.8 secs

     total energy              =    -938.32276823 Ry
     Harris-Foulkes estimate   =    -938.32276823 Ry
     estimated scf accuracy    <       0.00000002 Ry

     iteration # 10     ecut=    40.00 Ry     beta= 0.60
     Davidson diagonalization with overlap
     ethr =  2.05E-11,  avg # of iterations =  3.1

     total cpu time spent up to now is    59713.2 secs

     total energy              =    -938.32276823 Ry
     Harris-Foulkes estimate   =    -938.32276823 Ry
     estimated scf accuracy    <          2.1E-10 Ry

     iteration # 11     ecut=    40.00 Ry     beta= 0.60
     Davidson diagonalization with overlap
     ethr =  2.12E-13,  avg # of iterations =  5.1

     total cpu time spent up to now is    59810.4 secs

     total energy              =    -938.32276823 Ry
     Harris-Foulkes estimate   =    -938.32276823 Ry
     estimated scf accuracy    <          1.1E-09 Ry

     iteration # 12     ecut=    40.00 Ry     beta= 0.60
     Davidson diagonalization with overlap
     ethr =  2.12E-13,  avg # of iterations =  3.8

     total cpu time spent up to now is    59871.5 secs

     total energy              =    -938.32276823 Ry
     Harris-Foulkes estimate   =    -938.32276823 Ry
     estimated scf accuracy    <          8.6E-11 Ry

     iteration # 13     ecut=    40.00 Ry     beta= 0.60
     Davidson diagonalization with overlap
     ethr =  1.00E-13,  avg # of iterations =  3.4

     total cpu time spent up to now is    59931.1 secs

     End of self-consistent calculation

     Number of k-points >= 100: set verbosity='high' to print the bands.

     the Fermi energy is    15.7574 ev

!    total energy              =    -938.32276823 Ry
     Harris-Foulkes estimate   =    -938.32276823 Ry
     estimated scf accuracy    <          3.8E-12 Ry

     The total energy is the sum of the following terms:

     one-electron contribution =    -227.83013187 Ry
     hartree contribution      =     157.04423895 Ry
     xc contribution           =    -131.95991805 Ry
     ewald contribution        =    -735.57601101 Ry
     smearing contrib. (-TS)   =      -0.00094624 Ry

     convergence has been achieved in  13 iterations

     Forces acting on atoms (cartesian axes, Ry/au):

     atom    1 type  2   force =     0.00006327   -0.00006088    0.00005074
     atom    2 type  2   force =     0.00002124   -0.00007762    0.00006258
     atom    3 type  2   force =    -0.00002108    0.00008524   -0.00005074
     atom    4 type  2   force =    -0.00005660    0.00005720   -0.00006258
     atom    5 type  1   force =    -0.00007764   -0.00002302   -0.00008332
     atom    6 type  1   force =     0.00005987    0.00004591   -0.00009661
     atom    7 type  1   force =    -0.00005875   -0.00005573    0.00008332
     atom    8 type  1   force =     0.00006969    0.00002890    0.00009661

     Total force =     0.000314     Total SCF correction =     0.000002


     Computing stress (Cartesian axis) and pressure

          total   stress  (Ry/bohr**3)                   (kbar)     P=   -0.05
   0.00000046   0.00000078   0.00000002          0.07      0.11      0.00
   0.00000078  -0.00000044  -0.00000003          0.11     -0.06     -0.00
   0.00000002  -0.00000003  -0.00000100          0.00     -0.00     -0.15


     number of scf cycles    =  50
     number of bfgs steps    =  49

     enthalpy old            =    -938.3227677114 Ry
     enthalpy new            =    -938.3227682305 Ry

     CASE: enthalpy_new < enthalpy_old

     new trust radius        =       0.0004829088 bohr
     new conv_thr            =            9.7E-12 Ry

     new unit-cell volume =    946.22585 a.u.^3 (   140.21620 Ang^3 )
     density =      6.66855 g/cm^3

CELL_PARAMETERS (alat=  1.88972599)
  -1.663037035   2.880464809   4.617023617
  -1.623875627   2.812635251  -4.705616461
  -3.962348325  -2.287663070  -0.000000001

ATOMIC_POSITIONS (angstrom)
Ti      -7.606899318   3.261985855  -0.016100502
Ti      -2.812722345   4.109603232  -2.324662249
Ti      -4.749410164   2.887995223  -0.138936977
Ti      -3.917573184   1.447935099  -2.447398800
Nb      -5.905224512   0.315612005  -0.106984565
Nb      -2.774986408   4.043162798   2.201567138
Nb      -3.163294564   0.141775779   0.040539929
Nb      -3.995405736   1.581665148   2.349011890


     NEW-OLD atomic charge density approx. for the potential
     extrapolated charge   99.99335, renormalised to  100.00000
 
     init_run     :     28.57s CPU     29.16s WALL (       1 calls)
     electrons    :  57605.70s CPU  58469.62s WALL (      50 calls)
     update_pot   :     90.21s CPU     90.55s WALL (      50 calls)
     forces       :    338.80s CPU    346.46s WALL (      50 calls)
     stress       :    983.71s CPU   1003.71s WALL (      50 calls)

     Called by init_run:
     wfcinit      :     26.84s CPU     27.27s WALL (       1 calls)
     potinit      :      0.54s CPU      0.55s WALL (       1 calls)
     hinit0       :      0.95s CPU      0.97s WALL (       1 calls)

     Called by electrons:
     c_bands      :  50598.91s CPU  51185.57s WALL (     827 calls)
     sum_band     :   6743.61s CPU   6927.80s WALL (     827 calls)
     v_of_rho     :     37.00s CPU     37.19s WALL (     872 calls)
     newd         :    234.43s CPU    332.68s WALL (     872 calls)
     mix_rho      :      4.76s CPU      4.81s WALL (     827 calls)

     Called by c_bands:
     init_us_2    :    487.40s CPU    490.22s WALL (  547560 calls)
     cegterg      :  46976.81s CPU  47541.13s WALL (  258024 calls)

     Called by sum_band:
     sum_band:bec :     17.03s CPU     17.83s WALL (  258024 calls)
     addusdens    :    261.84s CPU    348.37s WALL (     827 calls)

     Called by *egterg:
     h_psi        :  29389.58s CPU  29875.24s WALL ( 1200524 calls)
     s_psi        :   1724.84s CPU   1730.74s WALL ( 1200524 calls)
     g_psi        :    247.86s CPU    249.47s WALL (  942188 calls)
     cdiaghg      :   8952.44s CPU   8982.59s WALL ( 1183052 calls)

     Called by h_psi:
     h_psi:pot    :  29271.70s CPU  29754.93s WALL ( 1200524 calls)
     h_psi:calbec :   2004.73s CPU   2017.39s WALL ( 1200524 calls)
     vloc_psi     :  25529.99s CPU  25989.74s WALL ( 1200524 calls)
     add_vuspsi   :   1731.99s CPU   1741.23s WALL ( 1200524 calls)

     General routines
     calbec       :   2917.34s CPU   2936.43s WALL ( 1536548 calls)
     fft          :     25.36s CPU     25.76s WALL (   12593 calls)
     ffts         :      1.00s CPU      0.99s WALL (    1699 calls)
     fftw         :  27770.89s CPU  28198.72s WALL (99419016 calls)
     interpolate  :      2.27s CPU      2.28s WALL (     872 calls)
     davcio       :      0.00s CPU      0.17s WALL (     312 calls)
 
     Parallel routines
     fft_scatt_xy :   5047.04s CPU   5174.60s WALL (99433308 calls)
     fft_scatt_yz :   5384.01s CPU   5501.90s WALL (99433308 calls)
 
     PWSCF        :    16h24m CPU       24h16m WALL

      39h
 
   This run was terminated on:   6: 7:58  26Mar2020            

=------------------------------------------------------------------------------=
   JOB DONE.
=------------------------------------------------------------------------------=
