
     Program PWSCF v.6.3MaX starts on  3Feb2020 at 20:43: 8 

     This program is part of the open-source Quantum ESPRESSO suite
     for quantum simulation of materials; please cite
         "P. Giannozzi et al., J. Phys.:Condens. Matter 21 395502 (2009);
         "P. Giannozzi et al., J. Phys.:Condens. Matter 29 465901 (2017);
          URL http://www.quantum-espresso.org", 
     in publications or presentations arising from this work. More details at
     http://www.quantum-espresso.org/quote

     Parallel version (MPI), running on     4 processors

     MPI processes distributed on     1 nodes
     R & G space division:  proc/nbgrp/npool/nimage =       4
     Waiting for input...
     Reading input from standard input

     Current dimensions of program PWSCF are:
     Max number of different atomic species (ntypx) = 10
     Max number of k-points (npk) =  40000
     Max angular momentum in pseudopotentials (lmaxx) =  3
     Message from routine iosys:
     minimal I/O required, wf_collect reset to FALSE

     Subspace diagonalization in iterative solution of the eigenvalue problem:
     a serial algorithm will be used

 
     Parallelization info
     --------------------
     sticks:   dense  smooth     PW     G-vecs:    dense   smooth      PW
     Min         538     213     65                27719     7004    1154
     Max         539     214     66                27721     7007    1156
     Sum        2155     855    261               110881    28023    4619
 


     bravais-lattice index     =            0
     lattice parameter (alat)  =       1.8897  a.u.
     unit-cell volume          =     586.6735 (a.u.)^3
     number of atoms/cell      =            4
     number of atomic types    =            2
     number of electrons       =        51.00
     number of Kohn-Sham states=           31
     kinetic-energy cutoff     =      50.0000  Ry
     charge density cutoff     =     500.0000  Ry
     convergence threshold     =      1.0E-10
     mixing beta               =       0.6000
     number of iterations used =            8  plain     mixing
     Exchange-correlation      = SLA PW PBE PBE ( 1  4  3  4 0 0)
     nstep                     =           50


     celldm(1)=   1.889726  celldm(2)=   0.000000  celldm(3)=   0.000000
     celldm(4)=   0.000000  celldm(5)=   0.000000  celldm(6)=   0.000000

     crystal axes: (cart. coord. in units of alat)
               a(1) = (   1.758031   1.758031  -1.758031 )  
               a(2) = (  -3.516063   3.516063   0.000000 )  
               a(3) = (   1.758031   1.758031   5.274095 )  

     reciprocal axes: (cart. coord. in units 2 pi/alat)
               b(1) = (  0.213307  0.213307 -0.142205 )  
               b(2) = ( -0.142205  0.142205  0.000000 )  
               b(3) = (  0.071102  0.071102  0.142205 )  


     PseudoPot. # 1 for Nb read from file:
     ./Nb.pbe-nsp-van.UPF
     MD5 check sum: 0a22fc7fb0ba19a08ca5db297a5d2854
     Pseudo is Ultrasoft + core correction, Zval = 13.0
     Generated by new atomic code, or converted to UPF format
     Using radial grid of  887 points,  6 beta functions with: 
                l(1) =   0
                l(2) =   0
                l(3) =   1
                l(4) =   1
                l(5) =   2
                l(6) =   2
     Q(r) pseudized with  6 coefficients,  rinner =    1.000   1.000   1.000
                                                       1.000   1.000

     PseudoPot. # 2 for Ti read from file:
     ./Ti.pbe-sp-van_ak.UPF
     MD5 check sum: f98fea3e8887528921fefa5636a534ca
     Pseudo is Ultrasoft, Zval = 12.0
     Generated by new atomic code, or converted to UPF format
     Using radial grid of  851 points,  6 beta functions with: 
                l(1) =   0
                l(2) =   0
                l(3) =   1
                l(4) =   1
                l(5) =   2
                l(6) =   2
     Q(r) pseudized with  8 coefficients,  rinner =    1.000   1.000   1.000
                                                       1.000   1.000

     atomic species   valence    mass     pseudopotential
        Nb            13.00    92.90638     Nb( 1.00)
        Ti            12.00    47.86700     Ti( 1.00)

      4 Sym. Ops., with inversion, found



   Cartesian axes

     site n.     atom                  positions (alat units)
         1           Ti  tau(   1) = (  -1.7580316   5.2740949   1.7580316  )
         2           Nb  tau(   2) = (   0.0000000   3.5160633   3.5160633  )
         3           Nb  tau(   3) = (   0.0000000   7.0321265   3.5160633  )
         4           Nb  tau(   4) = (   0.0000000   3.5160633   0.0000000  )

     number of k points=   576  Marzari-Vanderbilt smearing, width (Ry)=  0.0200

     Number of k-points >= 100: set verbosity='high' to print them.

     Dense  grid:   110881 G-vectors     FFT dimensions: (  45,  72,  80)

     Smooth grid:    28023 G-vectors     FFT dimensions: (  25,  45,  50)

     Estimated max dynamical RAM per process >     343.63 MB

     Estimated total dynamical RAM >       1.34 GB

     Initial potential from superposition of free atoms

     starting charge   49.99176, renormalised to   51.00000
     Starting wfcs are   49 randomized atomic wfcs

     total cpu time spent up to now is       17.2 secs

     Self-consistent Calculation

     iteration #  1     ecut=    50.00 Ry     beta= 0.60
     Davidson diagonalization with overlap
     ethr =  1.00E-02,  avg # of iterations =  2.4

     total cpu time spent up to now is       49.7 secs

     total energy              =    -446.81783659 Ry
     Harris-Foulkes estimate   =    -472.74523047 Ry
     estimated scf accuracy    <      32.30779319 Ry

     iteration #  2     ecut=    50.00 Ry     beta= 0.60
     Davidson diagonalization with overlap
     ethr =  1.00E-02,  avg # of iterations =  7.4

     total cpu time spent up to now is      111.3 secs

     total energy              =    -455.09827474 Ry
     Harris-Foulkes estimate   =    -509.00145387 Ry
     estimated scf accuracy    <     170.18159347 Ry

     iteration #  3     ecut=    50.00 Ry     beta= 0.60
     Davidson diagonalization with overlap
     ethr =  1.00E-02,  avg # of iterations =  5.1

     total cpu time spent up to now is      165.2 secs

     total energy              =    -472.07131566 Ry
     Harris-Foulkes estimate   =    -473.09804660 Ry
     estimated scf accuracy    <       9.42893354 Ry

     iteration #  4     ecut=    50.00 Ry     beta= 0.60
     Davidson diagonalization with overlap
     ethr =  1.00E-02,  avg # of iterations =  1.1

     total cpu time spent up to now is      191.3 secs

     total energy              =    -471.66186333 Ry
     Harris-Foulkes estimate   =    -472.36853798 Ry
     estimated scf accuracy    <       7.22288848 Ry

     iteration #  5     ecut=    50.00 Ry     beta= 0.60
     Davidson diagonalization with overlap
     ethr =  1.00E-02,  avg # of iterations =  1.0

     total cpu time spent up to now is      217.2 secs

     total energy              =    -470.36638275 Ry
     Harris-Foulkes estimate   =    -471.73226069 Ry
     estimated scf accuracy    <       5.45926262 Ry

     iteration #  6     ecut=    50.00 Ry     beta= 0.60
     Davidson diagonalization with overlap
     ethr =  1.00E-02,  avg # of iterations =  1.3

     total cpu time spent up to now is      243.8 secs

     total energy              =    -470.39827511 Ry
     Harris-Foulkes estimate   =    -470.50356918 Ry
     estimated scf accuracy    <       2.40306321 Ry

     iteration #  7     ecut=    50.00 Ry     beta= 0.60
     Davidson diagonalization with overlap
     ethr =  4.71E-03,  avg # of iterations =  1.9

     total cpu time spent up to now is      271.3 secs

     total energy              =    -469.77096729 Ry
     Harris-Foulkes estimate   =    -470.45271559 Ry
     estimated scf accuracy    <       1.88516695 Ry

     iteration #  8     ecut=    50.00 Ry     beta= 0.60
     Davidson diagonalization with overlap
     ethr =  3.70E-03,  avg # of iterations =  4.4

     total cpu time spent up to now is      316.4 secs

     total energy              =    -469.99682073 Ry
     Harris-Foulkes estimate   =    -471.21677399 Ry
     estimated scf accuracy    <      20.85535647 Ry

     iteration #  9     ecut=    50.00 Ry     beta= 0.60
     Davidson diagonalization with overlap
     ethr =  3.70E-03,  avg # of iterations =  2.1

     total cpu time spent up to now is      344.6 secs

     total energy              =    -470.24042248 Ry
     Harris-Foulkes estimate   =    -470.40879472 Ry
     estimated scf accuracy    <       1.97479527 Ry

     iteration # 10     ecut=    50.00 Ry     beta= 0.60
     Davidson diagonalization with overlap
     ethr =  3.70E-03,  avg # of iterations =  2.1

     total cpu time spent up to now is      373.0 secs

     total energy              =    -470.36922016 Ry
     Harris-Foulkes estimate   =    -470.35441675 Ry
     estimated scf accuracy    <       0.02436205 Ry

     iteration # 11     ecut=    50.00 Ry     beta= 0.60
     Davidson diagonalization with overlap
     ethr =  4.78E-05,  avg # of iterations =  7.5

     total cpu time spent up to now is      444.4 secs

     total energy              =    -470.38031254 Ry
     Harris-Foulkes estimate   =    -470.45974453 Ry
     estimated scf accuracy    <       0.91641538 Ry

     iteration # 12     ecut=    50.00 Ry     beta= 0.60
     Davidson diagonalization with overlap
     ethr =  4.78E-05,  avg # of iterations =  5.2

     total cpu time spent up to now is      490.1 secs

     total energy              =    -470.39229881 Ry
     Harris-Foulkes estimate   =    -470.39217369 Ry
     estimated scf accuracy    <       0.35026914 Ry

     iteration # 13     ecut=    50.00 Ry     beta= 0.60
     Davidson diagonalization with overlap
     ethr =  4.78E-05,  avg # of iterations =  1.0

     total cpu time spent up to now is      516.1 secs

     total energy              =    -470.36065370 Ry
     Harris-Foulkes estimate   =    -470.39252300 Ry
     estimated scf accuracy    <       0.38032060 Ry

     iteration # 14     ecut=    50.00 Ry     beta= 0.60
     Davidson diagonalization with overlap
     ethr =  4.78E-05,  avg # of iterations =  5.8

     total cpu time spent up to now is      557.7 secs

     total energy              =    -470.36752123 Ry
     Harris-Foulkes estimate   =    -470.36746917 Ry
     estimated scf accuracy    <       0.09115645 Ry

     iteration # 15     ecut=    50.00 Ry     beta= 0.60
     Davidson diagonalization with overlap
     ethr =  4.78E-05,  avg # of iterations =  1.1

     total cpu time spent up to now is      583.9 secs

     total energy              =    -470.36206562 Ry
     Harris-Foulkes estimate   =    -470.36764364 Ry
     estimated scf accuracy    <       0.10364760 Ry

     iteration # 16     ecut=    50.00 Ry     beta= 0.60
     Davidson diagonalization with overlap
     ethr =  4.78E-05,  avg # of iterations =  1.1

     total cpu time spent up to now is      610.1 secs

     total energy              =    -470.35270420 Ry
     Harris-Foulkes estimate   =    -470.36259518 Ry
     estimated scf accuracy    <       0.06017759 Ry

     iteration # 17     ecut=    50.00 Ry     beta= 0.60
     Davidson diagonalization with overlap
     ethr =  4.78E-05,  avg # of iterations =  6.3

     total cpu time spent up to now is      653.6 secs

     total energy              =    -470.36250227 Ry
     Harris-Foulkes estimate   =    -470.35940070 Ry
     estimated scf accuracy    <       0.01068761 Ry

     iteration # 18     ecut=    50.00 Ry     beta= 0.60
     Davidson diagonalization with overlap
     ethr =  2.10E-05,  avg # of iterations =  5.7

     total cpu time spent up to now is      697.0 secs

     total energy              =    -470.36892991 Ry
     Harris-Foulkes estimate   =    -470.36638036 Ry
     estimated scf accuracy    <       0.14585574 Ry

     iteration # 19     ecut=    50.00 Ry     beta= 0.60
     Davidson diagonalization with overlap
     ethr =  2.10E-05,  avg # of iterations =  1.0

     total cpu time spent up to now is      723.1 secs

     total energy              =    -470.37513197 Ry
     Harris-Foulkes estimate   =    -470.36917232 Ry
     estimated scf accuracy    <       0.20213020 Ry

     iteration # 20     ecut=    50.00 Ry     beta= 0.60
     Davidson diagonalization with overlap
     ethr =  2.10E-05,  avg # of iterations =  3.1

     total cpu time spent up to now is      753.9 secs

     total energy              =    -470.35633541 Ry
     Harris-Foulkes estimate   =    -470.37621594 Ry
     estimated scf accuracy    <       0.36841206 Ry

     iteration # 21     ecut=    50.00 Ry     beta= 0.60
     Davidson diagonalization with overlap
     ethr =  2.10E-05,  avg # of iterations =  4.3

     total cpu time spent up to now is      791.2 secs

     total energy              =    -470.35681762 Ry
     Harris-Foulkes estimate   =    -470.36200695 Ry
     estimated scf accuracy    <       0.06130329 Ry

     iteration # 22     ecut=    50.00 Ry     beta= 0.60
     Davidson diagonalization with overlap
     ethr =  2.10E-05,  avg # of iterations =  3.9

     total cpu time spent up to now is      822.8 secs

     total energy              =    -470.35827236 Ry
     Harris-Foulkes estimate   =    -470.35875440 Ry
     estimated scf accuracy    <       0.00298716 Ry

     iteration # 23     ecut=    50.00 Ry     beta= 0.60
     Davidson diagonalization with overlap
     ethr =  5.86E-06,  avg # of iterations =  6.4

     total cpu time spent up to now is      868.4 secs

     total energy              =    -470.35903197 Ry
     Harris-Foulkes estimate   =    -470.35900875 Ry
     estimated scf accuracy    <       0.00160859 Ry

     iteration # 24     ecut=    50.00 Ry     beta= 0.60
     Davidson diagonalization with overlap
     ethr =  3.15E-06,  avg # of iterations =  1.2

     total cpu time spent up to now is      894.7 secs

     total energy              =    -470.35891591 Ry
     Harris-Foulkes estimate   =    -470.35903691 Ry
     estimated scf accuracy    <       0.00192821 Ry

     iteration # 25     ecut=    50.00 Ry     beta= 0.60
     Davidson diagonalization with overlap
     ethr =  3.15E-06,  avg # of iterations =  1.0

     total cpu time spent up to now is      920.6 secs

     total energy              =    -470.35895219 Ry
     Harris-Foulkes estimate   =    -470.35894051 Ry
     estimated scf accuracy    <       0.00061315 Ry

     iteration # 26     ecut=    50.00 Ry     beta= 0.60
     Davidson diagonalization with overlap
     ethr =  1.20E-06,  avg # of iterations =  1.0

     total cpu time spent up to now is      946.5 secs

     total energy              =    -470.35889312 Ry
     Harris-Foulkes estimate   =    -470.35895589 Ry
     estimated scf accuracy    <       0.00074299 Ry

     iteration # 27     ecut=    50.00 Ry     beta= 0.60
     Davidson diagonalization with overlap
     ethr =  1.20E-06,  avg # of iterations =  1.0

     total cpu time spent up to now is      972.4 secs

     total energy              =    -470.35889263 Ry
     Harris-Foulkes estimate   =    -470.35890729 Ry
     estimated scf accuracy    <       0.00019506 Ry

     iteration # 28     ecut=    50.00 Ry     beta= 0.60
     Davidson diagonalization with overlap
     ethr =  3.82E-07,  avg # of iterations =  4.1

     total cpu time spent up to now is     1006.4 secs

     total energy              =    -470.35891360 Ry
     Harris-Foulkes estimate   =    -470.35891362 Ry
     estimated scf accuracy    <       0.00000124 Ry

     iteration # 29     ecut=    50.00 Ry     beta= 0.60
     Davidson diagonalization with overlap
     ethr =  2.42E-09,  avg # of iterations =  5.1

     total cpu time spent up to now is     1050.7 secs

     total energy              =    -470.35891590 Ry
     Harris-Foulkes estimate   =    -470.35891502 Ry
     estimated scf accuracy    <       0.00000756 Ry

     iteration # 30     ecut=    50.00 Ry     beta= 0.60
     Davidson diagonalization with overlap
     ethr =  2.42E-09,  avg # of iterations =  4.0

     total cpu time spent up to now is     1084.1 secs

     total energy              =    -470.35891497 Ry
     Harris-Foulkes estimate   =    -470.35891623 Ry
     estimated scf accuracy    <       0.00002634 Ry

     iteration # 31     ecut=    50.00 Ry     beta= 0.60
     Davidson diagonalization with overlap
     ethr =  2.42E-09,  avg # of iterations =  3.4

     total cpu time spent up to now is     1115.0 secs

     total energy              =    -470.35891442 Ry
     Harris-Foulkes estimate   =    -470.35891514 Ry
     estimated scf accuracy    <       0.00001257 Ry

     iteration # 32     ecut=    50.00 Ry     beta= 0.60
     Davidson diagonalization with overlap
     ethr =  2.42E-09,  avg # of iterations =  3.6

     total cpu time spent up to now is     1147.1 secs

     total energy              =    -470.35891424 Ry
     Harris-Foulkes estimate   =    -470.35891459 Ry
     estimated scf accuracy    <       0.00000390 Ry

     iteration # 33     ecut=    50.00 Ry     beta= 0.60
     Davidson diagonalization with overlap
     ethr =  2.42E-09,  avg # of iterations =  2.8

     total cpu time spent up to now is     1176.9 secs

     total energy              =    -470.35891432 Ry
     Harris-Foulkes estimate   =    -470.35891436 Ry
     estimated scf accuracy    <       0.00000047 Ry

     iteration # 34     ecut=    50.00 Ry     beta= 0.60
     Davidson diagonalization with overlap
     ethr =  9.26E-10,  avg # of iterations =  3.6

     total cpu time spent up to now is     1209.4 secs

     total energy              =    -470.35891437 Ry
     Harris-Foulkes estimate   =    -470.35891437 Ry
     estimated scf accuracy    <       0.00000001 Ry

     iteration # 35     ecut=    50.00 Ry     beta= 0.60
     Davidson diagonalization with overlap
     ethr =  2.32E-11,  avg # of iterations =  4.4

     total cpu time spent up to now is     1247.8 secs

     total energy              =    -470.35891437 Ry
     Harris-Foulkes estimate   =    -470.35891437 Ry
     estimated scf accuracy    <          1.4E-09 Ry

     iteration # 36     ecut=    50.00 Ry     beta= 0.60
     Davidson diagonalization with overlap
     ethr =  2.67E-12,  avg # of iterations =  2.5

     total cpu time spent up to now is     1278.3 secs

     total energy              =    -470.35891437 Ry
     Harris-Foulkes estimate   =    -470.35891437 Ry
     estimated scf accuracy    <          1.2E-09 Ry

     iteration # 37     ecut=    50.00 Ry     beta= 0.60
     Davidson diagonalization with overlap
     ethr =  2.36E-12,  avg # of iterations =  1.1

     total cpu time spent up to now is     1304.4 secs

     total energy              =    -470.35891437 Ry
     Harris-Foulkes estimate   =    -470.35891437 Ry
     estimated scf accuracy    <          4.7E-10 Ry

     iteration # 38     ecut=    50.00 Ry     beta= 0.60
     Davidson diagonalization with overlap
     ethr =  9.13E-13,  avg # of iterations =  3.2

     total cpu time spent up to now is     1335.6 secs

     End of self-consistent calculation

     Number of k-points >= 100: set verbosity='high' to print the bands.

     the Fermi energy is    13.2809 ev

!    total energy              =    -470.35891437 Ry
     Harris-Foulkes estimate   =    -470.35891437 Ry
     estimated scf accuracy    <          2.1E-11 Ry

     The total energy is the sum of the following terms:

     one-electron contribution =    -124.25353215 Ry
     hartree contribution      =      79.32851578 Ry
     xc contribution           =     -69.12158411 Ry
     ewald contribution        =    -356.31256671 Ry
     smearing contrib. (-TS)   =       0.00025282 Ry

     convergence has been achieved in  38 iterations

     Forces acting on atoms (cartesian axes, Ry/au):

     atom    1 type  2   force =     0.00000000    0.00000000    0.00000000
     atom    2 type  1   force =    -0.00403339   -0.00403339    0.01066687
     atom    3 type  1   force =     0.00000000    0.00000000    0.00000000
     atom    4 type  1   force =     0.00403339    0.00403339   -0.01066687

     Total force =     0.017107     Total SCF correction =     0.000001


     Computing stress (Cartesian axis) and pressure

          total   stress  (Ry/bohr**3)                   (kbar)     P= -211.93
  -0.00143802  -0.00000516   0.00002166       -211.54     -0.76      3.19
  -0.00000516  -0.00143802   0.00002166         -0.76   -211.54      3.19
   0.00002166   0.00002166  -0.00144602          3.19      3.19   -212.72


     BFGS Geometry Optimization

     number of scf cycles    =   1
     number of bfgs steps    =   0

     enthalpy new            =    -470.3589143707 Ry

     new trust radius        =       0.1751625598 bohr
     new conv_thr            =            1.0E-10 Ry

     new unit-cell volume =    525.53793 a.u.^3 (    77.87668 Ang^3 )
     density =      6.96369 g/cm^3

CELL_PARAMETERS (alat=  1.88972599)
   1.693650960   1.693650960  -1.692574023
  -3.390112500   3.390112500   0.000000000
   1.697458076   1.697458076   5.085336299

ATOMIC_POSITIONS (angstrom)
Ti      -1.694557982   5.085667018   1.696381138
Nb      -0.000604267   3.389508233   3.396297012
Nb       0.000996536   6.781221536   3.392762276
Nb       0.001600803   3.391713303  -0.003534736


     NEW-OLD atomic charge density approx. for the potential
     extrapolated charge   45.18449, renormalised to   51.00000

     total cpu time spent up to now is     1350.8 secs

     Self-consistent Calculation

     iteration #  1     ecut=    50.00 Ry     beta= 0.60
     Davidson diagonalization with overlap
     c_bands:  1 eigenvalues not converged
     c_bands:  1 eigenvalues not converged
     c_bands:  1 eigenvalues not converged
     c_bands:  1 eigenvalues not converged
     c_bands:  1 eigenvalues not converged
     c_bands:  1 eigenvalues not converged
     c_bands:  1 eigenvalues not converged
     c_bands:  1 eigenvalues not converged
     c_bands:  1 eigenvalues not converged
     c_bands:  1 eigenvalues not converged
     c_bands:  1 eigenvalues not converged
     c_bands:  1 eigenvalues not converged
     c_bands:  2 eigenvalues not converged
     c_bands:  1 eigenvalues not converged
     c_bands:  1 eigenvalues not converged
     c_bands:  1 eigenvalues not converged
     c_bands:  1 eigenvalues not converged
     c_bands:  1 eigenvalues not converged
     c_bands:  1 eigenvalues not converged
     c_bands:  1 eigenvalues not converged
     c_bands:  1 eigenvalues not converged
     c_bands:  1 eigenvalues not converged
     c_bands:  2 eigenvalues not converged
     c_bands:  2 eigenvalues not converged
     c_bands:  1 eigenvalues not converged
     c_bands:  1 eigenvalues not converged
     c_bands:  1 eigenvalues not converged
     c_bands:  1 eigenvalues not converged
     c_bands:  1 eigenvalues not converged
     c_bands:  1 eigenvalues not converged
     c_bands:  1 eigenvalues not converged
     c_bands:  1 eigenvalues not converged
     c_bands:  1 eigenvalues not converged
     c_bands:  1 eigenvalues not converged
     c_bands:  1 eigenvalues not converged
     c_bands:  1 eigenvalues not converged
     c_bands:  1 eigenvalues not converged
     c_bands:  1 eigenvalues not converged
     c_bands:  1 eigenvalues not converged
     c_bands:  1 eigenvalues not converged
     c_bands:  1 eigenvalues not converged
     c_bands:  1 eigenvalues not converged
     c_bands:  1 eigenvalues not converged
     c_bands:  1 eigenvalues not converged
     c_bands:  1 eigenvalues not converged
     c_bands:  1 eigenvalues not converged
     ethr =  1.00E-06,  avg # of iterations = 14.4

     total cpu time spent up to now is     1457.7 secs

     total energy              =    -448.73535275 Ry
     Harris-Foulkes estimate   =    -479.85659940 Ry
     estimated scf accuracy    <      24.31115225 Ry

     iteration #  2     ecut=    50.00 Ry     beta= 0.60
     Davidson diagonalization with overlap
     ethr =  1.00E-02,  avg # of iterations =  6.3

     total cpu time spent up to now is     1515.8 secs

     total energy              =    -459.15195498 Ry
     Harris-Foulkes estimate   =    -501.13391194 Ry
     estimated scf accuracy    <     137.89977152 Ry

     iteration #  3     ecut=    50.00 Ry     beta= 0.60
     Davidson diagonalization with overlap
     ethr =  1.00E-02,  avg # of iterations =  5.0

     total cpu time spent up to now is     1566.1 secs

     total energy              =    -472.07717830 Ry
     Harris-Foulkes estimate   =    -473.84673025 Ry
     estimated scf accuracy    <       8.42077064 Ry

     iteration #  4     ecut=    50.00 Ry     beta= 0.60
     Davidson diagonalization with overlap
     ethr =  1.00E-02,  avg # of iterations =  1.0

     total cpu time spent up to now is     1592.3 secs

     total energy              =    -471.31298527 Ry
     Harris-Foulkes estimate   =    -472.25312508 Ry
     estimated scf accuracy    <       5.88554717 Ry

     iteration #  5     ecut=    50.00 Ry     beta= 0.60
     Davidson diagonalization with overlap
     ethr =  1.00E-02,  avg # of iterations =  1.0

     total cpu time spent up to now is     1618.6 secs

     total energy              =    -470.85448899 Ry
     Harris-Foulkes estimate   =    -471.41996943 Ry
     estimated scf accuracy    <       3.99497790 Ry

     iteration #  6     ecut=    50.00 Ry     beta= 0.60
     Davidson diagonalization with overlap
     ethr =  7.83E-03,  avg # of iterations =  1.0

     total cpu time spent up to now is     1644.8 secs

     total energy              =    -470.60301795 Ry
     Harris-Foulkes estimate   =    -470.90188050 Ry
     estimated scf accuracy    <       2.67566483 Ry

     iteration #  7     ecut=    50.00 Ry     beta= 0.60
     Davidson diagonalization with overlap
     ethr =  5.25E-03,  avg # of iterations =  1.6

     total cpu time spent up to now is     1672.0 secs

     total energy              =    -470.85295725 Ry
     Harris-Foulkes estimate   =    -470.65088753 Ry
     estimated scf accuracy    <       1.62653995 Ry

     iteration #  8     ecut=    50.00 Ry     beta= 0.60
     Davidson diagonalization with overlap
     ethr =  3.19E-03,  avg # of iterations =  1.0

     total cpu time spent up to now is     1698.3 secs

     total energy              =    -470.59657622 Ry
     Harris-Foulkes estimate   =    -470.87246909 Ry
     estimated scf accuracy    <       2.17119474 Ry

     iteration #  9     ecut=    50.00 Ry     beta= 0.60
     Davidson diagonalization with overlap
     ethr =  3.19E-03,  avg # of iterations =  1.0

     total cpu time spent up to now is     1724.4 secs

     total energy              =    -470.39493464 Ry
     Harris-Foulkes estimate   =    -470.61100200 Ry
     estimated scf accuracy    <       1.50073218 Ry

     iteration # 10     ecut=    50.00 Ry     beta= 0.60
     Davidson diagonalization with overlap
     ethr =  2.94E-03,  avg # of iterations =  2.5

     total cpu time spent up to now is     1753.6 secs

     total energy              =    -470.21973444 Ry
     Harris-Foulkes estimate   =    -470.44791852 Ry
     estimated scf accuracy    <       0.42236440 Ry

     iteration # 11     ecut=    50.00 Ry     beta= 0.60
     Davidson diagonalization with overlap
     ethr =  8.28E-04,  avg # of iterations =  4.5

     total cpu time spent up to now is     1801.3 secs

     total energy              =    -470.50506020 Ry
     Harris-Foulkes estimate   =    -470.96087285 Ry
     estimated scf accuracy    <      12.52360513 Ry

     iteration # 12     ecut=    50.00 Ry     beta= 0.60
     Davidson diagonalization with overlap
     ethr =  8.28E-04,  avg # of iterations =  2.2

     total cpu time spent up to now is     1829.7 secs

     total energy              =    -470.59824880 Ry
     Harris-Foulkes estimate   =    -470.60092311 Ry
     estimated scf accuracy    <       4.37801409 Ry

     iteration # 13     ecut=    50.00 Ry     beta= 0.60
     Davidson diagonalization with overlap
     ethr =  8.28E-04,  avg # of iterations =  1.0

     total cpu time spent up to now is     1855.8 secs

     total energy              =    -470.80150734 Ry
     Harris-Foulkes estimate   =    -470.60156994 Ry
     estimated scf accuracy    <       4.31313792 Ry

     iteration # 14     ecut=    50.00 Ry     beta= 0.60
     Davidson diagonalization with overlap
     ethr =  8.28E-04,  avg # of iterations =  1.1

     total cpu time spent up to now is     1882.2 secs

     total energy              =    -470.55166618 Ry
     Harris-Foulkes estimate   =    -470.84551808 Ry
     estimated scf accuracy    <       9.25929434 Ry

     iteration # 15     ecut=    50.00 Ry     beta= 0.60
     Davidson diagonalization with overlap
     ethr =  8.28E-04,  avg # of iterations =  1.0

     total cpu time spent up to now is     1908.4 secs

     total energy              =    -470.51743423 Ry
     Harris-Foulkes estimate   =    -470.60070263 Ry
     estimated scf accuracy    <       4.21424224 Ry

     iteration # 16     ecut=    50.00 Ry     beta= 0.60
     Davidson diagonalization with overlap
     ethr =  8.28E-04,  avg # of iterations =  1.3

     total cpu time spent up to now is     1935.2 secs

     total energy              =    -470.62067712 Ry
     Harris-Foulkes estimate   =    -470.53076856 Ry
     estimated scf accuracy    <       2.51591248 Ry

     iteration # 17     ecut=    50.00 Ry     beta= 0.60
     Davidson diagonalization with overlap
     ethr =  8.28E-04,  avg # of iterations =  1.0

     total cpu time spent up to now is     1961.4 secs

     total energy              =    -470.22114926 Ry
     Harris-Foulkes estimate   =    -470.63798825 Ry
     estimated scf accuracy    <       4.55968855 Ry

     iteration # 18     ecut=    50.00 Ry     beta= 0.60
     Davidson diagonalization with overlap
     ethr =  8.28E-04,  avg # of iterations =  4.5

     total cpu time spent up to now is     1996.0 secs

     total energy              =    -470.43593217 Ry
     Harris-Foulkes estimate   =    -470.43606219 Ry
     estimated scf accuracy    <       0.03827645 Ry

     iteration # 19     ecut=    50.00 Ry     beta= 0.60
     Davidson diagonalization with overlap
     ethr =  7.51E-05,  avg # of iterations =  7.2

     total cpu time spent up to now is     2043.6 secs

     total energy              =    -470.44902582 Ry
     Harris-Foulkes estimate   =    -470.44486302 Ry
     estimated scf accuracy    <       0.07268752 Ry

     iteration # 20     ecut=    50.00 Ry     beta= 0.60
     Davidson diagonalization with overlap
     ethr =  7.51E-05,  avg # of iterations =  1.3

     total cpu time spent up to now is     2070.4 secs

     total energy              =    -470.44358494 Ry
     Harris-Foulkes estimate   =    -470.45038530 Ry
     estimated scf accuracy    <       0.12595767 Ry

     iteration # 21     ecut=    50.00 Ry     beta= 0.60
     Davidson diagonalization with overlap
     ethr =  7.51E-05,  avg # of iterations =  1.0

     total cpu time spent up to now is     2096.6 secs

     total energy              =    -470.44141148 Ry
     Harris-Foulkes estimate   =    -470.44461605 Ry
     estimated scf accuracy    <       0.08152922 Ry

     iteration # 22     ecut=    50.00 Ry     beta= 0.60
     Davidson diagonalization with overlap
     ethr =  7.51E-05,  avg # of iterations =  1.0

     total cpu time spent up to now is     2122.8 secs

     total energy              =    -470.44784010 Ry
     Harris-Foulkes estimate   =    -470.44201864 Ry
     estimated scf accuracy    <       0.05730154 Ry

     iteration # 23     ecut=    50.00 Ry     beta= 0.60
     Davidson diagonalization with overlap
     ethr =  7.51E-05,  avg # of iterations =  1.1

     total cpu time spent up to now is     2149.2 secs

     total energy              =    -470.41866611 Ry
     Harris-Foulkes estimate   =    -470.44929475 Ry
     estimated scf accuracy    <       0.08289445 Ry

     iteration # 24     ecut=    50.00 Ry     beta= 0.60
     Davidson diagonalization with overlap
     ethr =  7.51E-05,  avg # of iterations =  3.0

     total cpu time spent up to now is     2185.1 secs

     total energy              =    -470.42810963 Ry
     Harris-Foulkes estimate   =    -470.43028677 Ry
     estimated scf accuracy    <       0.01993347 Ry

     iteration # 25     ecut=    50.00 Ry     beta= 0.60
     Davidson diagonalization with overlap
     ethr =  3.91E-05,  avg # of iterations =  3.2

     total cpu time spent up to now is     2215.3 secs

     total energy              =    -470.42895774 Ry
     Harris-Foulkes estimate   =    -470.42934762 Ry
     estimated scf accuracy    <       0.00119007 Ry

     iteration # 26     ecut=    50.00 Ry     beta= 0.60
     Davidson diagonalization with overlap
     ethr =  2.33E-06,  avg # of iterations =  6.5

     total cpu time spent up to now is     2265.6 secs

     total energy              =    -470.42928145 Ry
     Harris-Foulkes estimate   =    -470.42930391 Ry
     estimated scf accuracy    <       0.00010179 Ry

     iteration # 27     ecut=    50.00 Ry     beta= 0.60
     Davidson diagonalization with overlap
     ethr =  2.00E-07,  avg # of iterations =  3.4

     total cpu time spent up to now is     2298.8 secs

     total energy              =    -470.42926882 Ry
     Harris-Foulkes estimate   =    -470.42930077 Ry
     estimated scf accuracy    <       0.00016802 Ry

     iteration # 28     ecut=    50.00 Ry     beta= 0.60
     Davidson diagonalization with overlap
     ethr =  2.00E-07,  avg # of iterations =  3.7

     total cpu time spent up to now is     2331.2 secs

     total energy              =    -470.42928541 Ry
     Harris-Foulkes estimate   =    -470.42929267 Ry
     estimated scf accuracy    <       0.00004607 Ry

     iteration # 29     ecut=    50.00 Ry     beta= 0.60
     Davidson diagonalization with overlap
     ethr =  9.03E-08,  avg # of iterations =  1.9

     total cpu time spent up to now is     2359.0 secs

     total energy              =    -470.42928942 Ry
     Harris-Foulkes estimate   =    -470.42928944 Ry
     estimated scf accuracy    <       0.00000026 Ry

     iteration # 30     ecut=    50.00 Ry     beta= 0.60
     Davidson diagonalization with overlap
     ethr =  5.13E-10,  avg # of iterations =  5.2

     total cpu time spent up to now is     2406.5 secs

     total energy              =    -470.42929014 Ry
     Harris-Foulkes estimate   =    -470.42929025 Ry
     estimated scf accuracy    <       0.00000097 Ry

     iteration # 31     ecut=    50.00 Ry     beta= 0.60
     Davidson diagonalization with overlap
     ethr =  5.13E-10,  avg # of iterations =  2.9

     total cpu time spent up to now is     2436.5 secs

     total energy              =    -470.42929016 Ry
     Harris-Foulkes estimate   =    -470.42929017 Ry
     estimated scf accuracy    <       0.00000014 Ry

     iteration # 32     ecut=    50.00 Ry     beta= 0.60
     Davidson diagonalization with overlap
     ethr =  2.77E-10,  avg # of iterations =  2.9

     total cpu time spent up to now is     2466.8 secs

     total energy              =    -470.42929017 Ry
     Harris-Foulkes estimate   =    -470.42929017 Ry
     estimated scf accuracy    <          3.3E-09 Ry

     iteration # 33     ecut=    50.00 Ry     beta= 0.60
     Davidson diagonalization with overlap
     ethr =  6.55E-12,  avg # of iterations =  4.9

     total cpu time spent up to now is     2508.8 secs

     total energy              =    -470.42929017 Ry
     Harris-Foulkes estimate   =    -470.42929017 Ry
     estimated scf accuracy    <          3.6E-09 Ry

     iteration # 34     ecut=    50.00 Ry     beta= 0.60
     Davidson diagonalization with overlap
     ethr =  6.55E-12,  avg # of iterations =  1.0

     total cpu time spent up to now is     2535.0 secs

     total energy              =    -470.42929017 Ry
     Harris-Foulkes estimate   =    -470.42929017 Ry
     estimated scf accuracy    <          4.7E-10 Ry

     iteration # 35     ecut=    50.00 Ry     beta= 0.60
     Davidson diagonalization with overlap
     ethr =  9.19E-13,  avg # of iterations =  3.6

     total cpu time spent up to now is     2567.9 secs

     End of self-consistent calculation

     Number of k-points >= 100: set verbosity='high' to print the bands.

     the Fermi energy is    15.1690 ev

!    total energy              =    -470.42929017 Ry
     Harris-Foulkes estimate   =    -470.42929017 Ry
     estimated scf accuracy    <          2.1E-11 Ry

     The total energy is the sum of the following terms:

     one-electron contribution =    -104.94554923 Ry
     hartree contribution      =      73.64283365 Ry
     xc contribution           =     -69.51062181 Ry
     ewald contribution        =    -369.61586262 Ry
     smearing contrib. (-TS)   =      -0.00009015 Ry

     convergence has been achieved in  35 iterations

     Forces acting on atoms (cartesian axes, Ry/au):

     atom    1 type  2   force =     0.00000000    0.00000000    0.00000000
     atom    2 type  1   force =    -0.00611596   -0.00611596    0.00639935
     atom    3 type  1   force =     0.00000000    0.00000000    0.00000000
     atom    4 type  1   force =     0.00611596    0.00611596   -0.00639935

     Total force =     0.015216     Total SCF correction =     0.000011


     Computing stress (Cartesian axis) and pressure

          total   stress  (Ry/bohr**3)                   (kbar)     P= -115.55
  -0.00078215   0.00000016   0.00001975       -115.06      0.02      2.90
   0.00000016  -0.00078215   0.00001975          0.02   -115.06      2.90
   0.00001975   0.00001975  -0.00079218          2.90      2.90   -116.53


     number of scf cycles    =   2
     number of bfgs steps    =   1

     enthalpy old            =    -470.3589143707 Ry
     enthalpy new            =    -470.4292901706 Ry

     CASE: enthalpy_new < enthalpy_old

     new trust radius        =       0.1784513763 bohr
     new conv_thr            =            1.0E-10 Ry

     new unit-cell volume =    467.06252 a.u.^3 (    69.21152 Ang^3 )
     density =      7.83553 g/cm^3

CELL_PARAMETERS (alat=  1.88972599)
   1.626919142   1.626919142  -1.623313618
  -3.259990803   3.259990803   0.000000000
   1.637435989   1.637435989   4.890977379

ATOMIC_POSITIONS (angstrom)
Ti      -1.627813237   4.892168368   1.633831880
Nb      -0.003023801   3.256967001   3.273757710
Nb       0.004364328   6.524345933   3.267663761
Nb       0.007388130   3.267378932  -0.006093949


     NEW-OLD atomic charge density approx. for the potential
     extrapolated charge   44.74112, renormalised to   51.00000

     total cpu time spent up to now is     2583.8 secs

     Self-consistent Calculation

     iteration #  1     ecut=    50.00 Ry     beta= 0.60
     Davidson diagonalization with overlap
     c_bands:  1 eigenvalues not converged
     c_bands:  1 eigenvalues not converged
     c_bands:  1 eigenvalues not converged
     c_bands:  1 eigenvalues not converged
     c_bands:  1 eigenvalues not converged
     c_bands:  1 eigenvalues not converged
     c_bands:  1 eigenvalues not converged
     c_bands:  1 eigenvalues not converged
     c_bands:  1 eigenvalues not converged
     c_bands:  1 eigenvalues not converged
     c_bands:  1 eigenvalues not converged
     c_bands:  1 eigenvalues not converged
     c_bands:  1 eigenvalues not converged
     c_bands:  1 eigenvalues not converged
     c_bands:  1 eigenvalues not converged
     c_bands:  1 eigenvalues not converged
     c_bands:  1 eigenvalues not converged
     c_bands:  1 eigenvalues not converged
     c_bands:  1 eigenvalues not converged
     c_bands:  1 eigenvalues not converged
     c_bands:  1 eigenvalues not converged
     c_bands:  1 eigenvalues not converged
     c_bands:  1 eigenvalues not converged
     c_bands:  1 eigenvalues not converged
     c_bands:  2 eigenvalues not converged
     c_bands:  1 eigenvalues not converged
     c_bands:  1 eigenvalues not converged
     c_bands:  1 eigenvalues not converged
     c_bands:  1 eigenvalues not converged
     c_bands:  1 eigenvalues not converged
     c_bands:  1 eigenvalues not converged
     c_bands:  1 eigenvalues not converged
     c_bands:  1 eigenvalues not converged
     c_bands:  1 eigenvalues not converged
     c_bands:  1 eigenvalues not converged
     c_bands:  1 eigenvalues not converged
     c_bands:  1 eigenvalues not converged
     c_bands:  1 eigenvalues not converged
     c_bands:  1 eigenvalues not converged
     c_bands:  1 eigenvalues not converged
     c_bands:  1 eigenvalues not converged
     c_bands:  1 eigenvalues not converged
     c_bands:  1 eigenvalues not converged
     c_bands:  2 eigenvalues not converged
     c_bands:  1 eigenvalues not converged
     c_bands:  1 eigenvalues not converged
     c_bands:  1 eigenvalues not converged
     c_bands:  1 eigenvalues not converged
     c_bands:  1 eigenvalues not converged
     c_bands:  1 eigenvalues not converged
     c_bands:  1 eigenvalues not converged
     c_bands:  2 eigenvalues not converged
     c_bands:  1 eigenvalues not converged
     c_bands:  1 eigenvalues not converged
     c_bands:  2 eigenvalues not converged
     c_bands:  1 eigenvalues not converged
     c_bands:  1 eigenvalues not converged
     c_bands:  1 eigenvalues not converged
     c_bands:  1 eigenvalues not converged
     c_bands:  1 eigenvalues not converged
     c_bands:  1 eigenvalues not converged
     c_bands:  1 eigenvalues not converged
     ethr =  1.00E-06,  avg # of iterations = 14.7

     total cpu time spent up to now is     2689.9 secs

     total energy              =    -451.60978091 Ry
     Harris-Foulkes estimate   =    -478.83111205 Ry
     estimated scf accuracy    <      20.80806037 Ry

     iteration #  2     ecut=    50.00 Ry     beta= 0.60
     Davidson diagonalization with overlap
     ethr =  1.00E-02,  avg # of iterations =  6.2

     total cpu time spent up to now is     2748.4 secs

     total energy              =    -462.17424916 Ry
     Harris-Foulkes estimate   =    -496.30847992 Ry
     estimated scf accuracy    <     109.77418720 Ry

     iteration #  3     ecut=    50.00 Ry     beta= 0.60
     Davidson diagonalization with overlap
     ethr =  1.00E-02,  avg # of iterations =  5.0

     total cpu time spent up to now is     2797.6 secs

     total energy              =    -471.82704550 Ry
     Harris-Foulkes estimate   =    -473.48297339 Ry
     estimated scf accuracy    <       7.76924815 Ry

     iteration #  4     ecut=    50.00 Ry     beta= 0.60
     Davidson diagonalization with overlap
     ethr =  1.00E-02,  avg # of iterations =  1.0

     total cpu time spent up to now is     2823.9 secs

     total energy              =    -470.83159674 Ry
     Harris-Foulkes estimate   =    -471.98526574 Ry
     estimated scf accuracy    <       5.35424140 Ry

     iteration #  5     ecut=    50.00 Ry     beta= 0.60
     Davidson diagonalization with overlap
     ethr =  1.00E-02,  avg # of iterations =  1.4

     total cpu time spent up to now is     2850.8 secs

     total energy              =    -470.68118653 Ry
     Harris-Foulkes estimate   =    -470.96946491 Ry
     estimated scf accuracy    <       2.75370889 Ry

     iteration #  6     ecut=    50.00 Ry     beta= 0.60
     Davidson diagonalization with overlap
     ethr =  5.40E-03,  avg # of iterations =  1.1

     total cpu time spent up to now is     2877.2 secs

     total energy              =    -470.56223362 Ry
     Harris-Foulkes estimate   =    -470.72139840 Ry
     estimated scf accuracy    <       1.96704983 Ry

     iteration #  7     ecut=    50.00 Ry     beta= 0.60
     Davidson diagonalization with overlap
     ethr =  3.86E-03,  avg # of iterations =  1.8

     total cpu time spent up to now is     2904.7 secs

     total energy              =    -470.81795869 Ry
     Harris-Foulkes estimate   =    -470.59998108 Ry
     estimated scf accuracy    <       1.21869340 Ry

     iteration #  8     ecut=    50.00 Ry     beta= 0.60
     Davidson diagonalization with overlap
     ethr =  2.39E-03,  avg # of iterations =  1.1

     total cpu time spent up to now is     2931.1 secs

     total energy              =    -470.57118955 Ry
     Harris-Foulkes estimate   =    -470.84265024 Ry
     estimated scf accuracy    <       1.91247752 Ry

     iteration #  9     ecut=    50.00 Ry     beta= 0.60
     Davidson diagonalization with overlap
     ethr =  2.39E-03,  avg # of iterations =  1.0

     total cpu time spent up to now is     2957.3 secs

     total energy              =    -470.42667035 Ry
     Harris-Foulkes estimate   =    -470.58737043 Ry
     estimated scf accuracy    <       1.23621674 Ry

     iteration # 10     ecut=    50.00 Ry     beta= 0.60
     Davidson diagonalization with overlap
     ethr =  2.39E-03,  avg # of iterations =  2.5

     total cpu time spent up to now is     2986.6 secs

     total energy              =    -470.30169975 Ry
     Harris-Foulkes estimate   =    -470.46900148 Ry
     estimated scf accuracy    <       0.36833054 Ry

     iteration # 11     ecut=    50.00 Ry     beta= 0.60
     Davidson diagonalization with overlap
     ethr =  7.22E-04,  avg # of iterations =  4.3

     total cpu time spent up to now is     3032.7 secs

     total energy              =    -470.54904814 Ry
     Harris-Foulkes estimate   =    -470.63891114 Ry
     estimated scf accuracy    <       3.68352157 Ry

     iteration # 12     ecut=    50.00 Ry     beta= 0.60
     Davidson diagonalization with overlap
     ethr =  7.22E-04,  avg # of iterations =  1.0

     total cpu time spent up to now is     3059.0 secs

     total energy              =    -470.57604594 Ry
     Harris-Foulkes estimate   =    -470.55787180 Ry
     estimated scf accuracy    <       2.33635763 Ry

     iteration # 13     ecut=    50.00 Ry     beta= 0.60
     Davidson diagonalization with overlap
     ethr =  7.22E-04,  avg # of iterations =  1.0

     total cpu time spent up to now is     3085.2 secs

     total energy              =    -470.63842687 Ry
     Harris-Foulkes estimate   =    -470.57702153 Ry
     estimated scf accuracy    <       2.62747464 Ry

     iteration # 14     ecut=    50.00 Ry     beta= 0.60
     Davidson diagonalization with overlap
     ethr =  7.22E-04,  avg # of iterations =  1.0

     total cpu time spent up to now is     3111.5 secs

     total energy              =    -470.68122597 Ry
     Harris-Foulkes estimate   =    -470.64396424 Ry
     estimated scf accuracy    <       3.64393830 Ry

     iteration # 15     ecut=    50.00 Ry     beta= 0.60
     Davidson diagonalization with overlap
     ethr =  7.22E-04,  avg # of iterations =  1.0

     total cpu time spent up to now is     3137.8 secs

     total energy              =    -470.89446249 Ry
     Harris-Foulkes estimate   =    -470.68421665 Ry
     estimated scf accuracy    <       4.38587956 Ry

     iteration # 16     ecut=    50.00 Ry     beta= 0.60
     Davidson diagonalization with overlap
     ethr =  7.22E-04,  avg # of iterations =  1.8

     total cpu time spent up to now is     3165.5 secs

     total energy              =    -470.41358387 Ry
     Harris-Foulkes estimate   =    -470.93698099 Ry
     estimated scf accuracy    <       8.93771702 Ry

     iteration # 17     ecut=    50.00 Ry     beta= 0.60
     Davidson diagonalization with overlap
     ethr =  7.22E-04,  avg # of iterations =  2.6

     total cpu time spent up to now is     3195.5 secs

     total energy              =    -470.57458430 Ry
     Harris-Foulkes estimate   =    -470.54867043 Ry
     estimated scf accuracy    <       2.03752676 Ry

     iteration # 18     ecut=    50.00 Ry     beta= 0.60
     Davidson diagonalization with overlap
     ethr =  7.22E-04,  avg # of iterations =  1.0

     total cpu time spent up to now is     3221.8 secs

     total energy              =    -470.27616347 Ry
     Harris-Foulkes estimate   =    -470.57698991 Ry
     estimated scf accuracy    <       2.46693124 Ry

     iteration # 19     ecut=    50.00 Ry     beta= 0.60
     Davidson diagonalization with overlap
     ethr =  7.22E-04,  avg # of iterations =  4.7

     total cpu time spent up to now is     3257.4 secs

     total energy              =    -470.44432317 Ry
     Harris-Foulkes estimate   =    -470.44764837 Ry
     estimated scf accuracy    <       0.02463549 Ry

     iteration # 20     ecut=    50.00 Ry     beta= 0.60
     Davidson diagonalization with overlap
     ethr =  4.83E-05,  avg # of iterations =  6.4

     total cpu time spent up to now is     3299.5 secs

     total energy              =    -470.44694574 Ry
     Harris-Foulkes estimate   =    -470.44722332 Ry
     estimated scf accuracy    <       0.00609310 Ry

     iteration # 21     ecut=    50.00 Ry     beta= 0.60
     Davidson diagonalization with overlap
     c_bands:  1 eigenvalues not converged
     ethr =  1.19E-05,  avg # of iterations =  2.7

     total cpu time spent up to now is     3328.9 secs

     total energy              =    -470.44693627 Ry
     Harris-Foulkes estimate   =    -470.44713786 Ry
     estimated scf accuracy    <       0.00405887 Ry

     iteration # 22     ecut=    50.00 Ry     beta= 0.60
     Davidson diagonalization with overlap
     ethr =  7.96E-06,  avg # of iterations =  1.1

     total cpu time spent up to now is     3355.1 secs

     total energy              =    -470.44690375 Ry
     Harris-Foulkes estimate   =    -470.44697194 Ry
     estimated scf accuracy    <       0.00376819 Ry

     iteration # 23     ecut=    50.00 Ry     beta= 0.60
     Davidson diagonalization with overlap
     ethr =  7.39E-06,  avg # of iterations =  1.0

     total cpu time spent up to now is     3381.1 secs

     total energy              =    -470.44693400 Ry
     Harris-Foulkes estimate   =    -470.44691688 Ry
     estimated scf accuracy    <       0.00355198 Ry

     iteration # 24     ecut=    50.00 Ry     beta= 0.60
     Davidson diagonalization with overlap
     ethr =  6.96E-06,  avg # of iterations =  1.0

     total cpu time spent up to now is     3407.1 secs

     total energy              =    -470.44656361 Ry
     Harris-Foulkes estimate   =    -470.44693841 Ry
     estimated scf accuracy    <       0.00360299 Ry

     iteration # 25     ecut=    50.00 Ry     beta= 0.60
     Davidson diagonalization with overlap
     ethr =  6.96E-06,  avg # of iterations =  1.0

     total cpu time spent up to now is     3433.2 secs

     total energy              =    -470.44563045 Ry
     Harris-Foulkes estimate   =    -470.44661809 Ry
     estimated scf accuracy    <       0.00289165 Ry

     iteration # 26     ecut=    50.00 Ry     beta= 0.60
     Davidson diagonalization with overlap
     ethr =  5.67E-06,  avg # of iterations =  2.6

     total cpu time spent up to now is     3464.7 secs

     total energy              =    -470.44587264 Ry
     Harris-Foulkes estimate   =    -470.44597941 Ry
     estimated scf accuracy    <       0.00089690 Ry

     iteration # 27     ecut=    50.00 Ry     beta= 0.60
     Davidson diagonalization with overlap
     ethr =  1.76E-06,  avg # of iterations =  3.3

     total cpu time spent up to now is     3494.9 secs

     total energy              =    -470.44585684 Ry
     Harris-Foulkes estimate   =    -470.44591158 Ry
     estimated scf accuracy    <       0.00031890 Ry

     iteration # 28     ecut=    50.00 Ry     beta= 0.60
     Davidson diagonalization with overlap
     ethr =  6.25E-07,  avg # of iterations =  3.9

     total cpu time spent up to now is     3529.5 secs

     total energy              =    -470.44590307 Ry
     Harris-Foulkes estimate   =    -470.44590806 Ry
     estimated scf accuracy    <       0.00002881 Ry

     iteration # 29     ecut=    50.00 Ry     beta= 0.60
     Davidson diagonalization with overlap
     ethr =  5.65E-08,  avg # of iterations =  2.8

     total cpu time spent up to now is     3560.4 secs

     total energy              =    -470.44590605 Ry
     Harris-Foulkes estimate   =    -470.44590624 Ry
     estimated scf accuracy    <       0.00000109 Ry

     iteration # 30     ecut=    50.00 Ry     beta= 0.60
     Davidson diagonalization with overlap
     ethr =  2.13E-09,  avg # of iterations =  4.1

     total cpu time spent up to now is     3599.7 secs

     total energy              =    -470.44590649 Ry
     Harris-Foulkes estimate   =    -470.44590657 Ry
     estimated scf accuracy    <       0.00000068 Ry

     iteration # 31     ecut=    50.00 Ry     beta= 0.60
     Davidson diagonalization with overlap
     ethr =  1.33E-09,  avg # of iterations =  1.0

     total cpu time spent up to now is     3625.9 secs

     total energy              =    -470.44590651 Ry
     Harris-Foulkes estimate   =    -470.44590652 Ry
     estimated scf accuracy    <       0.00000004 Ry

     iteration # 32     ecut=    50.00 Ry     beta= 0.60
     Davidson diagonalization with overlap
     ethr =  8.72E-11,  avg # of iterations =  4.0

     total cpu time spent up to now is     3663.0 secs

     total energy              =    -470.44590653 Ry
     Harris-Foulkes estimate   =    -470.44590653 Ry
     estimated scf accuracy    <          3.2E-09 Ry

     iteration # 33     ecut=    50.00 Ry     beta= 0.60
     Davidson diagonalization with overlap
     ethr =  6.23E-12,  avg # of iterations =  2.2

     total cpu time spent up to now is     3692.4 secs

     total energy              =    -470.44590653 Ry
     Harris-Foulkes estimate   =    -470.44590653 Ry
     estimated scf accuracy    <          8.4E-10 Ry

     iteration # 34     ecut=    50.00 Ry     beta= 0.60
     Davidson diagonalization with overlap
     ethr =  1.65E-12,  avg # of iterations =  2.6

     total cpu time spent up to now is     3722.4 secs

     End of self-consistent calculation

     Number of k-points >= 100: set verbosity='high' to print the bands.

     the Fermi energy is    17.4201 ev

!    total energy              =    -470.44590653 Ry
     Harris-Foulkes estimate   =    -470.44590653 Ry
     estimated scf accuracy    <          4.4E-11 Ry

     The total energy is the sum of the following terms:

     one-electron contribution =     -83.74169704 Ry
     hartree contribution      =      67.71912826 Ry
     xc contribution           =     -69.98972749 Ry
     ewald contribution        =    -384.43335485 Ry
     smearing contrib. (-TS)   =      -0.00025541 Ry

     convergence has been achieved in  34 iterations

     Forces acting on atoms (cartesian axes, Ry/au):

     atom    1 type  2   force =     0.00000000    0.00000000    0.00000000
     atom    2 type  1   force =    -0.00792502   -0.00792502   -0.00025442
     atom    3 type  1   force =     0.00000000    0.00000000    0.00000000
     atom    4 type  1   force =     0.00792502    0.00792502    0.00025442

     Total force =     0.015854     Total SCF correction =     0.000014


     Computing stress (Cartesian axis) and pressure

          total   stress  (Ry/bohr**3)                   (kbar)     P=   49.49
   0.00033771   0.00001044   0.00000822         49.68      1.54      1.21
   0.00001044   0.00033771   0.00000822          1.54     49.68      1.21
   0.00000822   0.00000822   0.00033382          1.21      1.21     49.11


     number of scf cycles    =   3
     number of bfgs steps    =   2

     enthalpy old            =    -470.4292901706 Ry
     enthalpy new            =    -470.4459065260 Ry

     CASE: enthalpy_new < enthalpy_old

     new trust radius        =       0.0481492666 bohr
     new conv_thr            =            1.0E-10 Ry

     new unit-cell volume =    482.82759 a.u.^3 (    71.54767 Ang^3 )
     density =      7.57969 g/cm^3

CELL_PARAMETERS (alat=  1.88972599)
   1.645350242   1.645350242  -1.641498926
  -3.295669349   3.295669349   0.000000000
   1.655777570   1.655777570   4.945357859

ATOMIC_POSITIONS (angstrom)
Ti      -1.645105443   4.946233254   1.651929467
Nb      -0.004399140   3.291270209   3.309171210
Nb       0.005458463   6.596797160   3.303858933
Nb       0.009857603   3.305526952  -0.005312276


     NEW-OLD atomic charge density approx. for the potential
     extrapolated charge   52.63231, renormalised to   51.00000

     total cpu time spent up to now is     3738.3 secs

     Self-consistent Calculation

     iteration #  1     ecut=    50.00 Ry     beta= 0.60
     Davidson diagonalization with overlap
     c_bands:  1 eigenvalues not converged
     c_bands:  1 eigenvalues not converged
     c_bands:  1 eigenvalues not converged
     ethr =  1.00E-06,  avg # of iterations = 12.6

     total cpu time spent up to now is     3824.6 secs

     total energy              =    -470.25529201 Ry
     Harris-Foulkes estimate   =    -468.43888831 Ry
     estimated scf accuracy    <       0.15196115 Ry

     iteration #  2     ecut=    50.00 Ry     beta= 0.60
     Davidson diagonalization with overlap
     ethr =  2.98E-04,  avg # of iterations =  6.5

     total cpu time spent up to now is     3884.2 secs

     total energy              =    -470.02557895 Ry
     Harris-Foulkes estimate   =    -470.88380404 Ry
     estimated scf accuracy    <       8.44656577 Ry

     iteration #  3     ecut=    50.00 Ry     beta= 0.60
     Davidson diagonalization with overlap
     ethr =  2.98E-04,  avg # of iterations =  5.2

     total cpu time spent up to now is     3931.6 secs

     total energy              =    -470.43739843 Ry
     Harris-Foulkes estimate   =    -470.49434511 Ry
     estimated scf accuracy    <       0.18909925 Ry

     iteration #  4     ecut=    50.00 Ry     beta= 0.60
     Davidson diagonalization with overlap
     ethr =  2.98E-04,  avg # of iterations =  2.1

     total cpu time spent up to now is     3961.2 secs

     total energy              =    -470.45347427 Ry
     Harris-Foulkes estimate   =    -470.45830608 Ry
     estimated scf accuracy    <       0.05188402 Ry

     iteration #  5     ecut=    50.00 Ry     beta= 0.60
     Davidson diagonalization with overlap
     ethr =  1.02E-04,  avg # of iterations =  1.5

     total cpu time spent up to now is     3988.5 secs

     total energy              =    -470.45349564 Ry
     Harris-Foulkes estimate   =    -470.45583800 Ry
     estimated scf accuracy    <       0.03956212 Ry

     iteration #  6     ecut=    50.00 Ry     beta= 0.60
     Davidson diagonalization with overlap
     ethr =  7.76E-05,  avg # of iterations =  1.0

     total cpu time spent up to now is     4014.7 secs

     total energy              =    -470.44959958 Ry
     Harris-Foulkes estimate   =    -470.45398043 Ry
     estimated scf accuracy    <       0.03166430 Ry

     iteration #  7     ecut=    50.00 Ry     beta= 0.60
     Davidson diagonalization with overlap
     ethr =  6.21E-05,  avg # of iterations =  1.0

     total cpu time spent up to now is     4041.0 secs

     total energy              =    -470.44842096 Ry
     Harris-Foulkes estimate   =    -470.45029892 Ry
     estimated scf accuracy    <       0.01460833 Ry

     iteration #  8     ecut=    50.00 Ry     beta= 0.60
     Davidson diagonalization with overlap
     ethr =  2.86E-05,  avg # of iterations =  1.7

     total cpu time spent up to now is     4068.6 secs

     total energy              =    -470.44860116 Ry
     Harris-Foulkes estimate   =    -470.44887033 Ry
     estimated scf accuracy    <       0.00564955 Ry

     iteration #  9     ecut=    50.00 Ry     beta= 0.60
     Davidson diagonalization with overlap
     ethr =  1.11E-05,  avg # of iterations =  2.1

     total cpu time spent up to now is     4096.8 secs

     total energy              =    -470.44841353 Ry
     Harris-Foulkes estimate   =    -470.44867784 Ry
     estimated scf accuracy    <       0.00399649 Ry

     iteration # 10     ecut=    50.00 Ry     beta= 0.60
     Davidson diagonalization with overlap
     ethr =  7.84E-06,  avg # of iterations =  1.5

     total cpu time spent up to now is     4124.0 secs

     total energy              =    -470.44815783 Ry
     Harris-Foulkes estimate   =    -470.44847711 Ry
     estimated scf accuracy    <       0.00231015 Ry

     iteration # 11     ecut=    50.00 Ry     beta= 0.60
     Davidson diagonalization with overlap
     ethr =  4.53E-06,  avg # of iterations =  3.5

     total cpu time spent up to now is     4155.7 secs

     total energy              =    -470.44830563 Ry
     Harris-Foulkes estimate   =    -470.44832168 Ry
     estimated scf accuracy    <       0.00007860 Ry

     iteration # 12     ecut=    50.00 Ry     beta= 0.60
     Davidson diagonalization with overlap
     ethr =  1.54E-07,  avg # of iterations =  4.8

     total cpu time spent up to now is     4197.6 secs

     total energy              =    -470.44833567 Ry
     Harris-Foulkes estimate   =    -470.44833988 Ry
     estimated scf accuracy    <       0.00004880 Ry

     iteration # 13     ecut=    50.00 Ry     beta= 0.60
     Davidson diagonalization with overlap
     ethr =  9.57E-08,  avg # of iterations =  1.0

     total cpu time spent up to now is     4223.8 secs

     total energy              =    -470.44833304 Ry
     Harris-Foulkes estimate   =    -470.44833644 Ry
     estimated scf accuracy    <       0.00001835 Ry

     iteration # 14     ecut=    50.00 Ry     beta= 0.60
     Davidson diagonalization with overlap
     ethr =  3.60E-08,  avg # of iterations =  3.5

     total cpu time spent up to now is     4255.7 secs

     total energy              =    -470.44833516 Ry
     Harris-Foulkes estimate   =    -470.44833539 Ry
     estimated scf accuracy    <       0.00000182 Ry

     iteration # 15     ecut=    50.00 Ry     beta= 0.60
     Davidson diagonalization with overlap
     ethr =  3.56E-09,  avg # of iterations =  3.3

     total cpu time spent up to now is     4288.9 secs

     total energy              =    -470.44833530 Ry
     Harris-Foulkes estimate   =    -470.44833540 Ry
     estimated scf accuracy    <       0.00000060 Ry

     iteration # 16     ecut=    50.00 Ry     beta= 0.60
     Davidson diagonalization with overlap
     ethr =  1.18E-09,  avg # of iterations =  3.3

     total cpu time spent up to now is     4320.4 secs

     total energy              =    -470.44833537 Ry
     Harris-Foulkes estimate   =    -470.44833537 Ry
     estimated scf accuracy    <       0.00000002 Ry

     iteration # 17     ecut=    50.00 Ry     beta= 0.60
     Davidson diagonalization with overlap
     ethr =  3.65E-11,  avg # of iterations =  4.0

     total cpu time spent up to now is     4359.8 secs

     total energy              =    -470.44833537 Ry
     Harris-Foulkes estimate   =    -470.44833537 Ry
     estimated scf accuracy    <       0.00000002 Ry

     iteration # 18     ecut=    50.00 Ry     beta= 0.60
     Davidson diagonalization with overlap
     ethr =  3.65E-11,  avg # of iterations =  1.0

     total cpu time spent up to now is     4386.0 secs

     total energy              =    -470.44833537 Ry
     Harris-Foulkes estimate   =    -470.44833537 Ry
     estimated scf accuracy    <          6.5E-09 Ry

     iteration # 19     ecut=    50.00 Ry     beta= 0.60
     Davidson diagonalization with overlap
     ethr =  1.28E-11,  avg # of iterations =  2.4

     total cpu time spent up to now is     4414.9 secs

     total energy              =    -470.44833537 Ry
     Harris-Foulkes estimate   =    -470.44833537 Ry
     estimated scf accuracy    <          6.1E-10 Ry

     iteration # 20     ecut=    50.00 Ry     beta= 0.60
     Davidson diagonalization with overlap
     ethr =  1.20E-12,  avg # of iterations =  4.0

     total cpu time spent up to now is     4452.1 secs

     total energy              =    -470.44833537 Ry
     Harris-Foulkes estimate   =    -470.44833537 Ry
     estimated scf accuracy    <          3.2E-10 Ry

     iteration # 21     ecut=    50.00 Ry     beta= 0.60
     Davidson diagonalization with overlap
     ethr =  6.22E-13,  avg # of iterations =  1.0

     total cpu time spent up to now is     4478.2 secs

     End of self-consistent calculation

     Number of k-points >= 100: set verbosity='high' to print the bands.

     the Fermi energy is    16.7609 ev

!    total energy              =    -470.44833537 Ry
     Harris-Foulkes estimate   =    -470.44833537 Ry
     estimated scf accuracy    <          4.0E-11 Ry

     The total energy is the sum of the following terms:

     one-electron contribution =     -89.75253229 Ry
     hartree contribution      =      69.36182940 Ry
     xc contribution           =     -69.84807023 Ry
     ewald contribution        =    -380.20937487 Ry
     smearing contrib. (-TS)   =      -0.00018738 Ry

     convergence has been achieved in  21 iterations

     Forces acting on atoms (cartesian axes, Ry/au):

     atom    1 type  2   force =     0.00000000    0.00000000    0.00000000
     atom    2 type  1   force =    -0.00660194   -0.00660194    0.00211203
     atom    3 type  1   force =     0.00000000    0.00000000    0.00000000
     atom    4 type  1   force =     0.00660194    0.00660194   -0.00211203

     Total force =     0.013538     Total SCF correction =     0.000001


     Computing stress (Cartesian axis) and pressure

          total   stress  (Ry/bohr**3)                   (kbar)     P=   -4.57
  -0.00002954   0.00000823   0.00001217         -4.35      1.21      1.79
   0.00000823  -0.00002954   0.00001217          1.21     -4.35      1.79
   0.00001217   0.00001217  -0.00003405          1.79      1.79     -5.01


     number of scf cycles    =   4
     number of bfgs steps    =   3

     enthalpy old            =    -470.4459065260 Ry
     enthalpy new            =    -470.4483353727 Ry

     CASE: enthalpy_new < enthalpy_old

     new trust radius        =       0.0085420727 bohr
     new conv_thr            =            1.0E-10 Ry

     new unit-cell volume =    481.63459 a.u.^3 (    71.37088 Ang^3 )
     density =      7.59846 g/cm^3

CELL_PARAMETERS (alat=  1.88972599)
   1.643893446   1.643893446  -1.639068560
  -3.292445882   3.292445882  -0.000000000
   1.656223977   1.656223977   4.941876647

ATOMIC_POSITIONS (angstrom)
Ti      -1.642387170   4.942504594   1.651404043
Nb      -0.005927383   3.286518499   3.308121843
Nb       0.007671542   6.592563306   3.302808087
Nb       0.013598925   3.306044807  -0.005313756


     NEW-OLD atomic charge density approx. for the potential
     extrapolated charge   50.87617, renormalised to   51.00000

     total cpu time spent up to now is     4494.1 secs

     Self-consistent Calculation

     iteration #  1     ecut=    50.00 Ry     beta= 0.60
     Davidson diagonalization with overlap
     ethr =  1.00E-06,  avg # of iterations =  4.2

     total cpu time spent up to now is     4546.7 secs

     total energy              =    -470.44683909 Ry
     Harris-Foulkes estimate   =    -470.60232660 Ry
     estimated scf accuracy    <       0.00150524 Ry

     iteration #  2     ecut=    50.00 Ry     beta= 0.60
     Davidson diagonalization with overlap
     c_bands:  1 eigenvalues not converged
     c_bands:  1 eigenvalues not converged
     c_bands:  1 eigenvalues not converged
     c_bands:  1 eigenvalues not converged
     c_bands:  1 eigenvalues not converged
     c_bands:  1 eigenvalues not converged
     c_bands:  1 eigenvalues not converged
     c_bands:  1 eigenvalues not converged
     c_bands:  1 eigenvalues not converged
     c_bands:  1 eigenvalues not converged
     c_bands:  1 eigenvalues not converged
     c_bands:  2 eigenvalues not converged
     c_bands:  2 eigenvalues not converged
     c_bands:  1 eigenvalues not converged
     c_bands:  1 eigenvalues not converged
     c_bands:  1 eigenvalues not converged
     c_bands:  1 eigenvalues not converged
     ethr =  2.95E-06,  avg # of iterations =  8.4

     total cpu time spent up to now is     4607.7 secs

     total energy              =    -470.44525989 Ry
     Harris-Foulkes estimate   =    -470.45311700 Ry
     estimated scf accuracy    <       0.06167353 Ry

     iteration #  3     ecut=    50.00 Ry     beta= 0.60
     Davidson diagonalization with overlap
     ethr =  2.95E-06,  avg # of iterations =  5.4

     total cpu time spent up to now is     4657.6 secs

     total energy              =    -470.44853547 Ry
     Harris-Foulkes estimate   =    -470.44882356 Ry
     estimated scf accuracy    <       0.00083194 Ry

     iteration #  4     ecut=    50.00 Ry     beta= 0.60
     Davidson diagonalization with overlap
     ethr =  1.63E-06,  avg # of iterations =  2.0

     total cpu time spent up to now is     4686.3 secs

     total energy              =    -470.44855870 Ry
     Harris-Foulkes estimate   =    -470.44860850 Ry
     estimated scf accuracy    <       0.00063200 Ry

     iteration #  5     ecut=    50.00 Ry     beta= 0.60
     Davidson diagonalization with overlap
     ethr =  1.24E-06,  avg # of iterations =  1.0

     total cpu time spent up to now is     4712.6 secs

     total energy              =    -470.44853760 Ry
     Harris-Foulkes estimate   =    -470.44857386 Ry
     estimated scf accuracy    <       0.00040928 Ry

     iteration #  6     ecut=    50.00 Ry     beta= 0.60
     Davidson diagonalization with overlap
     ethr =  8.03E-07,  avg # of iterations =  1.0

     total cpu time spent up to now is     4738.7 secs

     total energy              =    -470.44849298 Ry
     Harris-Foulkes estimate   =    -470.44854432 Ry
     estimated scf accuracy    <       0.00021384 Ry

     iteration #  7     ecut=    50.00 Ry     beta= 0.60
     Davidson diagonalization with overlap
     ethr =  4.19E-07,  avg # of iterations =  3.0

     total cpu time spent up to now is     4770.7 secs

     total energy              =    -470.44851941 Ry
     Harris-Foulkes estimate   =    -470.44851955 Ry
     estimated scf accuracy    <       0.00000139 Ry

     iteration #  8     ecut=    50.00 Ry     beta= 0.60
     Davidson diagonalization with overlap
     ethr =  2.72E-09,  avg # of iterations =  5.1

     total cpu time spent up to now is     4817.8 secs

     total energy              =    -470.44852096 Ry
     Harris-Foulkes estimate   =    -470.44852121 Ry
     estimated scf accuracy    <       0.00000313 Ry

     iteration #  9     ecut=    50.00 Ry     beta= 0.60
     Davidson diagonalization with overlap
     ethr =  2.72E-09,  avg # of iterations =  1.0

     total cpu time spent up to now is     4843.9 secs

     total energy              =    -470.44852089 Ry
     Harris-Foulkes estimate   =    -470.44852100 Ry
     estimated scf accuracy    <       0.00000115 Ry

     iteration # 10     ecut=    50.00 Ry     beta= 0.60
     Davidson diagonalization with overlap
     ethr =  2.26E-09,  avg # of iterations =  2.8

     total cpu time spent up to now is     4873.9 secs

     total energy              =    -470.44852091 Ry
     Harris-Foulkes estimate   =    -470.44852097 Ry
     estimated scf accuracy    <       0.00000013 Ry

     iteration # 11     ecut=    50.00 Ry     beta= 0.60
     Davidson diagonalization with overlap
     ethr =  2.47E-10,  avg # of iterations =  4.2

     total cpu time spent up to now is     4913.9 secs

     total energy              =    -470.44852094 Ry
     Harris-Foulkes estimate   =    -470.44852096 Ry
     estimated scf accuracy    <       0.00000019 Ry

     iteration # 12     ecut=    50.00 Ry     beta= 0.60
     Davidson diagonalization with overlap
     ethr =  2.47E-10,  avg # of iterations =  1.0

     total cpu time spent up to now is     4940.1 secs

     total energy              =    -470.44852094 Ry
     Harris-Foulkes estimate   =    -470.44852094 Ry
     estimated scf accuracy    <       0.00000004 Ry

     iteration # 13     ecut=    50.00 Ry     beta= 0.60
     Davidson diagonalization with overlap
     ethr =  7.26E-11,  avg # of iterations =  3.3

     total cpu time spent up to now is     4971.2 secs

     total energy              =    -470.44852094 Ry
     Harris-Foulkes estimate   =    -470.44852094 Ry
     estimated scf accuracy    <          3.1E-09 Ry

     iteration # 14     ecut=    50.00 Ry     beta= 0.60
     Davidson diagonalization with overlap
     ethr =  6.00E-12,  avg # of iterations =  4.0

     total cpu time spent up to now is     5007.5 secs

     total energy              =    -470.44852095 Ry
     Harris-Foulkes estimate   =    -470.44852095 Ry
     estimated scf accuracy    <          3.0E-10 Ry

     iteration # 15     ecut=    50.00 Ry     beta= 0.60
     Davidson diagonalization with overlap
     ethr =  5.84E-13,  avg # of iterations =  3.9

     total cpu time spent up to now is     5044.4 secs

     total energy              =    -470.44852095 Ry
     Harris-Foulkes estimate   =    -470.44852095 Ry
     estimated scf accuracy    <          7.0E-10 Ry

     iteration # 16     ecut=    50.00 Ry     beta= 0.60
     Davidson diagonalization with overlap
     ethr =  5.84E-13,  avg # of iterations =  2.1

     total cpu time spent up to now is     5072.4 secs

     End of self-consistent calculation

     Number of k-points >= 100: set verbosity='high' to print the bands.

     the Fermi energy is    16.8093 ev

!    total energy              =    -470.44852095 Ry
     Harris-Foulkes estimate   =    -470.44852095 Ry
     estimated scf accuracy    <          5.3E-11 Ry

     The total energy is the sum of the following terms:

     one-electron contribution =     -89.29907802 Ry
     hartree contribution      =      69.23467472 Ry
     xc contribution           =     -69.85830741 Ry
     ewald contribution        =    -380.52563534 Ry
     smearing contrib. (-TS)   =      -0.00017489 Ry

     convergence has been achieved in  16 iterations

     Forces acting on atoms (cartesian axes, Ry/au):

     atom    1 type  2   force =     0.00000000    0.00000000    0.00000000
     atom    2 type  1   force =    -0.00589888   -0.00589888    0.00217378
     atom    3 type  1   force =     0.00000000    0.00000000    0.00000000
     atom    4 type  1   force =     0.00589888    0.00589888   -0.00217378

     Total force =     0.012192     Total SCF correction =     0.000016


     Computing stress (Cartesian axis) and pressure

          total   stress  (Ry/bohr**3)                   (kbar)     P=   -0.85
  -0.00000497   0.00000910   0.00001117         -0.73      1.34      1.64
   0.00000910  -0.00000497   0.00001117          1.34     -0.73      1.64
   0.00001117   0.00001117  -0.00000735          1.64      1.64     -1.08


     number of scf cycles    =   5
     number of bfgs steps    =   4

     enthalpy old            =    -470.4483353727 Ry
     enthalpy new            =    -470.4485209452 Ry

     CASE: enthalpy_new < enthalpy_old

     new trust radius        =       0.0128030845 bohr
     new conv_thr            =            1.0E-10 Ry

     new unit-cell volume =    480.99035 a.u.^3 (    71.27542 Ang^3 )
     density =      7.60864 g/cm^3

CELL_PARAMETERS (alat=  1.88972599)
   1.643059436   1.643059436  -1.636766039
  -3.290005875   3.290005875  -0.000000000
   1.658268588   1.658268588   4.940731490

ATOMIC_POSITIONS (angstrom)
Ti      -1.639341863   4.940669887   1.651982726
Nb      -0.008034049   3.281971825   3.309396638
Nb       0.011322149   6.591333899   3.303965451
Nb       0.019356199   3.309362073  -0.005431186


     NEW-OLD atomic charge density approx. for the potential
     extrapolated charge   50.93304, renormalised to   51.00000

     total cpu time spent up to now is     5088.3 secs

     Self-consistent Calculation

     iteration #  1     ecut=    50.00 Ry     beta= 0.60
     Davidson diagonalization with overlap
     ethr =  1.00E-06,  avg # of iterations =  4.0

     total cpu time spent up to now is     5141.7 secs

     total energy              =    -470.44821549 Ry
     Harris-Foulkes estimate   =    -470.53166493 Ry
     estimated scf accuracy    <       0.00048505 Ry

     iteration #  2     ecut=    50.00 Ry     beta= 0.60
     Davidson diagonalization with overlap
     c_bands:  1 eigenvalues not converged
     c_bands:  1 eigenvalues not converged
     ethr =  9.51E-07,  avg # of iterations =  6.3

     total cpu time spent up to now is     5199.3 secs

     total energy              =    -470.44756915 Ry
     Harris-Foulkes estimate   =    -470.45030600 Ry
     estimated scf accuracy    <       0.02234119 Ry

     iteration #  3     ecut=    50.00 Ry     beta= 0.60
     Davidson diagonalization with overlap
     ethr =  9.51E-07,  avg # of iterations =  5.0

     total cpu time spent up to now is     5247.5 secs

     total energy              =    -470.44873985 Ry
     Harris-Foulkes estimate   =    -470.44881727 Ry
     estimated scf accuracy    <       0.00023442 Ry

     iteration #  4     ecut=    50.00 Ry     beta= 0.60
     Davidson diagonalization with overlap
     ethr =  4.60E-07,  avg # of iterations =  1.7

     total cpu time spent up to now is     5275.1 secs

     total energy              =    -470.44872962 Ry
     Harris-Foulkes estimate   =    -470.44875599 Ry
     estimated scf accuracy    <       0.00017198 Ry

     iteration #  5     ecut=    50.00 Ry     beta= 0.60
     Davidson diagonalization with overlap
     ethr =  3.37E-07,  avg # of iterations =  2.0

     total cpu time spent up to now is     5303.4 secs

     total energy              =    -470.44873055 Ry
     Harris-Foulkes estimate   =    -470.44873789 Ry
     estimated scf accuracy    <       0.00004896 Ry

     iteration #  6     ecut=    50.00 Ry     beta= 0.60
     Davidson diagonalization with overlap
     ethr =  9.60E-08,  avg # of iterations =  2.0

     total cpu time spent up to now is     5331.6 secs

     total energy              =    -470.44873110 Ry
     Harris-Foulkes estimate   =    -470.44873418 Ry
     estimated scf accuracy    <       0.00001392 Ry

     iteration #  7     ecut=    50.00 Ry     beta= 0.60
     Davidson diagonalization with overlap
     ethr =  2.73E-08,  avg # of iterations =  3.7

     total cpu time spent up to now is     5366.8 secs

     total energy              =    -470.44873365 Ry
     Harris-Foulkes estimate   =    -470.44873421 Ry
     estimated scf accuracy    <       0.00000321 Ry

     iteration #  8     ecut=    50.00 Ry     beta= 0.60
     Davidson diagonalization with overlap
     ethr =  6.30E-09,  avg # of iterations =  2.0

     total cpu time spent up to now is     5394.9 secs

     total energy              =    -470.44873372 Ry
     Harris-Foulkes estimate   =    -470.44873382 Ry
     estimated scf accuracy    <       0.00000058 Ry

     iteration #  9     ecut=    50.00 Ry     beta= 0.60
     Davidson diagonalization with overlap
     ethr =  1.15E-09,  avg # of iterations =  3.8

     total cpu time spent up to now is     5429.6 secs

     total energy              =    -470.44873382 Ry
     Harris-Foulkes estimate   =    -470.44873383 Ry
     estimated scf accuracy    <       0.00000005 Ry

     iteration # 10     ecut=    50.00 Ry     beta= 0.60
     Davidson diagonalization with overlap
     ethr =  8.86E-11,  avg # of iterations =  2.8

     total cpu time spent up to now is     5460.5 secs

     total energy              =    -470.44873382 Ry
     Harris-Foulkes estimate   =    -470.44873383 Ry
     estimated scf accuracy    <          3.8E-09 Ry

     iteration # 11     ecut=    50.00 Ry     beta= 0.60
     Davidson diagonalization with overlap
     ethr =  7.49E-12,  avg # of iterations =  3.8

     total cpu time spent up to now is     5500.9 secs

     total energy              =    -470.44873383 Ry
     Harris-Foulkes estimate   =    -470.44873383 Ry
     estimated scf accuracy    <          1.5E-10 Ry

     iteration # 12     ecut=    50.00 Ry     beta= 0.60
     Davidson diagonalization with overlap
     ethr =  2.93E-13,  avg # of iterations =  4.0

     total cpu time spent up to now is     5541.8 secs

     End of self-consistent calculation

[...]
     ethr =  1.00E-13,  avg # of iterations =  1.0

     total cpu time spent up to now is    11404.1 secs

     total energy              =    -470.44928497 Ry
     Harris-Foulkes estimate   =    -470.44928497 Ry
     estimated scf accuracy    <          7.0E-12 Ry

     iteration # 10     ecut=    50.00 Ry     beta= 0.60
     Davidson diagonalization with overlap
     ethr =  1.00E-13,  avg # of iterations =  1.2

     total cpu time spent up to now is    11430.7 secs

     End of self-consistent calculation

     Number of k-points >= 100: set verbosity='high' to print the bands.

     the Fermi energy is    16.8182 ev

!    total energy              =    -470.44928497 Ry
     Harris-Foulkes estimate   =    -470.44928497 Ry
     estimated scf accuracy    <          1.6E-13 Ry

     The total energy is the sum of the following terms:

     one-electron contribution =     -89.31684673 Ry
     hartree contribution      =      69.24493948 Ry
     xc contribution           =     -69.86048204 Ry
     ewald contribution        =    -380.51669811 Ry
     smearing contrib. (-TS)   =      -0.00019756 Ry

     convergence has been achieved in  10 iterations

     Forces acting on atoms (cartesian axes, Ry/au):

     atom    1 type  2   force =     0.00000000    0.00000000    0.00000000
     atom    2 type  1   force =     0.00000198    0.00000198   -0.00000006
     atom    3 type  1   force =     0.00000000    0.00000000    0.00000000
     atom    4 type  1   force =    -0.00000198   -0.00000198    0.00000006

     Total force =     0.000004     Total SCF correction =     0.000001
     SCF correction compared to forces is large: reduce conv_thr to get better values


     Computing stress (Cartesian axis) and pressure

          total   stress  (Ry/bohr**3)                   (kbar)     P=    0.00
   0.00000017   0.00000019   0.00000002          0.03      0.03      0.00
   0.00000019   0.00000017   0.00000002          0.03      0.03      0.00
   0.00000002   0.00000002  -0.00000031          0.00      0.00     -0.05


     bfgs converged in  19 scf cycles and  18 bfgs steps
     (criteria: energy <  1.0E-10 Ry, force <  1.0E-05Ry/Bohr, cell <  1.0E-03kbar)

     End of BFGS Geometry Optimization

     Final enthalpy =    -470.4492849666 Ry
Begin final coordinates
     new unit-cell volume =    481.55404 a.u.^3 (    71.35895 Ang^3 )
     density =      7.59973 g/cm^3

CELL_PARAMETERS (alat=  1.88972599)
   1.646822909   1.646822909  -1.633619272
  -3.272484267   3.272484267   0.000000000
   1.675579035   1.675579035   4.958405061

ATOMIC_POSITIONS (angstrom)
Ti      -1.611283295   4.933685239   1.662392894
Nb      -0.008595032   3.263889235   3.341497924
Nb       0.049917677   6.594886211   3.324785789
Nb       0.058512709   3.330996976  -0.016712135
End final coordinates



     A final scf calculation at the relaxed structure.
     The G-vectors are recalculated for the final unit cell
     Results may differ from those at the preceding step.
 
     Parallelization info
     --------------------
     sticks:   dense  smooth     PW     G-vecs:    dense   smooth      PW
     Min         469     188     56                22739     5757     965
     Max         470     189     57                22742     5759     968
     Sum        1877     755    225                90961    23033    3865
 


     bravais-lattice index     =            0
     lattice parameter (alat)  =       1.8897  a.u.
     unit-cell volume          =     481.5540 (a.u.)^3
     number of atoms/cell      =            4
     number of atomic types    =            2
     number of electrons       =        51.00
     number of Kohn-Sham states=           31
     kinetic-energy cutoff     =      50.0000  Ry
     charge density cutoff     =     500.0000  Ry
     convergence threshold     =      1.0E-12
     mixing beta               =       0.6000
     number of iterations used =            8  plain     mixing
     Exchange-correlation      = SLA PW PBE PBE ( 1  4  3  4 0 0)

     celldm(1)=   1.889726  celldm(2)=   0.000000  celldm(3)=   0.000000
     celldm(4)=   0.000000  celldm(5)=   0.000000  celldm(6)=   0.000000

     crystal axes: (cart. coord. in units of alat)
               a(1) = (   1.646823   1.646823  -1.633619 )  
               a(2) = (  -3.272484   3.272484   0.000000 )  
               a(3) = (   1.675579   1.675579   4.958405 )  

     reciprocal axes: (cart. coord. in units 2 pi/alat)
               b(1) = (  0.227390  0.227390 -0.153682 )  
               b(2) = ( -0.152789  0.152789  0.000000 )  
               b(3) = (  0.074917  0.074917  0.151045 )  


     PseudoPot. # 1 for Nb read from file:
     ./Nb.pbe-nsp-van.UPF
     MD5 check sum: 0a22fc7fb0ba19a08ca5db297a5d2854
     Pseudo is Ultrasoft + core correction, Zval = 13.0
     Generated by new atomic code, or converted to UPF format
     Using radial grid of  887 points,  6 beta functions with: 
                l(1) =   0
                l(2) =   0
                l(3) =   1
                l(4) =   1
                l(5) =   2
                l(6) =   2
     Q(r) pseudized with  6 coefficients,  rinner =    1.000   1.000   1.000
                                                       1.000   1.000

     PseudoPot. # 2 for Ti read from file:
     ./Ti.pbe-sp-van_ak.UPF
     MD5 check sum: f98fea3e8887528921fefa5636a534ca
     Pseudo is Ultrasoft, Zval = 12.0
     Generated by new atomic code, or converted to UPF format
     Using radial grid of  851 points,  6 beta functions with: 
                l(1) =   0
                l(2) =   0
                l(3) =   1
                l(4) =   1
                l(5) =   2
                l(6) =   2
     Q(r) pseudized with  8 coefficients,  rinner =    1.000   1.000   1.000
                                                       1.000   1.000

     atomic species   valence    mass     pseudopotential
        Nb            13.00    92.90638     Nb( 1.00)
        Ti            12.00    47.86700     Ti( 1.00)

      4 Sym. Ops., with inversion, found



   Cartesian axes

     site n.     atom                  positions (alat units)
         1           Ti  tau(   1) = (  -1.6112834   4.9336856   1.6623930  )
         2           Nb  tau(   2) = (  -0.0085950   3.2638895   3.3414982  )
         3           Nb  tau(   3) = (   0.0499177   6.5948867   3.3247860  )
         4           Nb  tau(   4) = (   0.0585127   3.3309972  -0.0167121  )

     number of k points=   576  Marzari-Vanderbilt smearing, width (Ry)=  0.0200

     Number of k-points >= 100: set verbosity='high' to print them.

     Dense  grid:    90961 G-vectors     FFT dimensions: (  40,  64,  75)

     Smooth grid:    23033 G-vectors     FFT dimensions: (  25,  40,  48)

     Estimated max dynamical RAM per process >     282.45 MB

     Estimated total dynamical RAM >       1.10 GB

     Initial potential from superposition of free atoms

     starting charge   49.99176, renormalised to   51.00000
     Starting wfcs are   49 randomized atomic wfcs

     total cpu time spent up to now is    11457.8 secs

     Self-consistent Calculation

     iteration #  1     ecut=    50.00 Ry     beta= 0.60
     Davidson diagonalization with overlap
     c_bands:  2 eigenvalues not converged
     ethr =  1.00E-06,  avg # of iterations = 10.4

     total cpu time spent up to now is    11532.9 secs

     total energy              =    -452.17912926 Ry
     Harris-Foulkes estimate   =    -472.40201992 Ry
     estimated scf accuracy    <      25.24138182 Ry

     iteration #  2     ecut=    50.00 Ry     beta= 0.60
     Davidson diagonalization with overlap
     ethr =  1.00E-02,  avg # of iterations =  5.8

     total cpu time spent up to now is    11579.6 secs

     total energy              =    -459.40018627 Ry
     Harris-Foulkes estimate   =    -499.67700920 Ry
     estimated scf accuracy    <     125.10766006 Ry

     iteration #  3     ecut=    50.00 Ry     beta= 0.60
     Davidson diagonalization with overlap
     ethr =  1.00E-02,  avg # of iterations =  5.0

     total cpu time spent up to now is    11620.5 secs

     total energy              =    -471.54994758 Ry
     Harris-Foulkes estimate   =    -472.92750416 Ry
     estimated scf accuracy    <      10.61206315 Ry

     iteration #  4     ecut=    50.00 Ry     beta= 0.60
     Davidson diagonalization with overlap
     ethr =  1.00E-02,  avg # of iterations =  1.7

     total cpu time spent up to now is    11642.3 secs

     total energy              =    -471.30962840 Ry
     Harris-Foulkes estimate   =    -471.99427629 Ry
     estimated scf accuracy    <       5.91664695 Ry

     iteration #  5     ecut=    50.00 Ry     beta= 0.60
     Davidson diagonalization with overlap
     ethr =  1.00E-02,  avg # of iterations =  1.0

     total cpu time spent up to now is    11663.0 secs

     total energy              =    -470.01202514 Ry
     Harris-Foulkes estimate   =    -471.35915659 Ry
     estimated scf accuracy    <       4.41346366 Ry

     iteration #  6     ecut=    50.00 Ry     beta= 0.60
     Davidson diagonalization with overlap
     ethr =  8.65E-03,  avg # of iterations =  3.5

     total cpu time spent up to now is    11689.4 secs

     total energy              =    -470.41030680 Ry
     Harris-Foulkes estimate   =    -470.41067742 Ry
     estimated scf accuracy    <       0.13376627 Ry

     iteration #  7     ecut=    50.00 Ry     beta= 0.60
     Davidson diagonalization with overlap
     ethr =  2.62E-04,  avg # of iterations =  5.3

     total cpu time spent up to now is    11727.3 secs

     total energy              =    -470.45676128 Ry
     Harris-Foulkes estimate   =    -470.46646644 Ry
     estimated scf accuracy    <       0.05755160 Ry

     iteration #  8     ecut=    50.00 Ry     beta= 0.60
     Davidson diagonalization with overlap
     ethr =  1.13E-04,  avg # of iterations =  5.6

     total cpu time spent up to now is    11764.0 secs

     total energy              =    -470.46097092 Ry
     Harris-Foulkes estimate   =    -470.50348742 Ry
     estimated scf accuracy    <       0.56398351 Ry

     iteration #  9     ecut=    50.00 Ry     beta= 0.60
     Davidson diagonalization with overlap
     ethr =  1.13E-04,  avg # of iterations =  2.7

     total cpu time spent up to now is    11787.8 secs

     total energy              =    -470.45328712 Ry
     Harris-Foulkes estimate   =    -470.46617773 Ry
     estimated scf accuracy    <       0.28649299 Ry

     iteration # 10     ecut=    50.00 Ry     beta= 0.60
     Davidson diagonalization with overlap
     ethr =  1.13E-04,  avg # of iterations =  4.3

     total cpu time spent up to now is    11815.8 secs

     total energy              =    -470.44285569 Ry
     Harris-Foulkes estimate   =    -470.45717466 Ry
     estimated scf accuracy    <       0.13479399 Ry

     iteration # 11     ecut=    50.00 Ry     beta= 0.60
     Davidson diagonalization with overlap
     ethr =  1.13E-04,  avg # of iterations =  3.3

     total cpu time spent up to now is    11841.2 secs

     total energy              =    -470.44844666 Ry
     Harris-Foulkes estimate   =    -470.44832468 Ry
     estimated scf accuracy    <       0.01024287 Ry

     iteration # 12     ecut=    50.00 Ry     beta= 0.60
     Davidson diagonalization with overlap
     ethr =  2.01E-05,  avg # of iterations =  5.4

     total cpu time spent up to now is    11873.1 secs

     total energy              =    -470.44894917 Ry
     Harris-Foulkes estimate   =    -470.44917503 Ry
     estimated scf accuracy    <       0.00630105 Ry

     iteration # 13     ecut=    50.00 Ry     beta= 0.60
     Davidson diagonalization with overlap
     ethr =  1.24E-05,  avg # of iterations =  1.1

     total cpu time spent up to now is    11894.0 secs

     total energy              =    -470.44846764 Ry
     Harris-Foulkes estimate   =    -470.44898825 Ry
     estimated scf accuracy    <       0.00373235 Ry

     iteration # 14     ecut=    50.00 Ry     beta= 0.60
     Davidson diagonalization with overlap
     ethr =  7.32E-06,  avg # of iterations =  3.4

     total cpu time spent up to now is    11919.4 secs

     total energy              =    -470.44876303 Ry
     Harris-Foulkes estimate   =    -470.44876954 Ry
     estimated scf accuracy    <       0.00005018 Ry

     iteration # 15     ecut=    50.00 Ry     beta= 0.60
     Davidson diagonalization with overlap
     ethr =  9.84E-08,  avg # of iterations =  5.1

     total cpu time spent up to now is    11954.1 secs

     total energy              =    -470.44878418 Ry
     Harris-Foulkes estimate   =    -470.44878819 Ry
     estimated scf accuracy    <       0.00002308 Ry

     iteration # 16     ecut=    50.00 Ry     beta= 0.60
     Davidson diagonalization with overlap
     ethr =  4.53E-08,  avg # of iterations =  2.2

     total cpu time spent up to now is    11976.9 secs

     total energy              =    -470.44878653 Ry
     Harris-Foulkes estimate   =    -470.44878678 Ry
     estimated scf accuracy    <       0.00000192 Ry

     iteration # 17     ecut=    50.00 Ry     beta= 0.60
     Davidson diagonalization with overlap
     ethr =  3.76E-09,  avg # of iterations =  3.7

     total cpu time spent up to now is    12004.7 secs

     total energy              =    -470.44878676 Ry
     Harris-Foulkes estimate   =    -470.44878687 Ry
     estimated scf accuracy    <       0.00000049 Ry

     iteration # 18     ecut=    50.00 Ry     beta= 0.60
     Davidson diagonalization with overlap
     ethr =  9.68E-10,  avg # of iterations =  3.4

     total cpu time spent up to now is    12029.9 secs

     total energy              =    -470.44878683 Ry
     Harris-Foulkes estimate   =    -470.44878685 Ry
     estimated scf accuracy    <       0.00000018 Ry

     iteration # 19     ecut=    50.00 Ry     beta= 0.60
     Davidson diagonalization with overlap
     ethr =  3.45E-10,  avg # of iterations =  1.6

     total cpu time spent up to now is    12051.4 secs

     total energy              =    -470.44878684 Ry
     Harris-Foulkes estimate   =    -470.44878684 Ry
     estimated scf accuracy    <       0.00000003 Ry

     iteration # 20     ecut=    50.00 Ry     beta= 0.60
     Davidson diagonalization with overlap
     ethr =  5.45E-11,  avg # of iterations =  3.6

     total cpu time spent up to now is    12078.2 secs

     total energy              =    -470.44878684 Ry
     Harris-Foulkes estimate   =    -470.44878684 Ry
     estimated scf accuracy    <          5.1E-09 Ry

     iteration # 21     ecut=    50.00 Ry     beta= 0.60
     Davidson diagonalization with overlap
     ethr =  9.97E-12,  avg # of iterations =  2.3

     total cpu time spent up to now is    12101.2 secs

     total energy              =    -470.44878684 Ry
     Harris-Foulkes estimate   =    -470.44878684 Ry
     estimated scf accuracy    <          6.4E-10 Ry

     iteration # 22     ecut=    50.00 Ry     beta= 0.60
     Davidson diagonalization with overlap
     ethr =  1.25E-12,  avg # of iterations =  3.9

     total cpu time spent up to now is    12130.6 secs

     total energy              =    -470.44878684 Ry
     Harris-Foulkes estimate   =    -470.44878684 Ry
     estimated scf accuracy    <          5.4E-11 Ry

     iteration # 23     ecut=    50.00 Ry     beta= 0.60
     Davidson diagonalization with overlap
     ethr =  1.06E-13,  avg # of iterations =  3.2

     total cpu time spent up to now is    12156.4 secs

     total energy              =    -470.44878684 Ry
     Harris-Foulkes estimate   =    -470.44878684 Ry
     estimated scf accuracy    <          1.5E-12 Ry

     iteration # 24     ecut=    50.00 Ry     beta= 0.60
     Davidson diagonalization with overlap
     ethr =  1.00E-13,  avg # of iterations =  1.0

     total cpu time spent up to now is    12177.0 secs

     End of self-consistent calculation

     Number of k-points >= 100: set verbosity='high' to print the bands.

     the Fermi energy is    16.8184 ev

!    total energy              =    -470.44878684 Ry
     Harris-Foulkes estimate   =    -470.44878684 Ry
     estimated scf accuracy    <          8.2E-14 Ry

     The total energy is the sum of the following terms:

     one-electron contribution =     -89.31664790 Ry
     hartree contribution      =      69.24505289 Ry
     xc contribution           =     -69.86029605 Ry
     ewald contribution        =    -380.51669811 Ry
     smearing contrib. (-TS)   =      -0.00019768 Ry

     convergence has been achieved in  24 iterations

     Forces acting on atoms (cartesian axes, Ry/au):

     atom    1 type  2   force =     0.00000000    0.00000000    0.00000000
     atom    2 type  1   force =     0.00000350    0.00000350    0.00000809
     atom    3 type  1   force =     0.00000000    0.00000000    0.00000000
     atom    4 type  1   force =    -0.00000350   -0.00000350   -0.00000809

     Total force =     0.000013     Total SCF correction =     0.000001


     Computing stress (Cartesian axis) and pressure

          total   stress  (Ry/bohr**3)                   (kbar)     P=   -1.34
  -0.00000900   0.00000014   0.00000013         -1.32      0.02      0.02
   0.00000014  -0.00000900   0.00000013          0.02     -1.32      0.02
   0.00000013   0.00000013  -0.00000941          0.02      0.02     -1.38

 
     init_run     :     28.82s CPU     29.55s WALL (       2 calls)
     electrons    :  11576.01s CPU  11845.35s WALL (      20 calls)
     update_pot   :     24.89s CPU     24.96s WALL (      18 calls)
     forces       :     73.14s CPU     74.96s WALL (      20 calls)
     stress       :    202.46s CPU    207.59s WALL (      20 calls)

     Called by init_run:
     wfcinit      :     26.43s CPU     27.03s WALL (       2 calls)
     potinit      :      0.71s CPU      0.72s WALL (       2 calls)
     hinit0       :      1.37s CPU      1.39s WALL (       2 calls)

     Called by electrons:
     c_bands      :   9957.93s CPU  10142.47s WALL (     343 calls)
     sum_band     :   1545.57s CPU   1602.51s WALL (     343 calls)
     v_of_rho     :     11.59s CPU     11.66s WALL (     355 calls)
     newd         :     62.82s CPU     91.23s WALL (     355 calls)
     mix_rho      :      1.55s CPU      1.56s WALL (     343 calls)

     Called by c_bands:
     init_us_2    :    212.57s CPU    215.28s WALL (  419328 calls)
     cegterg      :   8872.23s CPU   9032.30s WALL (  197568 calls)

     Called by sum_band:
     sum_band:bec :      4.04s CPU      4.11s WALL (  197568 calls)
     addusdens    :     70.70s CPU     96.88s WALL (     343 calls)

     Called by *egterg:
     h_psi        :   6017.51s CPU   6163.17s WALL (  796166 calls)
     s_psi        :    286.36s CPU    289.38s WALL (  796166 calls)
     g_psi        :     66.86s CPU     67.61s WALL (  597446 calls)
     cdiaghg      :   1445.03s CPU   1450.92s WALL (  780038 calls)

     Called by h_psi:
     h_psi:pot    :   5995.37s CPU   6140.03s WALL (  796166 calls)
     h_psi:calbec :    306.49s CPU    310.41s WALL (  796166 calls)
     vloc_psi     :   5393.82s CPU   5533.25s WALL (  796166 calls)
     add_vuspsi   :    292.14s CPU    292.16s WALL (  796166 calls)

     General routines
     calbec       :    449.72s CPU    454.15s WALL ( 1051334 calls)
     fft          :      7.86s CPU      8.02s WALL (    5121 calls)
     ffts         :      0.22s CPU      0.24s WALL (     698 calls)
     fftw         :   5911.03s CPU   6059.77s WALL (37347534 calls)
     interpolate  :      0.65s CPU      0.65s WALL (     355 calls)
 
     Parallel routines
     fft_scatt_xy :   1109.20s CPU   1148.69s WALL (37353353 calls)
     fft_scatt_yz :   1417.30s CPU   1423.57s WALL (37353353 calls)
 
     PWSCF        :     3h18m CPU       18h 3m WALL

      23h
 
   This run was terminated on:   0: 6:16   4Feb2020            

=------------------------------------------------------------------------------=
   JOB DONE.
=------------------------------------------------------------------------------=
