
     Program PWSCF v.6.3MaX starts on  8Feb2020 at 12:39:34 

     This program is part of the open-source Quantum ESPRESSO suite
     for quantum simulation of materials; please cite
         "P. Giannozzi et al., J. Phys.:Condens. Matter 21 395502 (2009);
         "P. Giannozzi et al., J. Phys.:Condens. Matter 29 465901 (2017);
          URL http://www.quantum-espresso.org", 
     in publications or presentations arising from this work. More details at
     http://www.quantum-espresso.org/quote

     Parallel version (MPI), running on     4 processors

     MPI processes distributed on     1 nodes
     R & G space division:  proc/nbgrp/npool/nimage =       4
     Waiting for input...
     Reading input from standard input

     Current dimensions of program PWSCF are:
     Max number of different atomic species (ntypx) = 10
     Max number of k-points (npk) =  40000
     Max angular momentum in pseudopotentials (lmaxx) =  3
     Message from routine iosys:
     minimal I/O required, wf_collect reset to FALSE

     Subspace diagonalization in iterative solution of the eigenvalue problem:
     a serial algorithm will be used

 
     Parallelization info
     --------------------
     sticks:   dense  smooth     PW     G-vecs:    dense   smooth      PW
     Min         780     312     93                36414     9205    1526
     Max         781     313     94                36416     9206    1527
     Sum        3121    1251    375               145661    36823    6107
 


     bravais-lattice index     =            0
     lattice parameter (alat)  =       1.8897  a.u.
     unit-cell volume          =    1077.7903 (a.u.)^3
     number of atoms/cell      =            8
     number of atomic types    =            2
     number of electrons       =        97.00
     number of Kohn-Sham states=           59
     kinetic-energy cutoff     =      40.0000  Ry
     charge density cutoff     =     400.0000  Ry
     convergence threshold     =      1.0E-10
     mixing beta               =       0.6000
     number of iterations used =            8  plain     mixing
     Exchange-correlation      = SLA PW PBE PBE ( 1  4  3  4 0 0)
     nstep                     =           50


     celldm(1)=   1.889726  celldm(2)=   0.000000  celldm(3)=   0.000000
     celldm(4)=   0.000000  celldm(5)=   0.000000  celldm(6)=   0.000000

     crystal axes: (cart. coord. in units of alat)
               a(1) = (   1.522502   2.637051  -4.972461 )  
               a(2) = (   1.522502  -2.637051  -4.972461 )  
               a(3) = (  -6.090008   0.000000   0.000000 )  

     reciprocal axes: (cart. coord. in units 2 pi/alat)
               b(1) = (  0.000000  0.189606 -0.100554 )  
               b(2) = (  0.000000 -0.189606 -0.100554 )  
               b(3) = ( -0.164203  0.000000 -0.050277 )  


     PseudoPot. # 1 for Nb read from file:
     ./Nb.pbe-nsp-van.UPF
     MD5 check sum: 0a22fc7fb0ba19a08ca5db297a5d2854
     Pseudo is Ultrasoft + core correction, Zval = 13.0
     Generated by new atomic code, or converted to UPF format
     Using radial grid of  887 points,  6 beta functions with: 
                l(1) =   0
                l(2) =   0
                l(3) =   1
                l(4) =   1
                l(5) =   2
                l(6) =   2
     Q(r) pseudized with  6 coefficients,  rinner =    1.000   1.000   1.000
                                                       1.000   1.000

     PseudoPot. # 2 for Ti read from file:
     ./Ti.pbe-sp-van_ak.UPF
     MD5 check sum: f98fea3e8887528921fefa5636a534ca
     Pseudo is Ultrasoft, Zval = 12.0
     Generated by new atomic code, or converted to UPF format
     Using radial grid of  851 points,  6 beta functions with: 
                l(1) =   0
                l(2) =   0
                l(3) =   1
                l(4) =   1
                l(5) =   2
                l(6) =   2
     Q(r) pseudized with  8 coefficients,  rinner =    1.000   1.000   1.000
                                                       1.000   1.000

     atomic species   valence    mass     pseudopotential
        Nb            13.00    92.90638     Nb( 1.00)
        Ti            12.00    47.86700     Ti( 1.00)

     No symmetry found
          (note:  1 additional sym.ops. were found but ignored
           their fractional translations are incommensurate with FFT grid)


   Cartesian axes

     site n.     atom                  positions (alat units)
         1           Ti  tau(   1) = (   0.0000000   0.0000000  -4.9724614  )
         2           Ti  tau(   2) = (  -1.5225006   0.8790162  -2.4862307  )
         3           Ti  tau(   3) = (  -3.0450042   0.0000000  -4.9724614  )
         4           Ti  tau(   4) = (  -4.5675048   0.8790162  -2.4862307  )
         5           Ti  tau(   5) = (  -3.0450042   0.0000000  -9.9449228  )
         6           Ti  tau(   6) = (   1.5225036   0.8790162  -7.4586921  )
         7           Ti  tau(   7) = (   0.0000000   0.0000000  -9.9449228  )
         8           Nb  tau(   8) = (  -1.5225006   0.8790162  -7.4586921  )

     number of k points=   504  Marzari-Vanderbilt smearing, width (Ry)=  0.0200

     Number of k-points >= 100: set verbosity='high' to print them.

     Dense  grid:   145661 G-vectors     FFT dimensions: (  72,  72,  75)

     Smooth grid:    36823 G-vectors     FFT dimensions: (  45,  45,  48)

     Estimated max dynamical RAM per process >     666.45 MB

     Estimated total dynamical RAM >       2.60 GB

     Initial potential from superposition of free atoms

     starting charge   89.99696, renormalised to   97.00000
     Starting wfcs are   83 randomized atomic wfcs

     total cpu time spent up to now is       45.0 secs

     Self-consistent Calculation

     iteration #  1     ecut=    40.00 Ry     beta= 0.60
     Davidson diagonalization with overlap
     ethr =  1.00E-02,  avg # of iterations =  4.2

     total cpu time spent up to now is      186.3 secs

     total energy              =    -930.33442236 Ry
     Harris-Foulkes estimate   =    -936.89931767 Ry
     estimated scf accuracy    <       8.72861563 Ry

     iteration #  2     ecut=    40.00 Ry     beta= 0.60
     Davidson diagonalization with overlap
     ethr =  9.00E-03,  avg # of iterations =  5.1

     total cpu time spent up to now is      342.0 secs

     total energy              =    -927.58972916 Ry
     Harris-Foulkes estimate   =    -942.25703177 Ry
     estimated scf accuracy    <      51.82109751 Ry

     iteration #  3     ecut=    40.00 Ry     beta= 0.60
     Davidson diagonalization with overlap
     ethr =  9.00E-03,  avg # of iterations =  5.9

     total cpu time spent up to now is      510.7 secs

     total energy              =    -931.66776690 Ry
     Harris-Foulkes estimate   =    -936.68893856 Ry
     estimated scf accuracy    <      33.62874690 Ry

     iteration #  4     ecut=    40.00 Ry     beta= 0.60
     Davidson diagonalization with overlap
     ethr =  9.00E-03,  avg # of iterations =  4.1

     total cpu time spent up to now is      607.6 secs

     total energy              =    -932.68270274 Ry
     Harris-Foulkes estimate   =    -935.28555370 Ry
     estimated scf accuracy    <      18.65401716 Ry

     iteration #  5     ecut=    40.00 Ry     beta= 0.60
     Davidson diagonalization with overlap
     ethr =  9.00E-03,  avg # of iterations =  4.6

     total cpu time spent up to now is      717.9 secs

     total energy              =    -934.24340354 Ry
     Harris-Foulkes estimate   =    -934.60694385 Ry
     estimated scf accuracy    <       2.78611543 Ry

     iteration #  6     ecut=    40.00 Ry     beta= 0.60
     Davidson diagonalization with overlap
     ethr =  2.87E-03,  avg # of iterations =  5.3

     total cpu time spent up to now is      827.9 secs

     total energy              =    -934.33748759 Ry
     Harris-Foulkes estimate   =    -934.55311783 Ry
     estimated scf accuracy    <       1.94956883 Ry

     iteration #  7     ecut=    40.00 Ry     beta= 0.60
     Davidson diagonalization with overlap
     ethr =  2.01E-03,  avg # of iterations =  1.8

     total cpu time spent up to now is      908.4 secs

     total energy              =    -934.42480587 Ry
     Harris-Foulkes estimate   =    -934.45835937 Ry
     estimated scf accuracy    <       0.72069244 Ry

     iteration #  8     ecut=    40.00 Ry     beta= 0.60
     Davidson diagonalization with overlap
     ethr =  7.43E-04,  avg # of iterations =  4.2

     total cpu time spent up to now is     1004.1 secs

     total energy              =    -934.36919678 Ry
     Harris-Foulkes estimate   =    -934.44852964 Ry
     estimated scf accuracy    <       0.58733120 Ry

     iteration #  9     ecut=    40.00 Ry     beta= 0.60
     Davidson diagonalization with overlap
     ethr =  6.05E-04,  avg # of iterations =  3.2

     total cpu time spent up to now is     1093.5 secs

     total energy              =    -934.38526013 Ry
     Harris-Foulkes estimate   =    -934.40380648 Ry
     estimated scf accuracy    <       0.12370811 Ry

     iteration # 10     ecut=    40.00 Ry     beta= 0.60
     Davidson diagonalization with overlap
     ethr =  1.28E-04,  avg # of iterations =  6.9

     total cpu time spent up to now is     1258.2 secs

     total energy              =    -934.40865031 Ry
     Harris-Foulkes estimate   =    -934.42342963 Ry
     estimated scf accuracy    <       0.16331085 Ry

     iteration # 11     ecut=    40.00 Ry     beta= 0.60
     Davidson diagonalization with overlap
     ethr =  1.28E-04,  avg # of iterations =  1.0

     total cpu time spent up to now is     1335.2 secs

     total energy              =    -934.41330210 Ry
     Harris-Foulkes estimate   =    -934.41484212 Ry
     estimated scf accuracy    <       0.10786539 Ry

     iteration # 12     ecut=    40.00 Ry     beta= 0.60
     Davidson diagonalization with overlap
     ethr =  1.11E-04,  avg # of iterations =  1.0

     total cpu time spent up to now is     1412.8 secs

     total energy              =    -934.39811637 Ry
     Harris-Foulkes estimate   =    -934.41570271 Ry
     estimated scf accuracy    <       0.11487427 Ry

     iteration # 13     ecut=    40.00 Ry     beta= 0.60
     Davidson diagonalization with overlap
     ethr =  1.11E-04,  avg # of iterations =  4.5

     total cpu time spent up to now is     1511.3 secs

     total energy              =    -934.40531202 Ry
     Harris-Foulkes estimate   =    -934.40975356 Ry
     estimated scf accuracy    <       0.02269360 Ry

     iteration # 14     ecut=    40.00 Ry     beta= 0.60
     Davidson diagonalization with overlap
     ethr =  2.34E-05,  avg # of iterations =  6.4

     total cpu time spent up to now is     1671.7 secs

     total energy              =    -934.40393803 Ry
     Harris-Foulkes estimate   =    -934.41682600 Ry
     estimated scf accuracy    <       0.11462547 Ry

     iteration # 15     ecut=    40.00 Ry     beta= 0.60
     Davidson diagonalization with overlap
     ethr =  2.34E-05,  avg # of iterations =  5.0

     total cpu time spent up to now is     1790.8 secs

     total energy              =    -934.40891573 Ry
     Harris-Foulkes estimate   =    -934.41068865 Ry
     estimated scf accuracy    <       0.01178283 Ry

     iteration # 16     ecut=    40.00 Ry     beta= 0.60
     Davidson diagonalization with overlap
     ethr =  1.21E-05,  avg # of iterations =  6.3

     total cpu time spent up to now is     1927.2 secs

     total energy              =    -934.40658856 Ry
     Harris-Foulkes estimate   =    -934.41243829 Ry
     estimated scf accuracy    <       0.04106345 Ry

     iteration # 17     ecut=    40.00 Ry     beta= 0.60
     Davidson diagonalization with overlap
     ethr =  1.21E-05,  avg # of iterations =  5.6

     total cpu time spent up to now is     2060.2 secs

     total energy              =    -934.40866215 Ry
     Harris-Foulkes estimate   =    -934.41157525 Ry
     estimated scf accuracy    <       0.02288544 Ry

     iteration # 18     ecut=    40.00 Ry     beta= 0.60
     Davidson diagonalization with overlap
     ethr =  1.21E-05,  avg # of iterations =  3.0

     total cpu time spent up to now is     2148.1 secs

     total energy              =    -934.40945719 Ry
     Harris-Foulkes estimate   =    -934.40972327 Ry
     estimated scf accuracy    <       0.00206426 Ry

     iteration # 19     ecut=    40.00 Ry     beta= 0.60
     Davidson diagonalization with overlap
     ethr =  2.13E-06,  avg # of iterations =  6.5

     total cpu time spent up to now is     2304.0 secs

     total energy              =    -934.41001204 Ry
     Harris-Foulkes estimate   =    -934.41015458 Ry
     estimated scf accuracy    <       0.00152922 Ry

     iteration # 20     ecut=    40.00 Ry     beta= 0.60
     Davidson diagonalization with overlap
     ethr =  1.58E-06,  avg # of iterations =  1.0

     total cpu time spent up to now is     2381.0 secs

     total energy              =    -934.41000995 Ry
     Harris-Foulkes estimate   =    -934.41005508 Ry
     estimated scf accuracy    <       0.00058119 Ry

     iteration # 21     ecut=    40.00 Ry     beta= 0.60
     Davidson diagonalization with overlap
     ethr =  5.99E-07,  avg # of iterations =  4.0

     total cpu time spent up to now is     2482.7 secs

     total energy              =    -934.41004078 Ry
     Harris-Foulkes estimate   =    -934.41004955 Ry
     estimated scf accuracy    <       0.00011810 Ry

     iteration # 22     ecut=    40.00 Ry     beta= 0.60
     Davidson diagonalization with overlap
     ethr =  1.22E-07,  avg # of iterations =  4.3

     total cpu time spent up to now is     2588.7 secs

     total energy              =    -934.41004636 Ry
     Harris-Foulkes estimate   =    -934.41005481 Ry
     estimated scf accuracy    <       0.00004616 Ry

     iteration # 23     ecut=    40.00 Ry     beta= 0.60
     Davidson diagonalization with overlap
     ethr =  4.76E-08,  avg # of iterations =  4.2

     total cpu time spent up to now is     2697.9 secs

     total energy              =    -934.41005157 Ry
     Harris-Foulkes estimate   =    -934.41005386 Ry
     estimated scf accuracy    <       0.00001332 Ry

     iteration # 24     ecut=    40.00 Ry     beta= 0.60
     Davidson diagonalization with overlap
     ethr =  1.37E-08,  avg # of iterations =  3.9

     total cpu time spent up to now is     2797.5 secs

     total energy              =    -934.41005295 Ry
     Harris-Foulkes estimate   =    -934.41005328 Ry
     estimated scf accuracy    <       0.00000222 Ry

     iteration # 25     ecut=    40.00 Ry     beta= 0.60
     Davidson diagonalization with overlap
     ethr =  2.29E-09,  avg # of iterations =  5.1

     total cpu time spent up to now is     2924.6 secs

     total energy              =    -934.41005305 Ry
     Harris-Foulkes estimate   =    -934.41005368 Ry
     estimated scf accuracy    <       0.00000460 Ry

     iteration # 26     ecut=    40.00 Ry     beta= 0.60
     Davidson diagonalization with overlap
     ethr =  2.29E-09,  avg # of iterations =  4.7

     total cpu time spent up to now is     3044.2 secs

     total energy              =    -934.41005306 Ry
     Harris-Foulkes estimate   =    -934.41005371 Ry
     estimated scf accuracy    <       0.00000649 Ry

     iteration # 27     ecut=    40.00 Ry     beta= 0.60
     Davidson diagonalization with overlap
     ethr =  2.29E-09,  avg # of iterations =  2.5

     total cpu time spent up to now is     3129.4 secs

     total energy              =    -934.41005314 Ry
     Harris-Foulkes estimate   =    -934.41005328 Ry
     estimated scf accuracy    <       0.00000133 Ry

     iteration # 28     ecut=    40.00 Ry     beta= 0.60
     Davidson diagonalization with overlap
     ethr =  1.37E-09,  avg # of iterations =  4.7

     total cpu time spent up to now is     3245.8 secs

     total energy              =    -934.41005334 Ry
     Harris-Foulkes estimate   =    -934.41005339 Ry
     estimated scf accuracy    <       0.00000095 Ry

     iteration # 29     ecut=    40.00 Ry     beta= 0.60
     Davidson diagonalization with overlap
     ethr =  9.75E-10,  avg # of iterations =  1.2

     total cpu time spent up to now is     3323.5 secs

     total energy              =    -934.41005319 Ry
     Harris-Foulkes estimate   =    -934.41005337 Ry
     estimated scf accuracy    <       0.00000065 Ry

     iteration # 30     ecut=    40.00 Ry     beta= 0.60
     Davidson diagonalization with overlap
     ethr =  6.69E-10,  avg # of iterations =  5.5

     total cpu time spent up to now is     3461.1 secs

     total energy              =    -934.41005287 Ry
     Harris-Foulkes estimate   =    -934.41005384 Ry
     estimated scf accuracy    <       0.00000851 Ry

     iteration # 31     ecut=    40.00 Ry     beta= 0.60
     Davidson diagonalization with overlap
     ethr =  6.69E-10,  avg # of iterations =  5.2

     total cpu time spent up to now is     3592.5 secs

     total energy              =    -934.41005333 Ry
     Harris-Foulkes estimate   =    -934.41005334 Ry
     estimated scf accuracy    <       0.00000019 Ry

     iteration # 32     ecut=    40.00 Ry     beta= 0.60
     Davidson diagonalization with overlap
     ethr =  2.00E-10,  avg # of iterations =  1.5

     total cpu time spent up to now is     3671.9 secs

     total energy              =    -934.41005333 Ry
     Harris-Foulkes estimate   =    -934.41005333 Ry
     estimated scf accuracy    <       0.00000004 Ry

     iteration # 33     ecut=    40.00 Ry     beta= 0.60
     Davidson diagonalization with overlap
     ethr =  3.79E-11,  avg # of iterations =  5.1

     total cpu time spent up to now is     3796.7 secs

     total energy              =    -934.41005334 Ry
     Harris-Foulkes estimate   =    -934.41005334 Ry
     estimated scf accuracy    <       0.00000003 Ry

     iteration # 34     ecut=    40.00 Ry     beta= 0.60
     Davidson diagonalization with overlap
     ethr =  2.94E-11,  avg # of iterations =  1.0

     total cpu time spent up to now is     3873.6 secs

     total energy              =    -934.41005334 Ry
     Harris-Foulkes estimate   =    -934.41005334 Ry
     estimated scf accuracy    <       0.00000001 Ry

     iteration # 35     ecut=    40.00 Ry     beta= 0.60
     Davidson diagonalization with overlap
     ethr =  1.05E-11,  avg # of iterations =  3.6

     total cpu time spent up to now is     3965.2 secs

     total energy              =    -934.41005334 Ry
     Harris-Foulkes estimate   =    -934.41005334 Ry
     estimated scf accuracy    <          4.5E-09 Ry

     iteration # 36     ecut=    40.00 Ry     beta= 0.60
     Davidson diagonalization with overlap
     ethr =  4.67E-12,  avg # of iterations =  4.3

     total cpu time spent up to now is     4066.5 secs

     total energy              =    -934.41005334 Ry
     Harris-Foulkes estimate   =    -934.41005334 Ry
     estimated scf accuracy    <          1.2E-09 Ry

     iteration # 37     ecut=    40.00 Ry     beta= 0.60
     Davidson diagonalization with overlap
     ethr =  1.20E-12,  avg # of iterations =  4.4

     total cpu time spent up to now is     4176.3 secs

     total energy              =    -934.41005334 Ry
     Harris-Foulkes estimate   =    -934.41005334 Ry
     estimated scf accuracy    <          2.9E-10 Ry

     iteration # 38     ecut=    40.00 Ry     beta= 0.60
     Davidson diagonalization with overlap
     ethr =  2.96E-13,  avg # of iterations =  4.7

     total cpu time spent up to now is     4294.1 secs

     total energy              =    -934.41005334 Ry
     Harris-Foulkes estimate   =    -934.41005334 Ry
     estimated scf accuracy    <          4.8E-10 Ry

     iteration # 39     ecut=    40.00 Ry     beta= 0.60
     Davidson diagonalization with overlap
     ethr =  2.96E-13,  avg # of iterations =  1.0

     total cpu time spent up to now is     4371.1 secs

     End of self-consistent calculation

     Number of k-points >= 100: set verbosity='high' to print the bands.

     the Fermi energy is    11.9285 ev

!    total energy              =    -934.41005334 Ry
     Harris-Foulkes estimate   =    -934.41005334 Ry
     estimated scf accuracy    <          8.5E-11 Ry

     The total energy is the sum of the following terms:

     one-electron contribution =    -352.79342618 Ry
     hartree contribution      =     200.48387281 Ry
     xc contribution           =    -119.27508995 Ry
     ewald contribution        =    -662.82246169 Ry
     smearing contrib. (-TS)   =      -0.00294833 Ry

     convergence has been achieved in  39 iterations

     Forces acting on atoms (cartesian axes, Ry/au):

     atom    1 type  2   force =    -0.00077902    0.00046982    0.00226494
     atom    2 type  2   force =     0.00042860    0.00065508   -0.00057547
     atom    3 type  2   force =     0.00097440   -0.00051426   -0.00078748
     atom    4 type  2   force =    -0.00042578    0.00065379    0.00057559
     atom    5 type  2   force =     0.00079612    0.00046919   -0.00226170
     atom    6 type  2   force =    -0.00000575   -0.00111395   -0.00000035
     atom    7 type  2   force =    -0.00098955   -0.00051378    0.00078397
     atom    8 type  1   force =     0.00000097   -0.00010588    0.00000050

     Total force =     0.004331     Total SCF correction =     0.000008


     Computing stress (Cartesian axis) and pressure

          total   stress  (Ry/bohr**3)                   (kbar)     P= -134.51
  -0.00087201   0.00000000  -0.00000080       -128.28      0.00     -0.12
   0.00000000  -0.00087685   0.00000000          0.00   -128.99      0.00
  -0.00000080   0.00000000  -0.00099427         -0.12      0.00   -146.26


     BFGS Geometry Optimization

     number of scf cycles    =   1
     number of bfgs steps    =   0

     enthalpy new            =    -934.4100533362 Ry

     new trust radius        =       0.1632077315 bohr
     new conv_thr            =            1.0E-10 Ry

     new unit-cell volume =   1005.55101 a.u.^3 (   149.00728 Ang^3 )
     density =      4.76936 g/cm^3

CELL_PARAMETERS (alat=  1.88972599)
   1.489410509   2.579243601  -4.848892423
   1.489410452  -2.579243801  -4.848892546
  -5.957244106  -0.000000066   0.000121806

ATOMIC_POSITIONS (angstrom)
Ti      -0.000303821   0.000243050  -4.847693261
Ti      -1.489037936   0.860086021  -2.424697504
Ti      -2.978018199  -0.000266320  -4.849207497
Ti      -4.468102261   0.860085319  -2.424042619
Ti      -2.978011016   0.000242578  -9.698830264
Ti       1.489458730   0.859170326  -7.273323661
Ti      -0.000313331  -0.000266151  -9.697319507
Nb      -1.489159842   0.859692048  -7.273262321


     NEW-OLD atomic charge density approx. for the potential
     extrapolated charge   90.53457, renormalised to   97.00000

     total cpu time spent up to now is     4414.0 secs

     Self-consistent Calculation

     iteration #  1     ecut=    40.00 Ry     beta= 0.60
     Davidson diagonalization with overlap
     c_bands:  1 eigenvalues not converged
     c_bands:  2 eigenvalues not converged
     c_bands:  1 eigenvalues not converged
     c_bands:  1 eigenvalues not converged
     c_bands:  1 eigenvalues not converged
     c_bands:  1 eigenvalues not converged
     c_bands:  1 eigenvalues not converged
     c_bands:  1 eigenvalues not converged
     c_bands:  2 eigenvalues not converged
     c_bands:  1 eigenvalues not converged
     c_bands:  1 eigenvalues not converged
     c_bands:  1 eigenvalues not converged
     c_bands:  1 eigenvalues not converged
     c_bands:  1 eigenvalues not converged
     c_bands:  2 eigenvalues not converged
     c_bands:  1 eigenvalues not converged
     c_bands:  1 eigenvalues not converged
     c_bands:  1 eigenvalues not converged
     c_bands:  1 eigenvalues not converged
     c_bands:  1 eigenvalues not converged
     c_bands:  1 eigenvalues not converged
     c_bands:  1 eigenvalues not converged
     c_bands:  1 eigenvalues not converged
     c_bands:  1 eigenvalues not converged
     ethr =  1.00E-06,  avg # of iterations = 14.9

     total cpu time spent up to now is     4764.4 secs

     total energy              =    -927.05372976 Ry
     Harris-Foulkes estimate   =    -951.27467331 Ry
     estimated scf accuracy    <       7.32438802 Ry

     iteration #  2     ecut=    40.00 Ry     beta= 0.60
     Davidson diagonalization with overlap
     ethr =  7.55E-03,  avg # of iterations =  4.3

     total cpu time spent up to now is     4928.2 secs

     total energy              =    -932.24228602 Ry
     Harris-Foulkes estimate   =    -943.31026087 Ry
     estimated scf accuracy    <      37.07764007 Ry

     iteration #  3     ecut=    40.00 Ry     beta= 0.60
     Davidson diagonalization with overlap
     ethr =  7.55E-03,  avg # of iterations =  3.0

     total cpu time spent up to now is     5032.6 secs

     total energy              =    -934.30235993 Ry
     Harris-Foulkes estimate   =    -936.05387576 Ry
     estimated scf accuracy    <       6.07850082 Ry

     iteration #  4     ecut=    40.00 Ry     beta= 0.60
     Davidson diagonalization with overlap
     ethr =  6.27E-03,  avg # of iterations =  2.9

     total cpu time spent up to now is     5126.2 secs

     total energy              =    -934.73912691 Ry
     Harris-Foulkes estimate   =    -935.21815030 Ry
     estimated scf accuracy    <       4.22044696 Ry

     iteration #  5     ecut=    40.00 Ry     beta= 0.60
     Davidson diagonalization with overlap
     ethr =  4.35E-03,  avg # of iterations =  1.0

     total cpu time spent up to now is     5203.3 secs

     total energy              =    -934.68857032 Ry
     Harris-Foulkes estimate   =    -934.86276332 Ry
     estimated scf accuracy    <       2.33461342 Ry

     iteration #  6     ecut=    40.00 Ry     beta= 0.60
     Davidson diagonalization with overlap
     ethr =  2.41E-03,  avg # of iterations =  1.0

     total cpu time spent up to now is     5280.3 secs

     total energy              =    -934.63100429 Ry
     Harris-Foulkes estimate   =    -934.72067250 Ry
     estimated scf accuracy    <       1.58862725 Ry

     iteration #  7     ecut=    40.00 Ry     beta= 0.60
     Davidson diagonalization with overlap
     ethr =  1.64E-03,  avg # of iterations =  1.0

     total cpu time spent up to now is     5357.2 secs

     total energy              =    -934.52901830 Ry
     Harris-Foulkes estimate   =    -934.64828143 Ry
     estimated scf accuracy    <       1.17434655 Ry

     iteration #  8     ecut=    40.00 Ry     beta= 0.60
     Davidson diagonalization with overlap
     ethr =  1.21E-03,  avg # of iterations =  1.2

     total cpu time spent up to now is     5434.9 secs

     total energy              =    -934.51005330 Ry
     Harris-Foulkes estimate   =    -934.55209501 Ry
     estimated scf accuracy    <       0.64769624 Ry

     iteration #  9     ecut=    40.00 Ry     beta= 0.60
     Davidson diagonalization with overlap
     ethr =  6.68E-04,  avg # of iterations =  2.5

     total cpu time spent up to now is     5519.5 secs

     total energy              =    -934.48999169 Ry
     Harris-Foulkes estimate   =    -934.52343522 Ry
     estimated scf accuracy    <       0.46251126 Ry

     iteration # 10     ecut=    40.00 Ry     beta= 0.60
     Davidson diagonalization with overlap
     ethr =  4.77E-04,  avg # of iterations =  1.9

     total cpu time spent up to now is     5600.5 secs

     total energy              =    -934.36845308 Ry
     Harris-Foulkes estimate   =    -934.49902257 Ry
     estimated scf accuracy    <       0.31512221 Ry

     iteration # 11     ecut=    40.00 Ry     beta= 0.60
     Davidson diagonalization with overlap
     ethr =  3.25E-04,  avg # of iterations =  5.8

     total cpu time spent up to now is     5740.2 secs

     total energy              =    -934.45898286 Ry
     Harris-Foulkes estimate   =    -934.47039422 Ry
     estimated scf accuracy    <       0.08777648 Ry

     iteration # 12     ecut=    40.00 Ry     beta= 0.60
     Davidson diagonalization with overlap
     ethr =  9.05E-05,  avg # of iterations =  2.7

     total cpu time spent up to now is     5826.0 secs

     total energy              =    -934.46261807 Ry
     Harris-Foulkes estimate   =    -934.46237846 Ry
     estimated scf accuracy    <       0.02954966 Ry

     iteration # 13     ecut=    40.00 Ry     beta= 0.60
     Davidson diagonalization with overlap
     c_bands:  3 eigenvalues not converged
     c_bands:  1 eigenvalues not converged
     c_bands:  2 eigenvalues not converged
     c_bands:  3 eigenvalues not converged
     c_bands:  2 eigenvalues not converged
     ethr =  3.05E-05,  avg # of iterations =  5.8

     total cpu time spent up to now is     5930.1 secs

     total energy              =    -934.46780101 Ry
     Harris-Foulkes estimate   =    -934.46342872 Ry
     estimated scf accuracy    <       0.02905237 Ry

     iteration # 14     ecut=    40.00 Ry     beta= 0.60
     Davidson diagonalization with overlap
     ethr =  3.00E-05,  avg # of iterations =  1.6

     total cpu time spent up to now is     6010.2 secs

     total energy              =    -934.46149540 Ry
     Harris-Foulkes estimate   =    -934.46889052 Ry
     estimated scf accuracy    <       0.06139734 Ry

     iteration # 15     ecut=    40.00 Ry     beta= 0.60
     Davidson diagonalization with overlap
     c_bands:  1 eigenvalues not converged
     c_bands:  1 eigenvalues not converged
     ethr =  3.00E-05,  avg # of iterations =  2.7

     total cpu time spent up to now is     6096.1 secs

     total energy              =    -934.46139743 Ry
     Harris-Foulkes estimate   =    -934.46317918 Ry
     estimated scf accuracy    <       0.01830836 Ry

     iteration # 16     ecut=    40.00 Ry     beta= 0.60
     Davidson diagonalization with overlap
     c_bands:  1 eigenvalues not converged
     c_bands:  2 eigenvalues not converged
     c_bands:  1 eigenvalues not converged
     c_bands:  1 eigenvalues not converged
     c_bands:  1 eigenvalues not converged
     c_bands:  2 eigenvalues not converged
     c_bands:  1 eigenvalues not converged
     ethr =  1.89E-05,  avg # of iterations =  4.3

     total cpu time spent up to now is     6193.4 secs

     total energy              =    -934.46163437 Ry
     Harris-Foulkes estimate   =    -934.46247040 Ry
     estimated scf accuracy    <       0.00790958 Ry

     iteration # 17     ecut=    40.00 Ry     beta= 0.60
     Davidson diagonalization with overlap
     c_bands:  1 eigenvalues not converged
     c_bands:  1 eigenvalues not converged
     c_bands:  1 eigenvalues not converged
     c_bands:  1 eigenvalues not converged
     ethr =  8.15E-06,  avg # of iterations =  7.5

     total cpu time spent up to now is     6327.0 secs

     total energy              =    -934.46207851 Ry
     Harris-Foulkes estimate   =    -934.46255928 Ry
     estimated scf accuracy    <       0.00238178 Ry

     iteration # 18     ecut=    40.00 Ry     beta= 0.60
     Davidson diagonalization with overlap
     c_bands:  1 eigenvalues not converged
     ethr =  2.46E-06,  avg # of iterations =  6.4

     total cpu time spent up to now is     6465.4 secs

     total energy              =    -934.46242755 Ry
     Harris-Foulkes estimate   =    -934.46258485 Ry
     estimated scf accuracy    <       0.00155206 Ry

     iteration # 19     ecut=    40.00 Ry     beta= 0.60
     Davidson diagonalization with overlap
     ethr =  1.60E-06,  avg # of iterations =  1.0

     total cpu time spent up to now is     6542.5 secs

     total energy              =    -934.46230875 Ry
     Harris-Foulkes estimate   =    -934.46248919 Ry
     estimated scf accuracy    <       0.00070132 Ry

     iteration # 20     ecut=    40.00 Ry     beta= 0.60
     Davidson diagonalization with overlap
     ethr =  7.23E-07,  avg # of iterations =  4.3

     total cpu time spent up to now is     6658.3 secs

     total energy              =    -934.46241625 Ry
     Harris-Foulkes estimate   =    -934.46249659 Ry
     estimated scf accuracy    <       0.00054071 Ry

     iteration # 21     ecut=    40.00 Ry     beta= 0.60
     Davidson diagonalization with overlap
     ethr =  5.57E-07,  avg # of iterations =  2.5

     total cpu time spent up to now is     6742.6 secs

     total energy              =    -934.46242828 Ry
     Harris-Foulkes estimate   =    -934.46246466 Ry
     estimated scf accuracy    <       0.00025399 Ry

     iteration # 22     ecut=    40.00 Ry     beta= 0.60
     Davidson diagonalization with overlap
     ethr =  2.62E-07,  avg # of iterations =  3.5

     total cpu time spent up to now is     6837.7 secs

     total energy              =    -934.46244428 Ry
     Harris-Foulkes estimate   =    -934.46245464 Ry
     estimated scf accuracy    <       0.00005035 Ry

     iteration # 23     ecut=    40.00 Ry     beta= 0.60
     Davidson diagonalization with overlap
     ethr =  5.19E-08,  avg # of iterations =  5.0

     total cpu time spent up to now is     6965.3 secs

     total energy              =    -934.46244598 Ry
     Harris-Foulkes estimate   =    -934.46246750 Ry
     estimated scf accuracy    <       0.00018829 Ry

     iteration # 24     ecut=    40.00 Ry     beta= 0.60
     Davidson diagonalization with overlap
     ethr =  5.19E-08,  avg # of iterations =  4.1

     total cpu time spent up to now is     7061.3 secs

     total energy              =    -934.46245258 Ry
     Harris-Foulkes estimate   =    -934.46245459 Ry
     estimated scf accuracy    <       0.00001351 Ry

     iteration # 25     ecut=    40.00 Ry     beta= 0.60
     Davidson diagonalization with overlap
     ethr =  1.39E-08,  avg # of iterations =  4.8

     total cpu time spent up to now is     7183.9 secs

     total energy              =    -934.46245568 Ry
     Harris-Foulkes estimate   =    -934.46245675 Ry
     estimated scf accuracy    <       0.00000789 Ry

     iteration # 26     ecut=    40.00 Ry     beta= 0.60
     Davidson diagonalization with overlap
     ethr =  8.13E-09,  avg # of iterations =  4.6

     total cpu time spent up to now is     7294.2 secs

     total energy              =    -934.46245499 Ry
     Harris-Foulkes estimate   =    -934.46245760 Ry
     estimated scf accuracy    <       0.00002245 Ry

     iteration # 27     ecut=    40.00 Ry     beta= 0.60
     Davidson diagonalization with overlap
     ethr =  8.13E-09,  avg # of iterations =  4.1

     total cpu time spent up to now is     7389.2 secs

     total energy              =    -934.46245591 Ry
     Harris-Foulkes estimate   =    -934.46245608 Ry
     estimated scf accuracy    <       0.00000183 Ry

     iteration # 28     ecut=    40.00 Ry     beta= 0.60
     Davidson diagonalization with overlap
     ethr =  1.89E-09,  avg # of iterations =  4.7

     total cpu time spent up to now is     7506.5 secs

     total energy              =    -934.46245619 Ry
     Harris-Foulkes estimate   =    -934.46245632 Ry
     estimated scf accuracy    <       0.00000095 Ry

     iteration # 29     ecut=    40.00 Ry     beta= 0.60
     Davidson diagonalization with overlap
     ethr =  9.77E-10,  avg # of iterations =  2.2

     total cpu time spent up to now is     7589.1 secs

     total energy              =    -934.46245625 Ry
     Harris-Foulkes estimate   =    -934.46245626 Ry
     estimated scf accuracy    <       0.00000017 Ry

     iteration # 30     ecut=    40.00 Ry     beta= 0.60
     Davidson diagonalization with overlap
     ethr =  1.76E-10,  avg # of iterations =  4.8

     total cpu time spent up to now is     7710.9 secs

     total energy              =    -934.46245627 Ry
     Harris-Foulkes estimate   =    -934.46245628 Ry
     estimated scf accuracy    <       0.00000014 Ry

     iteration # 31     ecut=    40.00 Ry     beta= 0.60
     Davidson diagonalization with overlap
     ethr =  1.45E-10,  avg # of iterations =  1.0

     total cpu time spent up to now is     7787.8 secs

     total energy              =    -934.46245627 Ry
     Harris-Foulkes estimate   =    -934.46245627 Ry
     estimated scf accuracy    <       0.00000003 Ry

     iteration # 32     ecut=    40.00 Ry     beta= 0.60
     Davidson diagonalization with overlap
     ethr =  3.60E-11,  avg # of iterations =  4.3

     total cpu time spent up to now is     7894.9 secs

     total energy              =    -934.46245627 Ry
     Harris-Foulkes estimate   =    -934.46245627 Ry
     estimated scf accuracy    <          7.6E-09 Ry

     iteration # 33     ecut=    40.00 Ry     beta= 0.60
     Davidson diagonalization with overlap
     ethr =  7.80E-12,  avg # of iterations =  3.9

     total cpu time spent up to now is     7999.7 secs

     total energy              =    -934.46245627 Ry
     Harris-Foulkes estimate   =    -934.46245627 Ry
     estimated scf accuracy    <          1.8E-09 Ry

     iteration # 34     ecut=    40.00 Ry     beta= 0.60
     Davidson diagonalization with overlap
     ethr =  1.90E-12,  avg # of iterations =  4.8

     total cpu time spent up to now is     8123.2 secs

     total energy              =    -934.46245627 Ry
     Harris-Foulkes estimate   =    -934.46245627 Ry
     estimated scf accuracy    <          3.7E-09 Ry

     iteration # 35     ecut=    40.00 Ry     beta= 0.60
     Davidson diagonalization with overlap
     ethr =  1.90E-12,  avg # of iterations =  4.3

     total cpu time spent up to now is     8227.8 secs

     total energy              =    -934.46245627 Ry
     Harris-Foulkes estimate   =    -934.46245627 Ry
     estimated scf accuracy    <          6.2E-10 Ry

     iteration # 36     ecut=    40.00 Ry     beta= 0.60
     Davidson diagonalization with overlap
     ethr =  6.42E-13,  avg # of iterations =  3.7

     total cpu time spent up to now is     8326.0 secs

     End of self-consistent calculation

     Number of k-points >= 100: set verbosity='high' to print the bands.

     the Fermi energy is    12.9771 ev

!    total energy              =    -934.46245627 Ry
     Harris-Foulkes estimate   =    -934.46245627 Ry
     estimated scf accuracy    <          8.3E-11 Ry

     The total energy is the sum of the following terms:

     one-electron contribution =    -329.52312195 Ry
     hartree contribution      =     193.07206044 Ry
     xc contribution           =    -119.67962860 Ry
     ewald contribution        =    -678.32803189 Ry
     smearing contrib. (-TS)   =      -0.00373427 Ry

     convergence has been achieved in  36 iterations

     Forces acting on atoms (cartesian axes, Ry/au):

     atom    1 type  2   force =     0.00008192   -0.00007248    0.00354038
     atom    2 type  2   force =     0.00169121    0.00085810   -0.00039246
     atom    3 type  2   force =     0.00014505    0.00007470   -0.00075919
     atom    4 type  2   force =    -0.00168524    0.00085802    0.00039329
     atom    5 type  2   force =    -0.00004925   -0.00007352   -0.00353044
     atom    6 type  2   force =    -0.00001681   -0.00152988   -0.00000466
     atom    7 type  2   force =    -0.00016817    0.00007483    0.00075237
     atom    8 type  1   force =     0.00000128   -0.00018976    0.00000071

     Total force =     0.006007     Total SCF correction =     0.000014


     Computing stress (Cartesian axis) and pressure

          total   stress  (Ry/bohr**3)                   (kbar)     P=  -74.51
  -0.00047001  -0.00000000  -0.00000085        -69.14     -0.00     -0.12
  -0.00000000  -0.00047371  -0.00000000         -0.00    -69.68     -0.00
  -0.00000085  -0.00000000  -0.00057587         -0.12     -0.00    -84.71


     number of scf cycles    =   2
     number of bfgs steps    =   1

     enthalpy old            =    -934.4100533362 Ry
     enthalpy new            =    -934.4624562744 Ry

     CASE: enthalpy_new < enthalpy_old

     new trust radius        =       0.1912034981 bohr
     new conv_thr            =            1.0E-10 Ry

     new unit-cell volume =    927.92696 a.u.^3 (   137.50459 Ang^3 )
     density =      5.16834 g/cm^3

CELL_PARAMETERS (alat=  1.88972599)
   1.453203873   2.515651268  -4.702774087
   1.453203880  -2.515650994  -4.702773941
  -5.811546736   0.000000009   0.000388329

ATOMIC_POSITIONS (angstrom)
Ti       0.000008463   0.000161771  -4.697861230
Ti      -1.450730720   0.839783386  -2.351938209
Ti      -2.904810072  -0.000181665  -4.703666936
Ti      -4.360488215   0.839782644  -2.350349518
Ti      -2.904787224   0.000160506  -9.409963451
Ti       1.453343332   0.836377414  -7.054117519
Ti      -0.000043702  -0.000181143  -9.404178537
Nb      -1.452407599   0.838296649  -7.053917355


     NEW-OLD atomic charge density approx. for the potential
     extrapolated charge   89.47147, renormalised to   97.00000

     total cpu time spent up to now is     8369.0 secs

     Self-consistent Calculation

     iteration #  1     ecut=    40.00 Ry     beta= 0.60
     Davidson diagonalization with overlap
     c_bands:  1 eigenvalues not converged
     c_bands:  1 eigenvalues not converged
     c_bands:  1 eigenvalues not converged
     c_bands:  1 eigenvalues not converged
     c_bands:  1 eigenvalues not converged
     c_bands:  1 eigenvalues not converged
     c_bands:  1 eigenvalues not converged
     c_bands:  1 eigenvalues not converged
     c_bands:  1 eigenvalues not converged
     c_bands:  1 eigenvalues not converged
     c_bands:  1 eigenvalues not converged
     c_bands:  1 eigenvalues not converged
     c_bands:  2 eigenvalues not converged
     c_bands:  1 eigenvalues not converged
     c_bands:  1 eigenvalues not converged
     c_bands:  1 eigenvalues not converged
     ethr =  1.00E-06,  avg # of iterations = 14.5

     total cpu time spent up to now is     8714.0 secs

     total energy              =    -925.63661185 Ry
     Harris-Foulkes estimate   =    -952.70874449 Ry
     estimated scf accuracy    <       8.66815967 Ry

     iteration #  2     ecut=    40.00 Ry     beta= 0.60
     Davidson diagonalization with overlap
     ethr =  8.94E-03,  avg # of iterations =  4.1

     total cpu time spent up to now is     8883.5 secs

     total energy              =    -932.12062000 Ry
     Harris-Foulkes estimate   =    -944.24891279 Ry
     estimated scf accuracy    <      39.04555742 Ry

     iteration #  3     ecut=    40.00 Ry     beta= 0.60
     Davidson diagonalization with overlap
     ethr =  8.94E-03,  avg # of iterations =  3.0

     total cpu time spent up to now is     8987.9 secs

     total energy              =    -934.35680137 Ry
     Harris-Foulkes estimate   =    -936.19678933 Ry
     estimated scf accuracy    <       6.32093867 Ry

     iteration #  4     ecut=    40.00 Ry     beta= 0.60
     Davidson diagonalization with overlap
     ethr =  6.52E-03,  avg # of iterations =  2.7

     total cpu time spent up to now is     9080.9 secs

     total energy              =    -934.79925215 Ry
     Harris-Foulkes estimate   =    -935.32338680 Ry
     estimated scf accuracy    <       4.43972707 Ry

     iteration #  5     ecut=    40.00 Ry     beta= 0.60
     Davidson diagonalization with overlap
     ethr =  4.58E-03,  avg # of iterations =  1.0

     total cpu time spent up to now is     9157.9 secs

     total energy              =    -934.73312702 Ry
     Harris-Foulkes estimate   =    -934.92851376 Ry
     estimated scf accuracy    <       2.42967854 Ry

     iteration #  6     ecut=    40.00 Ry     beta= 0.60
     Davidson diagonalization with overlap
     ethr =  2.50E-03,  avg # of iterations =  1.0

     total cpu time spent up to now is     9234.8 secs

     total energy              =    -934.63417293 Ry
     Harris-Foulkes estimate   =    -934.76747668 Ry
     estimated scf accuracy    <       1.62962238 Ry

     iteration #  7     ecut=    40.00 Ry     beta= 0.60
     Davidson diagonalization with overlap
     ethr =  1.68E-03,  avg # of iterations =  1.0

     total cpu time spent up to now is     9312.0 secs

     total energy              =    -934.53167566 Ry
     Harris-Foulkes estimate   =    -934.65677807 Ry
     estimated scf accuracy    <       1.06814572 Ry

     iteration #  8     ecut=    40.00 Ry     beta= 0.60
     Davidson diagonalization with overlap
     ethr =  1.10E-03,  avg # of iterations =  1.9

     total cpu time spent up to now is     9393.3 secs

     total energy              =    -934.50773231 Ry
     Harris-Foulkes estimate   =    -934.55876848 Ry
     estimated scf accuracy    <       0.54415850 Ry

     iteration #  9     ecut=    40.00 Ry     beta= 0.60
     Davidson diagonalization with overlap
     ethr =  5.61E-04,  avg # of iterations =  3.6

     total cpu time spent up to now is     9484.5 secs

     total energy              =    -934.50643773 Ry
     Harris-Foulkes estimate   =    -934.52450229 Ry
     estimated scf accuracy    <       0.33466409 Ry

     iteration # 10     ecut=    40.00 Ry     beta= 0.60
     Davidson diagonalization with overlap
     ethr =  3.45E-04,  avg # of iterations =  2.4

     total cpu time spent up to now is     9568.6 secs

     total energy              =    -934.40218087 Ry
     Harris-Foulkes estimate   =    -934.51420019 Ry
     estimated scf accuracy    <       0.24861160 Ry

     iteration # 11     ecut=    40.00 Ry     beta= 0.60
     Davidson diagonalization with overlap
     ethr =  2.56E-04,  avg # of iterations =  6.2

     total cpu time spent up to now is     9712.9 secs

     total energy              =    -934.47526832 Ry
     Harris-Foulkes estimate   =    -934.48770103 Ry
     estimated scf accuracy    <       0.08176788 Ry

     iteration # 12     ecut=    40.00 Ry     beta= 0.60
     Davidson diagonalization with overlap
     ethr =  8.43E-05,  avg # of iterations =  2.3

     total cpu time spent up to now is     9796.2 secs

     total energy              =    -934.47331691 Ry
     Harris-Foulkes estimate   =    -934.47877199 Ry
     estimated scf accuracy    <       0.02279570 Ry

     iteration # 13     ecut=    40.00 Ry     beta= 0.60
     Davidson diagonalization with overlap
     ethr =  2.35E-05,  avg # of iterations =  6.7

     total cpu time spent up to now is     9942.1 secs

     total energy              =    -934.47905029 Ry
     Harris-Foulkes estimate   =    -934.48062070 Ry
     estimated scf accuracy    <       0.01193829 Ry

     iteration # 14     ecut=    40.00 Ry     beta= 0.60
     Davidson diagonalization with overlap
     ethr =  1.23E-05,  avg # of iterations =  1.1

     total cpu time spent up to now is    10019.6 secs

     total energy              =    -934.47923541 Ry
     Harris-Foulkes estimate   =    -934.47951562 Ry
     estimated scf accuracy    <       0.00324250 Ry

     iteration # 15     ecut=    40.00 Ry     beta= 0.60
     Davidson diagonalization with overlap
     c_bands:  1 eigenvalues not converged
     c_bands:  1 eigenvalues not converged
     c_bands:  1 eigenvalues not converged
     ethr =  3.34E-06,  avg # of iterations =  5.7

     total cpu time spent up to now is    10132.8 secs

     total energy              =    -934.47942329 Ry
     Harris-Foulkes estimate   =    -934.47951937 Ry
     estimated scf accuracy    <       0.00034031 Ry

     iteration # 16     ecut=    40.00 Ry     beta= 0.60
     Davidson diagonalization with overlap
     ethr =  3.51E-07,  avg # of iterations =  6.3

     total cpu time spent up to now is    10275.2 secs

     total energy              =    -934.47946695 Ry
     Harris-Foulkes estimate   =    -934.47958735 Ry
     estimated scf accuracy    <       0.00087267 Ry

     iteration # 17     ecut=    40.00 Ry     beta= 0.60
     Davidson diagonalization with overlap
     ethr =  3.51E-07,  avg # of iterations =  4.0

     total cpu time spent up to now is    10371.1 secs

     total energy              =    -934.47951077 Ry
     Harris-Foulkes estimate   =    -934.47951601 Ry
     estimated scf accuracy    <       0.00004033 Ry

     iteration # 18     ecut=    40.00 Ry     beta= 0.60
     Davidson diagonalization with overlap
     ethr =  4.16E-08,  avg # of iterations =  5.4

     total cpu time spent up to now is    10504.8 secs

     total energy              =    -934.47952624 Ry
     Harris-Foulkes estimate   =    -934.47953418 Ry
     estimated scf accuracy    <       0.00006989 Ry

     iteration # 19     ecut=    40.00 Ry     beta= 0.60
     Davidson diagonalization with overlap
     ethr =  4.16E-08,  avg # of iterations =  4.2

     total cpu time spent up to now is    10609.0 secs

     total energy              =    -934.47952681 Ry
     Harris-Foulkes estimate   =    -934.47953477 Ry
     estimated scf accuracy    <       0.00008690 Ry

     iteration # 20     ecut=    40.00 Ry     beta= 0.60
     Davidson diagonalization with overlap
     ethr =  4.16E-08,  avg # of iterations =  1.5

     total cpu time spent up to now is    10690.5 secs

     total energy              =    -934.47952705 Ry
     Harris-Foulkes estimate   =    -934.47953040 Ry
     estimated scf accuracy    <       0.00003487 Ry

     iteration # 21     ecut=    40.00 Ry     beta= 0.60
     Davidson diagonalization with overlap
     ethr =  3.59E-08,  avg # of iterations =  2.8

     total cpu time spent up to now is    10776.8 secs

     total energy              =    -934.47952721 Ry
     Harris-Foulkes estimate   =    -934.47952835 Ry
     estimated scf accuracy    <       0.00001119 Ry

     iteration # 22     ecut=    40.00 Ry     beta= 0.60
     Davidson diagonalization with overlap
     ethr =  1.15E-08,  avg # of iterations =  4.4

     total cpu time spent up to now is    10889.0 secs

     total energy              =    -934.47952854 Ry
     Harris-Foulkes estimate   =    -934.47952879 Ry
     estimated scf accuracy    <       0.00000181 Ry

     iteration # 23     ecut=    40.00 Ry     beta= 0.60
     Davidson diagonalization with overlap
     ethr =  1.86E-09,  avg # of iterations =  4.4

     total cpu time spent up to now is    11001.8 secs

     total energy              =    -934.47952858 Ry
     Harris-Foulkes estimate   =    -934.47952891 Ry
     estimated scf accuracy    <       0.00000258 Ry

     iteration # 24     ecut=    40.00 Ry     beta= 0.60
     Davidson diagonalization with overlap
     ethr =  1.86E-09,  avg # of iterations =  1.2

     total cpu time spent up to now is    11079.9 secs

     total energy              =    -934.47952865 Ry
     Harris-Foulkes estimate   =    -934.47952870 Ry
     estimated scf accuracy    <       0.00000052 Ry

     iteration # 25     ecut=    40.00 Ry     beta= 0.60
     Davidson diagonalization with overlap
     ethr =  5.39E-10,  avg # of iterations =  4.4

     total cpu time spent up to now is    11194.7 secs

     total energy              =    -934.47952872 Ry
     Harris-Foulkes estimate   =    -934.47952874 Ry
     estimated scf accuracy    <       0.00000015 Ry

     iteration # 26     ecut=    40.00 Ry     beta= 0.60
     Davidson diagonalization with overlap
     ethr =  1.51E-10,  avg # of iterations =  1.4

     total cpu time spent up to now is    11273.7 secs

     total energy              =    -934.47952872 Ry
     Harris-Foulkes estimate   =    -934.47952873 Ry
     estimated scf accuracy    <       0.00000004 Ry

     iteration # 27     ecut=    40.00 Ry     beta= 0.60
     Davidson diagonalization with overlap
     ethr =  4.52E-11,  avg # of iterations =  4.2

     total cpu time spent up to now is    11387.8 secs

     total energy              =    -934.47952873 Ry
     Harris-Foulkes estimate   =    -934.47952873 Ry
     estimated scf accuracy    <       0.00000002 Ry

     iteration # 28     ecut=    40.00 Ry     beta= 0.60
     Davidson diagonalization with overlap
     ethr =  2.16E-11,  avg # of iterations =  1.5

     total cpu time spent up to now is    11467.0 secs

     total energy              =    -934.47952873 Ry
     Harris-Foulkes estimate   =    -934.47952873 Ry
     estimated scf accuracy    <          6.0E-09 Ry

     iteration # 29     ecut=    40.00 Ry     beta= 0.60
     Davidson diagonalization with overlap
     ethr =  6.14E-12,  avg # of iterations =  4.1

     total cpu time spent up to now is    11575.3 secs

     total energy              =    -934.47952873 Ry
     Harris-Foulkes estimate   =    -934.47952873 Ry
     estimated scf accuracy    <          9.9E-10 Ry

     iteration # 30     ecut=    40.00 Ry     beta= 0.60
     Davidson diagonalization with overlap
     ethr =  1.02E-12,  avg # of iterations =  3.9

     total cpu time spent up to now is    11679.9 secs

     total energy              =    -934.47952873 Ry
     Harris-Foulkes estimate   =    -934.47952873 Ry
     estimated scf accuracy    <          5.5E-10 Ry

     iteration # 31     ecut=    40.00 Ry     beta= 0.60
     Davidson diagonalization with overlap
     ethr =  5.66E-13,  avg # of iterations =  2.1

     total cpu time spent up to now is    11762.5 secs

     total energy              =    -934.47952873 Ry
     Harris-Foulkes estimate   =    -934.47952873 Ry
     estimated scf accuracy    <          1.5E-10 Ry

     iteration # 32     ecut=    40.00 Ry     beta= 0.60
     Davidson diagonalization with overlap
     ethr =  1.59E-13,  avg # of iterations =  4.3

     total cpu time spent up to now is    11876.6 secs

     End of self-consistent calculation

     Number of k-points >= 100: set verbosity='high' to print the bands.

     the Fermi energy is    14.2749 ev

!    total energy              =    -934.47952873 Ry
     Harris-Foulkes estimate   =    -934.47952873 Ry
     estimated scf accuracy    <          6.1E-11 Ry

     The total energy is the sum of the following terms:

     one-electron contribution =    -302.14203112 Ry
     hartree contribution      =     184.59645678 Ry
     xc contribution           =    -120.19322633 Ry
     ewald contribution        =    -696.73617458 Ry
     smearing contrib. (-TS)   =      -0.00455349 Ry

     convergence has been achieved in  32 iterations

     Forces acting on atoms (cartesian axes, Ry/au):

     atom    1 type  2   force =     0.00119455   -0.00076983    0.00445678
     atom    2 type  2   force =     0.00266600    0.00101758    0.00002503
     atom    3 type  2   force =    -0.00091529    0.00084333   -0.00055253
     atom    4 type  2   force =    -0.00265946    0.00101714   -0.00002293
     atom    5 type  2   force =    -0.00118372   -0.00077206   -0.00445262
     atom    6 type  2   force =    -0.00001103   -0.00187414   -0.00000448
     atom    7 type  2   force =     0.00090936    0.00084520    0.00054873
     atom    8 type  1   force =    -0.00000041   -0.00030721    0.00000201

     Total force =     0.008201     Total SCF correction =     0.000011


     Computing stress (Cartesian axis) and pressure

          total   stress  (Ry/bohr**3)                   (kbar)     P=   16.72
   0.00013236   0.00000000  -0.00000061         19.47      0.00     -0.09
   0.00000000   0.00013087  -0.00000000          0.00     19.25     -0.00
  -0.00000061  -0.00000000   0.00007785         -0.09     -0.00     11.45


     number of scf cycles    =   3
     number of bfgs steps    =   2

     enthalpy old            =    -934.4624562744 Ry
     enthalpy new            =    -934.4795287284 Ry

     CASE: enthalpy_new < enthalpy_old

     new trust radius        =       0.0291242852 bohr
     new conv_thr            =            1.0E-10 Ry

     new unit-cell volume =    940.80630 a.u.^3 (   139.41311 Ang^3 )
     density =      5.09758 g/cm^3

CELL_PARAMETERS (alat=  1.88972599)
   1.460187099   2.527653684  -4.722840634
   1.460186655  -2.527652960  -4.722840388
  -5.839328486  -0.000000512   0.000434137

ATOMIC_POSITIONS (angstrom)
Ti       0.000516594  -0.000139718  -4.716461306
Ti      -1.456733277   0.844119209  -2.361911674
Ti      -2.919041321   0.000148966  -4.723852689
Ti      -4.382227570   0.844118031  -2.360384568
Ti      -2.919072029  -0.000141955  -9.451504829
Ti       1.460342232   0.839756913  -7.084212915
Ti       0.000408977   0.000150584  -9.444135924
Nb      -1.459296888   0.842190347  -7.083987755


     NEW-OLD atomic charge density approx. for the potential
     extrapolated charge   98.23203, renormalised to   97.00000

     total cpu time spent up to now is    11919.7 secs

     Self-consistent Calculation

     iteration #  1     ecut=    40.00 Ry     beta= 0.60
     Davidson diagonalization with overlap
     c_bands:  1 eigenvalues not converged
     c_bands:  1 eigenvalues not converged
     c_bands:  1 eigenvalues not converged
     c_bands:  2 eigenvalues not converged
     c_bands:  1 eigenvalues not converged
     c_bands:  1 eigenvalues not converged
     c_bands:  2 eigenvalues not converged
     c_bands:  1 eigenvalues not converged
     c_bands:  1 eigenvalues not converged
     c_bands:  1 eigenvalues not converged
     c_bands:  1 eigenvalues not converged
     c_bands:  1 eigenvalues not converged
     c_bands:  1 eigenvalues not converged
     c_bands:  1 eigenvalues not converged
     c_bands:  2 eigenvalues not converged
     c_bands:  1 eigenvalues not converged
     c_bands:  1 eigenvalues not converged
     c_bands:  1 eigenvalues not converged
     c_bands:  2 eigenvalues not converged
     c_bands:  1 eigenvalues not converged
     c_bands:  1 eigenvalues not converged
     c_bands:  2 eigenvalues not converged
     c_bands:  1 eigenvalues not converged
     c_bands:  1 eigenvalues not converged
     c_bands:  1 eigenvalues not converged
     c_bands:  1 eigenvalues not converged
     c_bands:  1 eigenvalues not converged
     c_bands:  1 eigenvalues not converged
     c_bands:  1 eigenvalues not converged
     c_bands:  1 eigenvalues not converged
     c_bands:  1 eigenvalues not converged
     ethr =  1.00E-06,  avg # of iterations = 11.8

     total cpu time spent up to now is    12151.0 secs

     total energy              =    -934.35987738 Ry
     Harris-Foulkes estimate   =    -931.69559984 Ry
     estimated scf accuracy    <       0.10196419 Ry

     iteration #  2     ecut=    40.00 Ry     beta= 0.60
     Davidson diagonalization with overlap
     ethr =  1.05E-04,  avg # of iterations =  5.2

     total cpu time spent up to now is    12321.4 secs

     total energy              =    -934.40135778 Ry
     Harris-Foulkes estimate   =    -934.60200659 Ry
     estimated scf accuracy    <       0.82361423 Ry

     iteration #  3     ecut=    40.00 Ry     beta= 0.60
     Davidson diagonalization with overlap
     ethr =  1.05E-04,  avg # of iterations =  5.1

     total cpu time spent up to now is    12462.9 secs

     total energy              =    -934.46022642 Ry
     Harris-Foulkes estimate   =    -934.51829385 Ry
     estimated scf accuracy    <       0.27164698 Ry

     iteration #  4     ecut=    40.00 Ry     beta= 0.60
     Davidson diagonalization with overlap
