
     Program PWSCF v.6.3MaX starts on 22Jan2020 at 18:45:50 

     This program is part of the open-source Quantum ESPRESSO suite
     for quantum simulation of materials; please cite
         "P. Giannozzi et al., J. Phys.:Condens. Matter 21 395502 (2009);
         "P. Giannozzi et al., J. Phys.:Condens. Matter 29 465901 (2017);
          URL http://www.quantum-espresso.org", 
     in publications or presentations arising from this work. More details at
     http://www.quantum-espresso.org/quote

     Parallel version (MPI), running on    12 processors

     MPI processes distributed on     2 nodes
     R & G space division:  proc/nbgrp/npool/nimage =      12
     Waiting for input...
     Reading input from standard input

     Current dimensions of program PWSCF are:
     Max number of different atomic species (ntypx) = 10
     Max number of k-points (npk) =  40000
     Max angular momentum in pseudopotentials (lmaxx) =  3
     Message from routine iosys:
     minimal I/O required, wf_collect reset to FALSE

     Subspace diagonalization in iterative solution of the eigenvalue problem:
     a serial algorithm will be used

 
     Parallelization info
     --------------------
     sticks:   dense  smooth     PW     G-vecs:    dense   smooth      PW
     Min         254     101     30                 9245     2328     380
     Max         255     102     31                 9248     2331     383
     Sum        3049    1213    361               110947    27941    4573
 


     bravais-lattice index     =            0
     lattice parameter (alat)  =       1.8897  a.u.
     unit-cell volume          =     586.6735 (a.u.)^3
     number of atoms/cell      =            4
     number of atomic types    =            2
     number of electrons       =        51.00
     number of Kohn-Sham states=           31
     kinetic-energy cutoff     =      50.0000  Ry
     charge density cutoff     =     500.0000  Ry
     convergence threshold     =      1.0E-10
     mixing beta               =       0.6000
     number of iterations used =            8  plain     mixing
     Exchange-correlation      = SLA PW PBE PBE ( 1  4  3  4 0 0)
     nstep                     =           50


     celldm(1)=   1.889726  celldm(2)=   0.000000  celldm(3)=   0.000000
     celldm(4)=   0.000000  celldm(5)=   0.000000  celldm(6)=   0.000000

     crystal axes: (cart. coord. in units of alat)
               a(1) = (   0.000000   3.516063   3.516063 )  
               a(2) = (   3.516063   0.000000   3.516063 )  
               a(3) = (   3.516063   3.516063   0.000000 )  

     reciprocal axes: (cart. coord. in units 2 pi/alat)
               b(1) = ( -0.142205  0.142205  0.142205 )  
               b(2) = (  0.142205 -0.142205  0.142205 )  
               b(3) = (  0.142205  0.142205 -0.142205 )  


     PseudoPot. # 1 for Nb read from file:
     /home/u16/abhishekkt/fp/krishna/calculations/pseudopotentials/Nb.pbe-nsp-van.UPF
     MD5 check sum: c44c1a86bf31974e1e832c2ec821fd5f
     Pseudo is Ultrasoft + core correction, Zval = 13.0
     Generated by new atomic code, or converted to UPF format
     Using radial grid of  887 points,  6 beta functions with: 
                l(1) =   0
                l(2) =   0
                l(3) =   1
                l(4) =   1
                l(5) =   2
                l(6) =   2
     Q(r) pseudized with  6 coefficients,  rinner =    1.000   1.000   1.000
                                                       1.000   1.000

     PseudoPot. # 2 for Ti read from file:
     /home/u16/abhishekkt/fp/krishna/calculations/pseudopotentials/Ti.pbe-sp-van_ak.UPF
     MD5 check sum: 84d3ec9e8983e94242673103c800fb48
     Pseudo is Ultrasoft, Zval = 12.0
     Generated by new atomic code, or converted to UPF format
     Using radial grid of  851 points,  6 beta functions with: 
                l(1) =   0
                l(2) =   0
                l(3) =   1
                l(4) =   1
                l(5) =   2
                l(6) =   2
     Q(r) pseudized with  8 coefficients,  rinner =    1.000   1.000   1.000
                                                       1.000   1.000

     atomic species   valence    mass     pseudopotential
        Nb            13.00    92.90638     Nb( 1.00)
        Ti            12.00    47.86700     Ti( 1.00)

     48 Sym. Ops., with inversion, found (24 have fractional translation)



   Cartesian axes

     site n.     atom                  positions (alat units)
         1           Ti  tau(   1) = (   1.7580316   1.7580316   1.7580316  )
         2           Nb  tau(   2) = (   3.5160633   3.5160633   3.5160633  )
         3           Nb  tau(   3) = (   5.2740949   5.2740949   5.2740949  )
         4           Nb  tau(   4) = (   7.0321265   7.0321265   7.0321265  )

     number of k points=    84  Marzari-Vanderbilt smearing, width (Ry)=  0.0200
                       cart. coord. in units 2pi/alat
        k(    1) = (   0.0000000   0.0000000   0.0000000), wk =   0.0009103
        k(    2) = (   0.0109388   0.0109388  -0.0109388), wk =   0.0072827
        k(    3) = (   0.0218776   0.0218776  -0.0218776), wk =   0.0072827
        k(    4) = (   0.0328164   0.0328164  -0.0328164), wk =   0.0072827
        k(    5) = (   0.0437552   0.0437552  -0.0437552), wk =   0.0072827
        k(    6) = (   0.0546940   0.0546940  -0.0546940), wk =   0.0072827
        k(    7) = (   0.0656328   0.0656328  -0.0656328), wk =   0.0072827
        k(    8) = (   0.0218776   0.0000000   0.0000000), wk =   0.0054620
        k(    9) = (   0.0328164   0.0109388  -0.0109388), wk =   0.0218480
        k(   10) = (   0.0437552   0.0218776  -0.0218776), wk =   0.0218480
        k(   11) = (   0.0546940   0.0328164  -0.0328164), wk =   0.0218480
        k(   12) = (   0.0656328   0.0437552  -0.0437552), wk =   0.0218480
        k(   13) = (   0.0765717   0.0546940  -0.0546940), wk =   0.0218480
        k(   14) = (  -0.0546940  -0.0765717   0.0765717), wk =   0.0218480
        k(   15) = (  -0.0437552  -0.0656328   0.0656328), wk =   0.0218480
        k(   16) = (  -0.0328164  -0.0546940   0.0546940), wk =   0.0218480
        k(   17) = (  -0.0218776  -0.0437552   0.0437552), wk =   0.0218480
        k(   18) = (  -0.0109388  -0.0328164   0.0328164), wk =   0.0218480
        k(   19) = (   0.0000000  -0.0218776   0.0218776), wk =   0.0109240
        k(   20) = (   0.0437552   0.0000000   0.0000000), wk =   0.0054620
        k(   21) = (   0.0546940   0.0109388  -0.0109388), wk =   0.0218480
        k(   22) = (   0.0656328   0.0218776  -0.0218776), wk =   0.0218480
        k(   23) = (   0.0765717   0.0328164  -0.0328164), wk =   0.0218480
        k(   24) = (   0.0875105   0.0437552  -0.0437552), wk =   0.0218480
        k(   25) = (  -0.0437552  -0.0875105   0.0875105), wk =   0.0218480
        k(   26) = (  -0.0328164  -0.0765717   0.0765717), wk =   0.0218480
        k(   27) = (  -0.0218776  -0.0656328   0.0656328), wk =   0.0218480
        k(   28) = (  -0.0109388  -0.0546940   0.0546940), wk =   0.0218480
        k(   29) = (   0.0000000  -0.0437552   0.0437552), wk =   0.0109240
        k(   30) = (   0.0656328   0.0000000   0.0000000), wk =   0.0054620
        k(   31) = (   0.0765717   0.0109388  -0.0109388), wk =   0.0218480
        k(   32) = (   0.0875105   0.0218776  -0.0218776), wk =   0.0218480
        k(   33) = (   0.0984493   0.0328164  -0.0328164), wk =   0.0218480
        k(   34) = (  -0.0328164  -0.0984493   0.0984493), wk =   0.0218480
        k(   35) = (  -0.0218776  -0.0875105   0.0875105), wk =   0.0218480
        k(   36) = (  -0.0109388  -0.0765717   0.0765717), wk =   0.0218480
        k(   37) = (   0.0000000  -0.0656328   0.0656328), wk =   0.0109240
        k(   38) = (   0.0875105   0.0000000   0.0000000), wk =   0.0054620
        k(   39) = (   0.0984493   0.0109388  -0.0109388), wk =   0.0218480
        k(   40) = (   0.1093881   0.0218776  -0.0218776), wk =   0.0218480
        k(   41) = (  -0.0218776  -0.1093881   0.1093881), wk =   0.0218480
        k(   42) = (  -0.0109388  -0.0984493   0.0984493), wk =   0.0218480
        k(   43) = (   0.0000000  -0.0875105   0.0875105), wk =   0.0109240
        k(   44) = (   0.1093881   0.0000000   0.0000000), wk =   0.0054620
        k(   45) = (   0.1203269   0.0109388  -0.0109388), wk =   0.0218480
        k(   46) = (  -0.0109388  -0.1203269   0.1203269), wk =   0.0218480
        k(   47) = (   0.0000000  -0.1093881   0.1093881), wk =   0.0109240
        k(   48) = (   0.1312657   0.0000000   0.0000000), wk =   0.0054620
        k(   49) = (   0.0000000  -0.1312657   0.1312657), wk =   0.0109240
        k(   50) = (   0.0437552   0.0218776   0.0000000), wk =   0.0218480
        k(   51) = (   0.0546940   0.0328164  -0.0109388), wk =   0.0436959
        k(   52) = (   0.0656328   0.0437552  -0.0218776), wk =   0.0436959
        k(   53) = (   0.0765717   0.0546940  -0.0328164), wk =   0.0436959
        k(   54) = (  -0.0546940  -0.0765717   0.0984493), wk =   0.0436959
        k(   55) = (   0.0656328   0.0218776   0.0000000), wk =   0.0218480
        k(   56) = (   0.0765717   0.0328164  -0.0109388), wk =   0.0436959
        k(   57) = (   0.0875105   0.0437552  -0.0218776), wk =   0.0436959
        k(   58) = (  -0.0437552  -0.0875105   0.1093881), wk =   0.0436959
        k(   59) = (  -0.0328164  -0.0765717   0.0984493), wk =   0.0436959
        k(   60) = (  -0.0218776  -0.0656328   0.0875105), wk =   0.0436959
        k(   61) = (  -0.0109388  -0.0546940   0.0765717), wk =   0.0436959
        k(   62) = (   0.0000000  -0.0437552   0.0656328), wk =   0.0218480
        k(   63) = (   0.0875105   0.0218776  -0.0000000), wk =   0.0218480
        k(   64) = (   0.0984493   0.0328164  -0.0109388), wk =   0.0436959
        k(   65) = (  -0.0328164  -0.0984493   0.1203269), wk =   0.0436959
        k(   66) = (  -0.0218776  -0.0875105   0.1093881), wk =   0.0436959
        k(   67) = (  -0.0109388  -0.0765717   0.0984493), wk =   0.0436959
        k(   68) = (   0.0000000  -0.0656328   0.0875105), wk =   0.0218480
        k(   69) = (   0.1093881   0.0218776   0.0000000), wk =   0.0218480
        k(   70) = (  -0.0218776  -0.1093881   0.1312657), wk =   0.0436959
        k(   71) = (  -0.0109388  -0.0984493   0.1203269), wk =   0.0436959
        k(   72) = (   0.0000000  -0.0875105   0.1093881), wk =   0.0218480
        k(   73) = (  -0.0109388  -0.1203269   0.1422045), wk =   0.0218480
        k(   74) = (   0.0000000  -0.1093881   0.1312657), wk =   0.0218480
        k(   75) = (   0.0875105   0.0437552   0.0000000), wk =   0.0218480
        k(   76) = (  -0.0437552  -0.0875105   0.1312657), wk =   0.0436959
        k(   77) = (  -0.0328164  -0.0765717   0.1203269), wk =   0.0436959
        k(   78) = (  -0.0328164  -0.0984493   0.1422045), wk =   0.0218480
        k(   79) = (  -0.0218776  -0.0875105   0.1312657), wk =   0.0436959
        k(   80) = (  -0.0109388  -0.0765717   0.1203269), wk =   0.0436959
        k(   81) = (   0.0000000  -0.0656328   0.1093881), wk =   0.0218480
        k(   82) = (  -0.0109388  -0.0984493   0.1422045), wk =   0.0218480
        k(   83) = (   0.0000000  -0.0875105   0.1312657), wk =   0.0218480
        k(   84) = (  -0.0109388  -0.0765717   0.1422045), wk =   0.0218480

     Dense  grid:   110947 G-vectors     FFT dimensions: (  72,  72,  72)

     Smooth grid:    27941 G-vectors     FFT dimensions: (  45,  45,  45)

     Estimated max dynamical RAM per process >      48.75 MB

     Estimated total dynamical RAM >     585.06 MB

     Initial potential from superposition of free atoms

     starting charge   49.99176, renormalised to   51.00000
     Starting wfcs are   49 randomized atomic wfcs

     total cpu time spent up to now is        8.2 secs

     Self-consistent Calculation

     iteration #  1     ecut=    50.00 Ry     beta= 0.60
     Davidson diagonalization with overlap
     ethr =  1.00E-02,  avg # of iterations =  2.1

     total cpu time spent up to now is       21.0 secs

     total energy              =    -455.81276633 Ry
     Harris-Foulkes estimate   =    -471.97924905 Ry
     estimated scf accuracy    <      20.39595639 Ry

     iteration #  2     ecut=    50.00 Ry     beta= 0.60
     Davidson diagonalization with overlap
     ethr =  1.00E-02,  avg # of iterations =  5.6

     total cpu time spent up to now is       41.9 secs

     total energy              =    -459.64257515 Ry
     Harris-Foulkes estimate   =    -490.18113641 Ry
     estimated scf accuracy    <      93.04872314 Ry

     iteration #  3     ecut=    50.00 Ry     beta= 0.60
     Davidson diagonalization with overlap
     ethr =  1.00E-02,  avg # of iterations =  4.7

     total cpu time spent up to now is       58.3 secs

     total energy              =    -471.30187195 Ry
     Harris-Foulkes estimate   =    -472.28177549 Ry
     estimated scf accuracy    <       6.95107116 Ry

     iteration #  4     ecut=    50.00 Ry     beta= 0.60
     Davidson diagonalization with overlap
     ethr =  1.00E-02,  avg # of iterations =  1.4

     total cpu time spent up to now is       68.8 secs

     total energy              =    -471.57168687 Ry
     Harris-Foulkes estimate   =    -471.55222824 Ry
     estimated scf accuracy    <       4.05759993 Ry

     iteration #  5     ecut=    50.00 Ry     beta= 0.60
     Davidson diagonalization with overlap
     ethr =  7.96E-03,  avg # of iterations =  1.0

     total cpu time spent up to now is       79.5 secs

     total energy              =    -471.60211869 Ry
     Harris-Foulkes estimate   =    -471.59954690 Ry
     estimated scf accuracy    <       4.12307494 Ry

     iteration #  6     ecut=    50.00 Ry     beta= 0.60
     Davidson diagonalization with overlap
     ethr =  7.96E-03,  avg # of iterations =  1.0

     total cpu time spent up to now is       89.8 secs

     total energy              =    -471.84399645 Ry
     Harris-Foulkes estimate   =    -471.61207981 Ry
     estimated scf accuracy    <       4.13221608 Ry

     iteration #  7     ecut=    50.00 Ry     beta= 0.60
     Davidson diagonalization with overlap
     ethr =  7.96E-03,  avg # of iterations =  1.0

     total cpu time spent up to now is      100.9 secs

     total energy              =    -470.78282264 Ry
     Harris-Foulkes estimate   =    -472.02483492 Ry
     estimated scf accuracy    <       5.30447439 Ry

     iteration #  8     ecut=    50.00 Ry     beta= 0.60
     Davidson diagonalization with overlap
     ethr =  7.96E-03,  avg # of iterations =  2.9

     total cpu time spent up to now is      112.5 secs

     total energy              =    -470.36219079 Ry
     Harris-Foulkes estimate   =    -471.28458836 Ry
     estimated scf accuracy    <       4.81317734 Ry

     iteration #  9     ecut=    50.00 Ry     beta= 0.60
     Davidson diagonalization with overlap
     ethr =  7.96E-03,  avg # of iterations =  4.4

     total cpu time spent up to now is      127.1 secs

     total energy              =    -471.11380823 Ry
     Harris-Foulkes estimate   =    -471.30476891 Ry
     estimated scf accuracy    <       8.23912469 Ry

     iteration # 10     ecut=    50.00 Ry     beta= 0.60
     Davidson diagonalization with overlap
     ethr =  7.96E-03,  avg # of iterations =  1.0

     total cpu time spent up to now is      137.5 secs

     total energy              =    -470.98207738 Ry
     Harris-Foulkes estimate   =    -471.13854063 Ry
     estimated scf accuracy    <       7.07953742 Ry

     iteration # 11     ecut=    50.00 Ry     beta= 0.60
     Davidson diagonalization with overlap
     ethr =  7.96E-03,  avg # of iterations =  1.0

     total cpu time spent up to now is      147.6 secs

     total energy              =    -470.36597534 Ry
     Harris-Foulkes estimate   =    -470.99240788 Ry
     estimated scf accuracy    <       6.00076782 Ry

     iteration # 12     ecut=    50.00 Ry     beta= 0.60
     Davidson diagonalization with overlap
     ethr =  7.96E-03,  avg # of iterations =  1.0

     total cpu time spent up to now is      157.9 secs

     total energy              =    -470.63296323 Ry
     Harris-Foulkes estimate   =    -470.53898045 Ry
     estimated scf accuracy    <       3.28281637 Ry

     iteration # 13     ecut=    50.00 Ry     beta= 0.60
     Davidson diagonalization with overlap
     ethr =  6.44E-03,  avg # of iterations =  1.0

     total cpu time spent up to now is      168.8 secs

     total energy              =    -469.37183415 Ry
     Harris-Foulkes estimate   =    -470.69097268 Ry
     estimated scf accuracy    <       3.64332850 Ry

     iteration # 14     ecut=    50.00 Ry     beta= 0.60
     Davidson diagonalization with overlap
     ethr =  6.44E-03,  avg # of iterations =  5.0

     total cpu time spent up to now is      184.7 secs

     total energy              =    -470.42400383 Ry
     Harris-Foulkes estimate   =    -471.05603694 Ry
     estimated scf accuracy    <       3.80227896 Ry

     iteration # 15     ecut=    50.00 Ry     beta= 0.60
     Davidson diagonalization with overlap
     ethr =  6.44E-03,  avg # of iterations =  2.8

     total cpu time spent up to now is      196.5 secs

     total energy              =    -470.81844487 Ry
     Harris-Foulkes estimate   =    -470.88120493 Ry
     estimated scf accuracy    <       2.37395578 Ry

     iteration # 16     ecut=    50.00 Ry     beta= 0.60
     Davidson diagonalization with overlap
     ethr =  4.65E-03,  avg # of iterations =  1.0

     total cpu time spent up to now is      206.7 secs

     total energy              =    -470.73682412 Ry
     Harris-Foulkes estimate   =    -470.83330654 Ry
     estimated scf accuracy    <       2.30873599 Ry

     iteration # 17     ecut=    50.00 Ry     beta= 0.60
     Davidson diagonalization with overlap
     ethr =  4.53E-03,  avg # of iterations =  1.0

     total cpu time spent up to now is      217.4 secs

     total energy              =    -470.57706407 Ry
     Harris-Foulkes estimate   =    -470.75089331 Ry
     estimated scf accuracy    <       2.35244404 Ry

     iteration # 18     ecut=    50.00 Ry     beta= 0.60
     Davidson diagonalization with overlap
     ethr =  4.53E-03,  avg # of iterations =  1.1

     total cpu time spent up to now is      227.7 secs

     total energy              =    -469.96307571 Ry
     Harris-Foulkes estimate   =    -470.59297691 Ry
     estimated scf accuracy    <       1.88257413 Ry

     iteration # 19     ecut=    50.00 Ry     beta= 0.60
     Davidson diagonalization with overlap
     ethr =  3.69E-03,  avg # of iterations =  4.7

     total cpu time spent up to now is      243.0 secs

     total energy              =    -470.55631916 Ry
     Harris-Foulkes estimate   =    -470.60332261 Ry
     estimated scf accuracy    <       5.24456878 Ry

     iteration # 20     ecut=    50.00 Ry     beta= 0.60
     Davidson diagonalization with overlap
     ethr =  3.69E-03,  avg # of iterations =  1.0

     total cpu time spent up to now is      253.5 secs

     total energy              =    -470.86263937 Ry
     Harris-Foulkes estimate   =    -470.56350087 Ry
     estimated scf accuracy    <       4.34119647 Ry

     iteration # 21     ecut=    50.00 Ry     beta= 0.60
     Davidson diagonalization with overlap
     ethr =  3.69E-03,  avg # of iterations =  1.0

     total cpu time spent up to now is      263.6 secs

     total energy              =    -470.81585378 Ry
     Harris-Foulkes estimate   =    -470.96926258 Ry
     estimated scf accuracy    <      10.79725194 Ry

     iteration # 22     ecut=    50.00 Ry     beta= 0.60
     Davidson diagonalization with overlap
     ethr =  3.69E-03,  avg # of iterations =  1.0

     total cpu time spent up to now is      274.1 secs

     total energy              =    -470.32989266 Ry
     Harris-Foulkes estimate   =    -470.82924319 Ry
     estimated scf accuracy    <       9.23321516 Ry

     iteration # 23     ecut=    50.00 Ry     beta= 0.60
     Davidson diagonalization with overlap
     ethr =  3.69E-03,  avg # of iterations =  1.0

     total cpu time spent up to now is      284.9 secs

     total energy              =    -470.22249466 Ry
     Harris-Foulkes estimate   =    -470.44005264 Ry
     estimated scf accuracy    <       2.35117163 Ry

     iteration # 24     ecut=    50.00 Ry     beta= 0.60
     Davidson diagonalization with overlap
     ethr =  3.69E-03,  avg # of iterations =  2.2

     total cpu time spent up to now is      296.1 secs

     total energy              =    -470.35176307 Ry
     Harris-Foulkes estimate   =    -470.36595568 Ry
     estimated scf accuracy    <       0.09703935 Ry

     iteration # 25     ecut=    50.00 Ry     beta= 0.60
     Davidson diagonalization with overlap
     ethr =  1.90E-04,  avg # of iterations =  4.5

     total cpu time spent up to now is      311.0 secs

     total energy              =    -470.65959566 Ry
     Harris-Foulkes estimate   =    -470.48672161 Ry
     estimated scf accuracy    <       2.77815961 Ry

     iteration # 26     ecut=    50.00 Ry     beta= 0.60
     Davidson diagonalization with overlap
     ethr =  1.90E-04,  avg # of iterations =  4.2

     total cpu time spent up to now is      325.7 secs

     total energy              =    -470.03248817 Ry
     Harris-Foulkes estimate   =    -470.72412592 Ry
     estimated scf accuracy    <       8.40399170 Ry

     iteration # 27     ecut=    50.00 Ry     beta= 0.60
     Davidson diagonalization with overlap
     ethr =  1.90E-04,  avg # of iterations =  5.5

     total cpu time spent up to now is      343.5 secs

     total energy              =    -470.35016152 Ry
     Harris-Foulkes estimate   =    -470.36929184 Ry
     estimated scf accuracy    <       0.08568917 Ry

     iteration # 28     ecut=    50.00 Ry     beta= 0.60
     Davidson diagonalization with overlap
     ethr =  1.68E-04,  avg # of iterations =  3.1

     total cpu time spent up to now is      355.7 secs

     total energy              =    -470.36274986 Ry
     Harris-Foulkes estimate   =    -470.36550466 Ry
     estimated scf accuracy    <       0.17224346 Ry

     iteration # 29     ecut=    50.00 Ry     beta= 0.60
     Davidson diagonalization with overlap
     ethr =  1.68E-04,  avg # of iterations =  1.0

     total cpu time spent up to now is      365.9 secs

     total energy              =    -470.34946778 Ry
     Harris-Foulkes estimate   =    -470.36349690 Ry
     estimated scf accuracy    <       0.14557388 Ry

     iteration # 30     ecut=    50.00 Ry     beta= 0.60
     Davidson diagonalization with overlap
     ethr =  1.68E-04,  avg # of iterations =  2.2

     total cpu time spent up to now is      376.6 secs

     total energy              =    -470.35461116 Ry
     Harris-Foulkes estimate   =    -470.35662969 Ry
     estimated scf accuracy    <       0.02893963 Ry

     iteration # 31     ecut=    50.00 Ry     beta= 0.60
     Davidson diagonalization with overlap
     ethr =  5.67E-05,  avg # of iterations =  3.0

     total cpu time spent up to now is      387.8 secs

     total energy              =    -470.35300247 Ry
     Harris-Foulkes estimate   =    -470.35610173 Ry
     estimated scf accuracy    <       0.01635638 Ry

     iteration # 32     ecut=    50.00 Ry     beta= 0.60
     Davidson diagonalization with overlap
     ethr =  3.21E-05,  avg # of iterations =  3.2

     total cpu time spent up to now is      399.5 secs

     total energy              =    -470.35443083 Ry
     Harris-Foulkes estimate   =    -470.35417067 Ry
     estimated scf accuracy    <       0.00221682 Ry

     iteration # 33     ecut=    50.00 Ry     beta= 0.60
     Davidson diagonalization with overlap
     ethr =  4.35E-06,  avg # of iterations =  5.7

     total cpu time spent up to now is      413.7 secs

     total energy              =    -470.35372356 Ry
     Harris-Foulkes estimate   =    -470.35465353 Ry
     estimated scf accuracy    <       0.00459092 Ry

     iteration # 34     ecut=    50.00 Ry     beta= 0.60
     Davidson diagonalization with overlap
     ethr =  4.35E-06,  avg # of iterations =  3.4

     total cpu time spent up to now is      427.4 secs

     total energy              =    -470.35420398 Ry
     Harris-Foulkes estimate   =    -470.35425523 Ry
     estimated scf accuracy    <       0.00017065 Ry

     iteration # 35     ecut=    50.00 Ry     beta= 0.60
     Davidson diagonalization with overlap
     ethr =  3.35E-07,  avg # of iterations =  3.2

     total cpu time spent up to now is      441.4 secs

     total energy              =    -470.35423402 Ry
     Harris-Foulkes estimate   =    -470.35423490 Ry
     estimated scf accuracy    <       0.00000338 Ry

     iteration # 36     ecut=    50.00 Ry     beta= 0.60
     Davidson diagonalization with overlap
     ethr =  6.63E-09,  avg # of iterations =  4.7

     total cpu time spent up to now is      457.2 secs

     total energy              =    -470.35423496 Ry
     Harris-Foulkes estimate   =    -470.35423542 Ry
     estimated scf accuracy    <       0.00000266 Ry

     iteration # 37     ecut=    50.00 Ry     beta= 0.60
     Davidson diagonalization with overlap
     ethr =  5.22E-09,  avg # of iterations =  1.7

     total cpu time spent up to now is      467.9 secs

     total energy              =    -470.35423513 Ry
     Harris-Foulkes estimate   =    -470.35423515 Ry
     estimated scf accuracy    <       0.00000010 Ry

     iteration # 38     ecut=    50.00 Ry     beta= 0.60
     Davidson diagonalization with overlap
     ethr =  1.99E-10,  avg # of iterations =  4.8

     total cpu time spent up to now is      483.6 secs

     total energy              =    -470.35423517 Ry
     Harris-Foulkes estimate   =    -470.35423521 Ry
     estimated scf accuracy    <       0.00000037 Ry

     iteration # 39     ecut=    50.00 Ry     beta= 0.60
     Davidson diagonalization with overlap
     ethr =  1.99E-10,  avg # of iterations =  3.6

     total cpu time spent up to now is      496.2 secs

     total energy              =    -470.35423516 Ry
     Harris-Foulkes estimate   =    -470.35423518 Ry
     estimated scf accuracy    <       0.00000012 Ry

     iteration # 40     ecut=    50.00 Ry     beta= 0.60
     Davidson diagonalization with overlap
     ethr =  1.99E-10,  avg # of iterations =  2.4

     total cpu time spent up to now is      507.1 secs

     total energy              =    -470.35423517 Ry
     Harris-Foulkes estimate   =    -470.35423517 Ry
     estimated scf accuracy    <          7.4E-09 Ry

     iteration # 41     ecut=    50.00 Ry     beta= 0.60
     Davidson diagonalization with overlap
     ethr =  1.45E-11,  avg # of iterations =  4.3

     total cpu time spent up to now is      521.4 secs

     total energy              =    -470.35423517 Ry
     Harris-Foulkes estimate   =    -470.35423518 Ry
     estimated scf accuracy    <          8.4E-09 Ry

     iteration # 42     ecut=    50.00 Ry     beta= 0.60
     Davidson diagonalization with overlap
     ethr =  1.45E-11,  avg # of iterations =  3.2

     total cpu time spent up to now is      532.8 secs

     total energy              =    -470.35423518 Ry
     Harris-Foulkes estimate   =    -470.35423518 Ry
     estimated scf accuracy    <          5.0E-10 Ry

     iteration # 43     ecut=    50.00 Ry     beta= 0.60
     Davidson diagonalization with overlap
     ethr =  9.79E-13,  avg # of iterations =  4.0

     total cpu time spent up to now is      546.4 secs

     End of self-consistent calculation

          k = 0.0000 0.0000 0.0000 (  3479 PWs)   bands (ev):

   -43.5383 -41.4261 -41.3778 -41.2219 -19.7782 -19.7782 -19.7782 -17.5048
   -17.5048 -17.5048 -17.4647 -17.4647 -17.4647 -17.1279 -17.1279 -17.1279
     7.7884  10.8120  10.8120  12.1389  12.1389  12.1389  12.6380  12.6380
    12.6381  13.8037  13.8037  13.8037  15.6496  15.6496  16.2707

          k = 0.0109 0.0109-0.0109 (  3509 PWs)   bands (ev):

   -43.5383 -41.4249 -41.3782 -41.2228 -19.7783 -19.7783 -19.7782 -17.5231
   -17.5138 -17.5138 -17.4564 -17.4564 -17.4410 -17.1338 -17.1271 -17.1271
     7.8598  10.8534  10.8534  12.0400  12.1365  12.1365  12.6392  12.6517
    12.6517  13.7763  13.7763  13.8680  15.6339  15.6339  16.2521

          k = 0.0219 0.0219-0.0219 (  3521 PWs)   bands (ev):

   -43.5382 -41.4214 -41.3792 -41.2256 -19.7787 -19.7787 -19.7782 -17.5424
   -17.5304 -17.5304 -17.4415 -17.4415 -17.4083 -17.1479 -17.1249 -17.1249
     8.0695  10.9744  10.9744  11.8554  12.1390  12.1390  12.5408  12.6796
    12.6796  13.6903  13.6903  14.0667  15.5967  15.5967  16.0883

          k = 0.0328 0.0328-0.0328 (  3521 PWs)   bands (ev):

   -43.5380 -41.4161 -41.3808 -41.2296 -19.7793 -19.7793 -19.7781 -17.5498
   -17.5469 -17.5469 -17.4274 -17.4274 -17.3882 -17.1618 -17.1216 -17.1216
     8.4053  11.1655  11.1655  11.7082  12.1652  12.1652  12.2698  12.6931
    12.6931  13.5412  13.5412  14.4044  15.1930  15.5631  15.5631

          k = 0.0438 0.0438-0.0438 (  3506 PWs)   bands (ev):

   -43.5379 -41.4097 -41.3830 -41.2340 -19.7799 -19.7799 -19.7779 -17.5608
   -17.5608 -17.5465 -17.4162 -17.4162 -17.3870 -17.1677 -17.1181 -17.1181
     8.8478  11.4090  11.4090  11.5799  11.9378  12.2278  12.2278  12.6640
    12.6640  13.3379  13.3379  14.3009  14.8802  15.5564  15.5564

          k = 0.0547 0.0547-0.0547 (  3489 PWs)   bands (ev):

   -43.5377 -41.4033 -41.3858 -41.2379 -19.7804 -19.7804 -19.7776 -17.5707
   -17.5707 -17.5378 -17.4085 -17.4085 -17.3977 -17.1667 -17.1151 -17.1151
     9.3726  11.1523  11.6741  11.6741  11.9580  12.3256  12.3256  12.5775
    12.5775  13.1132  13.1132  13.5042  15.4689  15.5804  15.5804

          k = 0.0656 0.0656-0.0656 (  3501 PWs)   bands (ev):

   -43.5377 -41.3983 -41.3887 -41.2402 -19.7806 -19.7806 -19.7774 -17.5759
   -17.5759 -17.5308 -17.4075 -17.4047 -17.4047 -17.1647 -17.1134 -17.1134
     9.9476  10.5732  11.8925  11.8925  12.2343  12.4110  12.4110  12.4775
    12.4775  12.8701  12.9350  12.9350  15.6122  15.6122  15.8947

          k = 0.0219 0.0000 0.0000 (  3523 PWs)   bands (ev):

   -43.5383 -41.4245 -41.3783 -41.2231 -19.7786 -19.7786 -19.7778 -17.5275
   -17.5275 -17.5041 -17.4577 -17.4429 -17.4429 -17.1367 -17.1264 -17.1264
     7.8835  10.8645  10.8685  12.0189  12.1253  12.1253  12.4925  12.7389
    12.7389  13.7941  13.7941  13.8379  15.5793  15.6708  16.2271

          k = 0.0328 0.0109-0.0109 (  3522 PWs)   bands (ev):

   -43.5382 -41.4218 -41.3790 -41.2253 -19.7790 -19.7790 -19.7776 -17.5456
   -17.5442 -17.5102 -17.4501 -17.4276 -17.4162 -17.1491 -17.1246 -17.1242
     8.0469  10.9563  10.9609  11.8540  12.1074  12.1231  12.3847  12.7892
    12.8328  13.7173  13.7536  13.9821  15.4950  15.6764  16.1802

          k = 0.0438 0.0219-0.0219 (  3519 PWs)   bands (ev):

   -43.5381 -41.4171 -41.3804 -41.2289 -19.7796 -19.7794 -19.7775 -17.5597
   -17.5566 -17.5246 -17.4373 -17.4146 -17.3922 -17.1636 -17.1219 -17.1210
     8.3399  11.1204  11.1213  11.6830  12.0325  12.1443  12.3347  12.7290
    12.8992  13.5794  13.6395  14.2742  15.4166  15.4969  15.6645

          k = 0.0547 0.0328-0.0328 (  3515 PWs)   bands (ev):

   -43.5379 -41.4111 -41.3824 -41.2333 -19.7802 -19.7798 -19.7776 -17.5718
   -17.5587 -17.5387 -17.4238 -17.4052 -17.3854 -17.1710 -17.1190 -17.1174
     8.7448  11.3166  11.3406  11.5718  11.8659  12.1988  12.3279  12.6300
    12.9025  13.3970  13.4490  14.6016  14.7139  15.3841  15.6496

          k = 0.0656 0.0438-0.0438 (  3504 PWs)   bands (ev):

   -43.5378 -41.4047 -41.3849 -41.2374 -19.7807 -19.7801 -19.7776 -17.5794
   -17.5620 -17.5426 -17.4124 -17.4000 -17.3938 -17.1694 -17.1167 -17.1143
     9.2374  11.2267  11.5909  11.6084  11.8082  12.2880  12.3806  12.5642
    12.8184  13.1910  13.2115  13.7990  15.2544  15.4105  15.6355

          k = 0.0766 0.0547-0.0547 (  3512 PWs)   bands (ev):

   -43.5377 -41.3991 -41.3878 -41.2403 -19.7809 -19.7804 -19.7775 -17.5819
   -17.5701 -17.5375 -17.4088 -17.4002 -17.3991 -17.1650 -17.1155 -17.1125
     9.7883  10.7431  11.7565  11.8279  11.9880  12.3911  12.4944  12.5431
    12.6551  12.9903  13.0058  13.1414  15.4805  15.6147  15.7416

          k =-0.0547-0.0766 0.0766 (  3507 PWs)   bands (ev):

   -43.5376 -41.3969 -41.3892 -41.2411 -19.7808 -19.7806 -19.7775 -17.5791
   -17.5754 -17.5356 -17.4125 -17.4022 -17.3952 -17.1632 -17.1151 -17.1124
    10.1513  10.3930  11.7905  11.9560  12.0877  12.4127  12.5082  12.5260
    12.6928  12.8491  12.9011  12.9488  15.5612  15.5789  15.6575

          k =-0.0438-0.0656 0.0656 (  3503 PWs)   bands (ev):

   -43.5377 -41.4008 -41.3868 -41.2395 -19.7806 -19.7805 -19.7776 -17.5760
   -17.5712 -17.5404 -17.4091 -17.4084 -17.3910 -17.1653 -17.1152 -17.1140
     9.5961  10.9388  11.6692  11.8250  11.9272  12.3845  12.4366  12.4382
    12.7581  13.0223  13.0867  13.3313  15.5076  15.6032  15.6693

          k =-0.0328-0.0547 0.0547 (  3498 PWs)   bands (ev):

   -43.5378 -41.4068 -41.3840 -41.2361 -19.7804 -19.7799 -19.7778 -17.5717
   -17.5587 -17.5486 -17.4195 -17.4039 -17.3861 -17.1689 -17.1169 -17.1164
     9.0629  11.3617  11.5013  11.5589  11.8232  12.2741  12.3698  12.4996
    12.8396  13.2257  13.3123  14.0572  15.0644  15.4594  15.6140

          k =-0.0219-0.0438 0.0438 (  3511 PWs)   bands (ev):

   -43.5380 -41.4132 -41.3817 -41.2318 -19.7800 -19.7793 -19.7779 -17.5630
   -17.5538 -17.5428 -17.4327 -17.4070 -17.3847 -17.1678 -17.1205 -17.1188
     8.5976  11.2338  11.2941  11.6127  11.9506  12.1978  12.4030  12.5411
    12.8680  13.4272  13.5338  14.5541  14.9085  15.4497  15.6238

          k =-0.0109-0.0328 0.0328 (  3519 PWs)   bands (ev):

   -43.5381 -41.4189 -41.3799 -41.2276 -19.7795 -19.7787 -19.7780 -17.5522
   -17.5486 -17.5258 -17.4472 -17.4158 -17.3988 -17.1574 -17.1238 -17.1220
     8.2283  11.0486  11.0759  11.7504  12.0484  12.1604  12.5335  12.5643
    12.8423  13.5925  13.6983  14.1802  15.4923  15.6398  15.7923

          k = 0.0000-0.0219 0.0219 (  3529 PWs)   bands (ev):

   -43.5383 -41.4230 -41.3787 -41.2244 -19.7789 -19.7784 -19.7780 -17.5372
   -17.5339 -17.5127 -17.4583 -17.4293 -17.4265 -17.1430 -17.1262 -17.1250
     7.9772  10.9159  10.9253  11.9254  12.0961  12.1464  12.5938  12.6027
    12.7754  13.7090  13.7777  13.9509  15.5662  15.6498  16.2088

          k = 0.0438 0.0000 0.0000 (  3535 PWs)   bands (ev):

   -43.5382 -41.4199 -41.3795 -41.2268 -19.7796 -19.7796 -19.7769 -17.5606
   -17.5606 -17.5020 -17.4381 -17.4126 -17.4126 -17.1611 -17.1220 -17.1220
     8.1625  11.0102  11.0206  11.7220  12.1105  12.1191  12.1191  12.9985
    12.9985  13.7727  13.7727  13.9470  15.3416  15.7161  16.1428

          k = 0.0547 0.0109-0.0109 (  3524 PWs)   bands (ev):

   -43.5380 -41.4160 -41.3806 -41.2299 -19.7803 -19.7802 -19.7765 -17.5755
   -17.5738 -17.5060 -17.4277 -17.4000 -17.3939 -17.1765 -17.1190 -17.1187
     8.4084  11.1050  11.1597  11.5625  11.8630  12.1366  12.1758  13.0829
    13.1366  13.6761  13.7201  14.1547  15.1872  15.7187  15.7495

          k = 0.0656 0.0219-0.0219 (  3516 PWs)   bands (ev):

   -43.5379 -41.4107 -41.3822 -41.2339 -19.7810 -19.7806 -19.7765 -17.5868
   -17.5792 -17.5160 -17.4164 -17.3914 -17.3839 -17.1852 -17.1165 -17.1150
     8.7681  11.1723  11.3584  11.5048  11.6468  12.1834  12.2621  13.0241
    13.1981  13.5105  13.5662  14.5313  14.9364  15.1024  15.6965

          k = 0.0766 0.0328-0.0328 (  3507 PWs)   bands (ev):

   -43.5377 -41.4047 -41.3843 -41.2380 -19.7815 -19.7807 -19.7768 -17.5934
   -17.5794 -17.5252 -17.4069 -17.3888 -17.3874 -17.1812 -17.1157 -17.1117
     9.2172  11.0905  11.4651  11.5920  11.6372  12.2626  12.3829  12.8977
    13.1427  13.3244  13.3258  14.1464  15.0413  15.1164  15.5620

          k = 0.0875 0.0438-0.0438 (  3511 PWs)   bands (ev):

   -43.5376 -41.3991 -41.3869 -41.2413 -19.7816 -19.7806 -19.7773 -17.5946
   -17.5794 -17.5305 -17.4122 -17.3880 -17.3873 -17.1703 -17.1174 -17.1097
     9.7251  10.7982  11.4542  11.7896  11.8238  12.3655  12.5557  12.7952
    12.9605  13.0713  13.1524  13.5058  15.2067  15.4425  15.4765

          k =-0.0438-0.0875 0.0875 (  3507 PWs)   bands (ev):

   -43.5376 -41.3954 -41.3893 -41.2427 -19.7815 -19.7804 -19.7778 -17.5902
   -17.5803 -17.5345 -17.4213 -17.3929 -17.3793 -17.1611 -17.1202 -17.1095
    10.2466  10.3714  11.5131  11.8488  11.9980  12.4342  12.7175  12.7313
    12.8240  12.8958  13.0582  13.1230  15.3163  15.3392  15.4172

          k =-0.0328-0.0766 0.0766 (  3503 PWs)   bands (ev):

   -43.5376 -41.3975 -41.3880 -41.2419 -19.7810 -19.7804 -19.7781 -17.5806
   -17.5799 -17.5416 -17.4210 -17.4017 -17.3732 -17.1602 -17.1202 -17.1111
     9.8614  10.7680  11.5260  11.7644  11.9995  12.3939  12.5141  12.6564
    12.9333  12.9860  13.1203  13.2839  15.2200  15.4660  15.4861

          k =-0.0219-0.0656 0.0656 (  3501 PWs)   bands (ev):

   -43.5377 -41.4028 -41.3853 -41.2391 -19.7805 -19.7804 -19.7781 -17.5767
   -17.5666 -17.5517 -17.4137 -17.4123 -17.3704 -17.1666 -17.1179 -17.1141
     9.3605  11.1720  11.4797  11.6746  11.7740  12.3549  12.4106  12.5921
    12.9934  13.1050  13.2953  13.9009  15.2231  15.2861  15.4266

          k =-0.0109-0.0547 0.0547 (  3505 PWs)   bands (ev):

   -43.5378 -41.4088 -41.3830 -41.2351 -19.7805 -19.7797 -19.7779 -17.5701
   -17.5602 -17.5502 -17.4275 -17.4027 -17.3732 -17.1718 -17.1178 -17.1170
     8.8985  11.2805  11.4813  11.4976  11.7518  12.2498  12.4481  12.5785
    12.9809  13.2931  13.4969  14.6615  14.7804  15.3522  15.3816

          k = 0.0000-0.0438 0.0438 (  3515 PWs)   bands (ev):

   -43.5380 -41.4144 -41.3812 -41.2309 -19.7802 -19.7791 -19.7779 -17.5615
   -17.5602 -17.5344 -17.4406 -17.4006 -17.3852 -17.1685 -17.1213 -17.1187
     8.5115  11.1669  11.2549  11.5948  11.9099  12.1914  12.4923  12.5767
    12.9342  13.4597  13.6474  14.4021  15.4073  15.4376  15.6406

          k = 0.0656 0.0000 0.0000 (  3519 PWs)   bands (ev):

   -43.5379 -41.4130 -41.3812 -41.2324 -19.7811 -19.7811 -19.7757 -17.5903
   -17.5903 -17.4986 -17.4105 -17.3874 -17.3874 -17.1953 -17.1152 -17.1152
     8.6062  11.0763  11.2772  11.4635  11.6204  12.1476  12.1476  13.3634
    13.3634  13.7589  13.7589  14.1338  14.9263  15.7222  15.7371

          k = 0.0766 0.0109-0.0109 (  3514 PWs)   bands (ev):

   -43.5378 -41.4086 -41.3824 -41.2359 -19.7819 -19.7818 -19.7754 -17.6018
   -17.5999 -17.5002 -17.3985 -17.3787 -17.3786 -17.2085 -17.1118 -17.1112
     8.9179  10.9907  11.3870  11.4584  11.4807  12.1834  12.2040  13.4677
    13.5157  13.6703  13.6896  14.3912  14.7430  15.1842  15.4463

          k = 0.0875 0.0219-0.0219 (  3499 PWs)   bands (ev):

   -43.5377 -41.4035 -41.3840 -41.2397 -19.7824 -19.7820 -19.7756 -17.6084
   -17.6029 -17.5043 -17.3951 -17.3790 -17.3746 -17.2050 -17.1109 -17.1078
     9.3188  10.8875  11.2044  11.5654  11.6789  12.2481  12.3228  13.3879
    13.4643  13.5221  13.5257  14.4787  14.7265  14.8409  15.2377

          k = 0.0984 0.0328-0.0328 (  3501 PWs)   bands (ev):

   -43.5376 -41.3983 -41.3861 -41.2429 -19.7826 -19.7816 -19.7763 -17.6095
   -17.6026 -17.5072 -17.4129 -17.3754 -17.3720 -17.1881 -17.1143 -17.1057
     9.7769  10.7323  11.1319  11.6350  11.9022  12.3404  12.5101  13.1640
    13.2207  13.3659  13.3735  13.8667  14.8379  15.1192  15.3823

          k =-0.0328-0.0984 0.0984 (  3508 PWs)   bands (ev):

   -43.5375 -41.3942 -41.3886 -41.2447 -19.7824 -19.7810 -19.7773 -17.6049
   -17.6003 -17.5116 -17.4312 -17.3807 -17.3638 -17.1678 -17.1220 -17.1055
    10.2544  10.4651  11.1885  11.6246  12.0808  12.4346  12.7792  12.8973
    13.0703  13.0904  13.2603  13.4469  15.0107  15.1106  15.1762

          k =-0.0219-0.0875 0.0875 (  3502 PWs)   bands (ev):

   -43.5375 -41.3940 -41.3890 -41.2445 -19.7819 -19.7802 -19.7784 -17.5953
   -17.5950 -17.5231 -17.4364 -17.3899 -17.3583 -17.1533 -17.1297 -17.1071
    10.1078  10.7081  11.2883  11.5391  12.1570  12.4139  12.7643  12.8507
    12.9161  13.1644  13.2263  13.2737  14.9251  15.2054  15.2167

          k =-0.0109-0.0766 0.0766 (  3501 PWs)   bands (ev):

   -43.5376 -41.3982 -41.3867 -41.2423 -19.7812 -19.7800 -19.7788 -17.5874
   -17.5809 -17.5401 -17.4284 -17.4021 -17.3568 -17.1573 -17.1256 -17.1102
     9.6969  11.0730  11.3653  11.4814  12.0190  12.3763  12.5128  12.8207
    12.9730  13.1130  13.2904  13.7442  14.7699  15.3863  15.4185

          k = 0.0000-0.0656 0.0656 (  3499 PWs)   bands (ev):

   -43.5377 -41.4035 -41.3847 -41.2389 -19.7805 -19.7804 -19.7783 -17.5779
   -17.5648 -17.5551 -17.4156 -17.4143 -17.3613 -17.1675 -17.1190 -17.1141
     9.2782  11.2334  11.4560  11.5461  11.7551  12.3440  12.3996  12.7156
    13.0503  13.1380  13.4011  14.3322  14.8221  15.1152  15.3846

          k = 0.0875 0.0000 0.0000 (  3503 PWs)   bands (ev):

   -43.5377 -41.4052 -41.3831 -41.2388 -19.7827 -19.7827 -19.7747 -17.6138
   -17.6138 -17.4946 -17.3810 -17.3693 -17.3693 -17.2315 -17.1071 -17.1071
     9.1808  10.8186  11.1514  11.4915  11.6278  12.2030  12.2030  13.7652
    13.7652  13.8030  13.8030  14.3895  14.3915  15.1603  15.1603

          k = 0.0984 0.0109-0.0109 (  3496 PWs)   bands (ev):

   -43.5376 -41.4011 -41.3841 -41.2420 -19.7834 -19.7832 -19.7745 -17.6212
   -17.6203 -17.4936 -17.3751 -17.3670 -17.3645 -17.2365 -17.1047 -17.1036
     9.5321  10.6940  10.9685  11.5066  11.8424  12.2467  12.2692  13.6327
    13.7008  13.9019  13.9195  14.2784  14.6813  14.7240  14.9396

          k = 0.1094 0.0219-0.0219 (  3492 PWs)   bands (ev):

   -43.5375 -41.3970 -41.3856 -41.2449 -19.7836 -19.7831 -19.7750 -17.6231
   -17.6219 -17.4910 -17.4006 -17.3644 -17.3583 -17.2182 -17.1069 -17.1014
     9.9375  10.6085  10.8662  11.4859  12.0615  12.3198  12.4125  13.2835
    13.5480  13.8015  13.8132  14.1777  14.4271  14.8091  15.1792

          k =-0.0219-0.1094 0.1094 (  3491 PWs)   bands (ev):

   -43.5375 -41.3935 -41.3875 -41.2466 -19.7835 -19.7823 -19.7760 -17.6198
   -17.6192 -17.4858 -17.4337 -17.3689 -17.3517 -17.1907 -17.1149 -17.1012
    10.3517  10.4922  10.8963  11.4017  12.2266  12.4251  12.6422  12.9421
    13.3980  13.5214  13.5849  13.7549  14.6503  14.7987  15.2549

          k =-0.0109-0.0984 0.0984 (  3499 PWs)   bands (ev):

   -43.5375 -41.3911 -41.3897 -41.2467 -19.7829 -19.7812 -19.7774 -17.6132
   -17.6100 -17.4913 -17.4521 -17.3774 -17.3485 -17.1633 -17.1278 -17.1029
    10.2856  10.7600  11.0279  11.2827  12.3109  12.4590  12.7550  12.9488
    13.1488  13.2732  13.3844  13.4648  14.8969  14.9246  14.9528

          k = 0.0000-0.0875 0.0875 (  3500 PWs)   bands (ev):

   -43.5375 -41.3939 -41.3884 -41.2451 -19.7821 -19.7799 -19.7788 -17.6016
   -17.5965 -17.5163 -17.4442 -17.3890 -17.3498 -17.1432 -17.1408 -17.1062
    10.0198  11.0493  11.1457  11.2981  12.2508  12.3641  12.7873  12.8375
    13.0214  13.2278  13.3265  13.4244  14.7222  15.1450  15.1567

          k = 0.1094 0.0000 0.0000 (  3503 PWs)   bands (ev):

   -43.5375 -41.3983 -41.3846 -41.2446 -19.7841 -19.7841 -19.7739 -17.6298
   -17.6298 -17.4911 -17.3584 -17.3584 -17.3564 -17.2615 -17.0999 -17.0999
     9.8314  10.5512  10.7945  11.4332  12.0605  12.2626  12.2626  13.8006
    13.8448  13.8448  14.2144  14.2144  14.7064  14.7064  14.7079

          k = 0.1203 0.0109-0.0109 (  3486 PWs)   bands (ev):

   -43.5375 -41.3954 -41.3854 -41.2467 -19.7845 -19.7843 -19.7739 -17.6332
   -17.6330 -17.4882 -17.3733 -17.3567 -17.3483 -17.2543 -17.0995 -17.0978
    10.1766  10.4853  10.6913  11.3225  12.2690  12.3243  12.3278  13.3643
    13.8064  14.0602  14.2181  14.2497  14.4169  14.5580  15.0288

          k =-0.0109-0.1203 0.1203 (  3485 PWs)   bands (ev):

   -43.5374 -41.3931 -41.3865 -41.2480 -19.7844 -19.7837 -19.7747 -17.6323
   -17.6305 -17.4804 -17.4106 -17.3597 -17.3440 -17.2241 -17.1050 -17.0976
    10.4221  10.5644  10.6887  11.1722  12.3272  12.4754  12.5163  12.9678
    13.6768  13.8984  13.9792  14.1312  14.3435  14.5138  15.4041

          k = 0.0000-0.1094 0.1094 (  3492 PWs)   bands (ev):

   -43.5374 -41.3915 -41.3881 -41.2480 -19.7838 -19.7826 -19.7760 -17.6261
   -17.6225 -17.4686 -17.4511 -17.3669 -17.3439 -17.1910 -17.1157 -17.0995
    10.3882  10.7834  10.8345  11.0773  12.3600  12.6419  12.6637  12.6996
    13.5239  13.5729  13.5773  13.7890  14.6186  14.6480  15.1808

          k = 0.1313 0.0000 0.0000 (  3495 PWs)   bands (ev):

   -43.5374 -41.3941 -41.3854 -41.2481 -19.7849 -19.7849 -19.7735 -17.6378
   -17.6378 -17.4890 -17.3533 -17.3533 -17.3424 -17.2784 -17.0957 -17.0957
    10.3656  10.4974  10.6037  11.1385  12.3011  12.3011  12.5369  13.2367
    13.9681  13.9682  14.3171  14.3171  14.5781  14.5781  15.0589

          k = 0.0000-0.1313 0.1313 (  3500 PWs)   bands (ev):

   -43.5374 -41.3933 -41.3858 -41.2485 -19.7849 -19.7847 -19.7737 -17.6377
   -17.6370 -17.4860 -17.3742 -17.3543 -17.3410 -17.2601 -17.0977 -17.0956
    10.3849  10.5944  10.6706  11.0168  12.3161  12.3513  12.6702  13.0053
    13.9121  14.0893  14.1320  14.3134  14.4414  14.4766  15.3108

          k = 0.0438 0.0219 0.0000 (  3518 PWs)   bands (ev):

   -43.5381 -41.4185 -41.3800 -41.2279 -19.7797 -19.7793 -19.7773 -17.5598
   -17.5593 -17.5135 -17.4431 -17.4075 -17.4021 -17.1626 -17.1224 -17.1211
     8.2516  11.0563  11.0798  11.6958  12.0069  12.1470  12.2890  12.8541
    12.9521  13.6295  13.7365  14.1251  15.3791  15.6889  15.9936

          k = 0.0547 0.0328-0.0109 (  3510 PWs)   bands (ev):

   -43.5380 -41.4135 -41.3814 -41.2317 -19.7804 -19.7798 -19.7772 -17.5723
   -17.5668 -17.5251 -17.4316 -17.3997 -17.3843 -17.1739 -17.1195 -17.1178
     8.5772  11.1927  11.2674  11.5542  11.8438  12.1829  12.3055  12.8163
    13.0212  13.4823  13.6228  14.4327  15.2138  15.2957  15.6763

          k = 0.0656 0.0438-0.0219 (  3510 PWs)   bands (ev):

   -43.5378 -41.4075 -41.3835 -41.2360 -19.7808 -19.7802 -19.7774 -17.5821
   -17.5662 -17.5374 -17.4180 -17.4006 -17.3787 -17.1751 -17.1171 -17.1151
     9.0020  11.2581  11.4579  11.5627  11.6839  12.2508  12.3649  12.7129
    13.0253  13.2978  13.4221  14.3775  14.8872  15.2842  15.5799

          k = 0.0766 0.0547-0.0328 (  3510 PWs)   bands (ev):

   -43.5377 -41.4014 -41.3860 -41.2397 -19.7811 -19.7804 -19.7776 -17.5881
   -17.5657 -17.5429 -17.4105 -17.4046 -17.3801 -17.1685 -17.1172 -17.1123
     9.4974  11.0141  11.5451  11.6746  11.8347  12.3535  12.4507  12.6357
    12.9500  13.0965  13.1974  13.6472  15.3297  15.4378  15.4805

          k =-0.0547-0.0766 0.0984 (  3503 PWs)   bands (ev):

   -43.5376 -41.3967 -41.3887 -41.2419 -19.7813 -19.7804 -19.7778 -17.5907
   -17.5686 -17.5414 -17.4183 -17.3960 -17.3835 -17.1620 -17.1186 -17.1107
    10.0273  10.5611  11.6121  11.7838  12.0582  12.4595  12.5033  12.6653
    12.8574  12.9324  13.0367  13.1175  15.4117  15.4301  15.4802

          k = 0.0656 0.0219 0.0000 (  3518 PWs)   bands (ev):

   -43.5379 -41.4118 -41.3817 -41.2332 -19.7810 -19.7809 -19.7762 -17.5886
   -17.5844 -17.5078 -17.4159 -17.3915 -17.3810 -17.1899 -17.1157 -17.1153
     8.6870  11.1237  11.3177  11.4831  11.6311  12.1769  12.2026  13.1986
    13.2652  13.5838  13.6865  14.3527  15.0239  15.4128  15.5331

          k = 0.0766 0.0328-0.0109 (  3502 PWs)   bands (ev):

   -43.5378 -41.4066 -41.3833 -41.2371 -19.7815 -19.7812 -19.7763 -17.5994
   -17.5861 -17.5148 -17.4048 -17.3949 -17.3712 -17.1922 -17.1138 -17.1120
     9.0657  11.0642  11.4209  11.4805  11.5908  12.2391  12.2961  13.1561
    13.3150  13.4254  13.5323  14.6851  14.7418  14.9689  15.2798

          k = 0.0875 0.0438-0.0219 (  3509 PWs)   bands (ev):

   -43.5377 -41.4010 -41.3854 -41.2408 -19.7820 -19.7811 -19.7768 -17.6067
   -17.5822 -17.5219 -17.4112 -17.3907 -17.3694 -17.1819 -17.1156 -17.1089
     9.5149  10.9277  11.2931  11.5814  11.8316  12.3279  12.4432  13.0291
    13.2156  13.2532  13.3243  13.9927  15.0206  15.1535  15.2520

          k =-0.0438-0.0875 0.1094 (  3506 PWs)   bands (ev):

   -43.5376 -41.3961 -41.3879 -41.2434 -19.7821 -19.7806 -19.7776 -17.6100
   -17.5759 -17.5281 -17.4258 -17.3826 -17.3707 -17.1669 -17.1212 -17.1073
     9.9977  10.6443  11.3085  11.6230  12.0702  12.4310  12.6340  12.9165
    12.9764  13.0952  13.1813  13.4582  15.1313  15.1529  15.3208

          k =-0.0328-0.0766 0.0984 (  3504 PWs)   bands (ev):

   -43.5376 -41.3940 -41.3893 -41.2440 -19.7820 -19.7800 -19.7783 -17.6088
   -17.5683 -17.5362 -17.4319 -17.3851 -17.3674 -17.1571 -17.1262 -17.1074
    10.2482  10.4720  11.3745  11.5883  12.1949  12.4762  12.6559  12.8583
    12.9178  13.0484  13.1403  13.2079  15.1057  15.2335  15.3029

          k =-0.0219-0.0656 0.0875 (  3502 PWs)   bands (ev):

   -43.5376 -41.3976 -41.3872 -41.2426 -19.7816 -19.7802 -19.7782 -17.6033
   -17.5605 -17.5463 -17.4264 -17.3951 -17.3633 -17.1616 -17.1231 -17.1093
     9.7974  10.8814  11.3900  11.5421  12.0611  12.4426  12.5014  12.8079
    12.9847  13.1070  13.2153  13.5624  14.9754  15.3299  15.4000

          k =-0.0109-0.0547 0.0766 (  3501 PWs)   bands (ev):

   -43.5377 -41.4029 -41.3849 -41.2394 -19.7810 -19.7806 -19.7777 -17.5943
   -17.5633 -17.5444 -17.4135 -17.4079 -17.3633 -17.1723 -17.1178 -17.1125
     9.3396  11.1392  11.4375  11.5055  11.7929  12.3442  12.4019  12.8142
    13.1147  13.1662  13.3754  14.1916  14.9676  15.1449  15.2616

          k = 0.0000-0.0438 0.0656 (  3507 PWs)   bands (ev):

   -43.5378 -41.4085 -41.3829 -41.2355 -19.7808 -19.7803 -19.7773 -17.5833
   -17.5698 -17.5335 -17.4213 -17.4013 -17.3705 -17.1781 -17.1162 -17.1161
     8.9202  11.2203  11.4197  11.5505  11.6420  12.2464  12.3406  12.8469
    13.0885  13.3374  13.5377  14.7162  14.8750  15.1523  15.2354

          k = 0.0875 0.0219-0.0000 (  3499 PWs)   bands (ev):

   -43.5377 -41.4043 -41.3835 -41.2393 -19.7825 -19.7824 -19.7752 -17.6139
   -17.6051 -17.4996 -17.3853 -17.3851 -17.3656 -17.2166 -17.1089 -17.1078
     9.2490  10.8606  11.1752  11.5145  11.6653  12.2414  12.2508  13.5458
    13.6192  13.6290  13.6528  14.5942  14.6341  14.8795  15.0437

          k = 0.0984 0.0328-0.0109 (  3498 PWs)   bands (ev):

   -43.5376 -41.3996 -41.3850 -41.2426 -19.7830 -19.7824 -19.7755 -17.6231
   -17.6023 -17.5006 -17.4048 -17.3741 -17.3606 -17.2067 -17.1101 -17.1048
     9.6494  10.7636  11.0236  11.5334  11.9066  12.3156  12.3782  13.3641
    13.4290  13.5540  13.6320  14.2904  14.6419  14.8790  15.0673

          k =-0.0328-0.0984 0.1203 (  3496 PWs)   bands (ev):

   -43.5375 -41.3953 -41.3870 -41.2452 -19.7831 -19.7817 -19.7764 -17.6278
   -17.5946 -17.5017 -17.4298 -17.3679 -17.3592 -17.1857 -17.1167 -17.1032
    10.0803  10.6263  10.9957  11.4939  12.1396  12.4105  12.5860  13.0734
    13.2700  13.3851  13.4692  13.7639  14.7983  14.8666  15.3402

          k =-0.0219-0.0875 0.1094 (  3503 PWs)   bands (ev):

   -43.5375 -41.3921 -41.3892 -41.2462 -19.7829 -19.7807 -19.7777 -17.6272
   -17.5837 -17.5090 -17.4455 -17.3725 -17.3546 -17.1628 -17.1281 -17.1035
    10.3885  10.5057  11.0881  11.3952  12.3000  12.4910  12.8436  12.8602
    13.1056  13.1821  13.3119  13.4224  14.9714  14.9981  15.0549

          k =-0.0109-0.0766 0.0984 (  3505 PWs)   bands (ev):

   -43.5375 -41.3937 -41.3885 -41.2453 -19.7824 -19.7796 -19.7789 -17.6204
   -17.5704 -17.5273 -17.4435 -17.3825 -17.3520 -17.1498 -17.1361 -17.1056
    10.0809  10.8650  11.1776  11.3404  12.2901  12.4496  12.7429  12.8756
    13.0008  13.2291  13.2755  13.3951  14.7900  15.1741  15.2074

          k = 0.0000-0.0656 0.0875 (  3499 PWs)   bands (ev):

   -43.5376 -41.3980 -41.3865 -41.2428 -19.7817 -19.7802 -19.7784 -17.6086
   -17.5565 -17.5480 -17.4303 -17.3951 -17.3543 -17.1616 -17.1251 -17.1088
     9.7156  11.0691  11.2558  11.4229  12.0621  12.4304  12.5020  12.9033
    13.0193  13.1753  13.3079  13.8545  14.6828  15.3086  15.4011

          k = 0.1094 0.0219 0.0000 (  3492 PWs)   bands (ev):

   -43.5375 -41.3976 -41.3850 -41.2448 -19.7839 -19.7836 -19.7745 -17.6323
   -17.6197 -17.4908 -17.3873 -17.3601 -17.3551 -17.2359 -17.1036 -17.1007
     9.8826  10.5958  10.8207  11.4519  12.0696  12.3138  12.3163  13.4590
    13.6333  13.9692  14.0171  14.2702  14.4408  14.6870  14.9651

          k =-0.0219-0.1094 0.1313 (  3489 PWs)   bands (ev):

   -43.5375 -41.3944 -41.3863 -41.2469 -19.7841 -19.7831 -19.7751 -17.6391
   -17.6126 -17.4855 -17.4187 -17.3569 -17.3498 -17.2149 -17.1081 -17.0993
    10.2560  10.5517  10.7568  11.3386  12.2837  12.3987  12.4629  13.1357
    13.5083  13.7993  13.8847  14.0108  14.4619  14.6327  15.3961

          k =-0.0109-0.0984 0.1203 (  3495 PWs)   bands (ev):

   -43.5374 -41.3918 -41.3880 -41.2478 -19.7838 -19.7821 -19.7763 -17.6400
   -17.6012 -17.4784 -17.4532 -17.3615 -17.3462 -17.1867 -17.1185 -17.0998
    10.4435  10.6360  10.8330  11.1857  12.3914  12.5466  12.6952  12.8356
    13.3942  13.4959  13.5511  13.7006  14.6962  14.7281  15.2141

          k = 0.0000-0.0875 0.1094 (  3502 PWs)   bands (ev):

   -43.5375 -41.3904 -41.3900 -41.2472 -19.7832 -19.7807 -19.7777 -17.6336
   -17.5864 -17.4969 -17.4579 -17.3706 -17.3466 -17.1597 -17.1326 -17.1021
    10.3020  10.9121  10.9391  11.1393  12.4334  12.5080  12.7657  12.9804
    13.1028  13.2978  13.3234  13.4473  14.9263  14.9304  14.9540

          k =-0.0109-0.1203 0.1422 (  3482 PWs)   bands (ev):

   -43.5374 -41.3936 -41.3859 -41.2481 -19.7847 -19.7842 -19.7741 -17.6419
   -17.6271 -17.4846 -17.3919 -17.3526 -17.3432 -17.2453 -17.1006 -17.0966
    10.4063  10.5382  10.6304  11.1504  12.3474  12.3604  12.5293  13.0936
    13.7549  14.0605  14.1610  14.2729  14.3113  14.4576  15.3105

          k = 0.0000-0.1094 0.1313 (  3488 PWs)   bands (ev):

   -43.5374 -41.3924 -41.3867 -41.2485 -19.7844 -19.7834 -19.7750 -17.6448
   -17.6161 -17.4774 -17.4269 -17.3543 -17.3424 -17.2175 -17.1076 -17.0973
    10.4479  10.6583  10.7382  11.0286  12.3860  12.4956  12.6686  12.8400
    13.6093  13.7660  13.9244  14.0343  14.4609  14.5162  15.4276

          k = 0.0875 0.0438 0.0000 (  3510 PWs)   bands (ev):

   -43.5377 -41.4017 -41.3848 -41.2407 -19.7820 -19.7814 -19.7765 -17.6130
   -17.5812 -17.5194 -17.4118 -17.3919 -17.3597 -17.1878 -17.1146 -17.1089
     9.4401  10.9673  11.2308  11.5003  11.8347  12.3419  12.3722  13.1548
    13.2947  13.3548  13.4148  14.3658  14.8222  14.9612  15.0647

          k =-0.0438-0.0875 0.1313 (  3502 PWs)   bands (ev):

   -43.5376 -41.3970 -41.3866 -41.2438 -19.7825 -19.7809 -19.7773 -17.6241
   -17.5690 -17.5269 -17.4308 -17.3798 -17.3561 -17.1738 -17.1210 -17.1060
     9.8512  10.8529  11.1199  11.4625  12.1171  12.4509  12.5217  13.0555
    13.1319  13.2690  13.3158  13.8155  14.7763  15.0544  15.4036

          k =-0.0328-0.0766 0.1203 (  3504 PWs)   bands (ev):

   -43.5375 -41.3931 -41.3888 -41.2456 -19.7828 -19.7799 -19.7783 -17.6303
   -17.5551 -17.5366 -17.4433 -17.3706 -17.3577 -17.1578 -17.1316 -17.1043
    10.2525  10.6025  11.1568  11.3790  12.3568  12.5446  12.6936  12.9267
    13.0380  13.1797  13.2224  13.3816  14.9182  15.1561  15.1961

          k =-0.0328-0.0984 0.1422 (  3491 PWs)   bands (ev):

   -43.5375 -41.3958 -41.3863 -41.2454 -19.7834 -19.7820 -19.7761 -17.6368
   -17.5909 -17.5004 -17.4298 -17.3638 -17.3527 -17.1947 -17.1146 -17.1023
    10.0150  10.7162  10.8869  11.4269  12.1829  12.4485  12.4613  13.2399
    13.2758  13.4715  13.6187  13.9506  14.6834  14.7402  15.4165

          k =-0.0219-0.0875 0.1313 (  3501 PWs)   bands (ev):

   -43.5375 -41.3925 -41.3879 -41.2471 -19.7836 -19.7811 -19.7772 -17.6451
   -17.5743 -17.5057 -17.4522 -17.3565 -17.3510 -17.1746 -17.1255 -17.1010
    10.3636  10.6397  10.8798  11.2675  12.4485  12.5493  12.6722  13.0252
    13.1865  13.2890  13.4683  13.5434  14.7808  14.9145  15.2686

          k =-0.0109-0.0766 0.1203 (  3499 PWs)   bands (ev):

   -43.5375 -41.3905 -41.3896 -41.2475 -19.7835 -19.7797 -19.7785 -17.6457
   -17.5558 -17.5233 -17.4579 -17.3590 -17.3490 -17.1533 -17.1407 -17.1014
    10.4330  10.6793  10.9698  11.1524  12.5773  12.6143  12.8897  12.8945
    13.0511  13.1992  13.2436  13.3785  14.9714  15.0138  15.0994

          k = 0.0000-0.0656 0.1094 (  3505 PWs)   bands (ev):

   -43.5375 -41.3932 -41.3881 -41.2462 -19.7831 -19.7799 -19.7784 -17.6382
   -17.5475 -17.5388 -17.4487 -17.3681 -17.3497 -17.1591 -17.1334 -17.1032
    10.1733  10.8630  10.9506  11.2866  12.4074  12.5748  12.6787  12.9865
    13.0691  13.2137  13.3322  13.4772  14.7613  15.1773  15.2577

          k =-0.0109-0.0984 0.1422 (  3487 PWs)   bands (ev):

   -43.5374 -41.3923 -41.3872 -41.2482 -19.7842 -19.7824 -19.7759 -17.6500
   -17.5962 -17.4798 -17.4507 -17.3507 -17.3453 -17.1982 -17.1154 -17.0985
    10.5037  10.6363  10.6993  11.1366  12.4914  12.5281  12.5884  12.9641
    13.3716  13.6000  13.6832  13.7781  14.6505  14.6649  15.4505

          k = 0.0000-0.0875 0.1313 (  3486 PWs)   bands (ev):

   -43.5374 -41.3908 -41.3884 -41.2484 -19.7840 -19.7811 -19.7771 -17.6526
   -17.5763 -17.4898 -17.4682 -17.3518 -17.3448 -17.1748 -17.1277 -17.0992
    10.5317  10.7618  10.7956  11.0047  12.5675  12.7405  12.7879  12.7907
    13.2443  13.3351  13.3598  13.5612  14.8400  14.8521  15.2186

          k =-0.0109-0.0766 0.1422 (  3489 PWs)   bands (ev):

   -43.5374 -41.3904 -41.3889 -41.2483 -19.7839 -19.7798 -19.7784 -17.6548
   -17.5486 -17.5229 -17.4648 -17.3491 -17.3473 -17.1581 -17.1402 -17.0998
    10.5666  10.7533  10.7742  11.0438  12.7200  12.7492  12.8034  13.0247
    13.0365  13.0975  13.2542  13.4142  14.9387  15.0735  15.1856

     the Fermi energy is    13.2951 ev

!    total energy              =    -470.35423518 Ry
     Harris-Foulkes estimate   =    -470.35423518 Ry
     estimated scf accuracy    <          3.7E-11 Ry

     The total energy is the sum of the following terms:

     one-electron contribution =    -124.17149007 Ry
     hartree contribution      =      79.29950509 Ry
     xc contribution           =     -69.12131062 Ry
     ewald contribution        =    -356.35960064 Ry
     smearing contrib. (-TS)   =      -0.00133893 Ry

     convergence has been achieved in  43 iterations

     Forces acting on atoms (cartesian axes, Ry/au):

     atom    1 type  2   force =     0.00000000   -0.00000000   -0.00000000
     atom    2 type  1   force =     0.00000000    0.00000000    0.00000000
     atom    3 type  1   force =     0.00000000   -0.00000000    0.00000000
     atom    4 type  1   force =     0.00000000   -0.00000000    0.00000000

     Total force =     0.000000     Total SCF correction =     0.000000


     Computing stress (Cartesian axis) and pressure

          total   stress  (Ry/bohr**3)                   (kbar)     P= -210.97
  -0.00143416  -0.00000000   0.00000000       -210.97     -0.00      0.00
  -0.00000000  -0.00143416   0.00000000         -0.00   -210.97      0.00
  -0.00000000  -0.00000000  -0.00143416         -0.00     -0.00   -210.97


     BFGS Geometry Optimization

     number of scf cycles    =   1
     number of bfgs steps    =   0

     enthalpy new            =    -470.3542351752 Ry

     new trust radius        =       0.1736866183 bohr
     new conv_thr            =            1.0E-10 Ry

     new unit-cell volume =    525.80511 a.u.^3 (    77.91628 Ang^3 )
     density =      6.96015 g/cm^3

CELL_PARAMETERS (alat=  1.88972599)
  -0.000000000   3.389997923   3.389997923
   3.389997923  -0.000000000   3.389997923
   3.389997923   3.389997923  -0.000000000

ATOMIC_POSITIONS (angstrom)
Ti       1.694998962   1.694998962   1.694998962
Nb       3.389997923   3.389997923   3.389997923
Nb       5.084996885   5.084996885   5.084996885
Nb       6.779995846   6.779995846   6.779995846


     NEW-OLD atomic charge density approx. for the potential
     extrapolated charge   45.21284, renormalised to   51.00000

     total cpu time spent up to now is      549.1 secs

     Self-consistent Calculation

     iteration #  1     ecut=    50.00 Ry     beta= 0.60
     Davidson diagonalization with overlap
     c_bands:  1 eigenvalues not converged
     c_bands:  1 eigenvalues not converged
     c_bands:  1 eigenvalues not converged
     c_bands:  1 eigenvalues not converged
     c_bands:  1 eigenvalues not converged
     c_bands:  1 eigenvalues not converged
     c_bands:  1 eigenvalues not converged
     c_bands:  1 eigenvalues not converged
     ethr =  1.00E-06,  avg # of iterations = 14.2

     total cpu time spent up to now is      585.7 secs

     total energy              =    -450.20864693 Ry
     Harris-Foulkes estimate   =    -479.89882556 Ry
     estimated scf accuracy    <      22.60366195 Ry

     iteration #  2     ecut=    50.00 Ry     beta= 0.60
     Davidson diagonalization with overlap
     ethr =  1.00E-02,  avg # of iterations =  7.3

     total cpu time spent up to now is      606.2 secs

     total energy              =    -464.51588082 Ry
     Harris-Foulkes estimate   =    -494.70920911 Ry
     estimated scf accuracy    <      88.61301138 Ry

     iteration #  3     ecut=    50.00 Ry     beta= 0.60
     Davidson diagonalization with overlap
     ethr =  1.00E-02,  avg # of iterations =  4.2

     total cpu time spent up to now is      622.8 secs

     total energy              =    -471.92893426 Ry
     Harris-Foulkes estimate   =    -473.58678644 Ry
     estimated scf accuracy    <       7.57315919 Ry

     iteration #  4     ecut=    50.00 Ry     beta= 0.60
     Davidson diagonalization with overlap
     ethr =  1.00E-02,  avg # of iterations =  1.0

     total cpu time spent up to now is      633.4 secs

     total energy              =    -471.45178152 Ry
     Harris-Foulkes estimate   =    -472.05765116 Ry
     estimated scf accuracy    <       4.93088106 Ry

     iteration #  5     ecut=    50.00 Ry     beta= 0.60
     Davidson diagonalization with overlap
     ethr =  9.67E-03,  avg # of iterations =  1.0

     total cpu time spent up to now is      643.9 secs

     total energy              =    -470.66573551 Ry
     Harris-Foulkes estimate   =    -471.51205676 Ry
     estimated scf accuracy    <       3.68748385 Ry

     iteration #  6     ecut=    50.00 Ry     beta= 0.60
     Davidson diagonalization with overlap
     ethr =  7.23E-03,  avg # of iterations =  1.0

     total cpu time spent up to now is      654.2 secs

     total energy              =    -470.64368449 Ry
     Harris-Foulkes estimate   =    -470.72204056 Ry
     estimated scf accuracy    <       2.17368772 Ry

     iteration #  7     ecut=    50.00 Ry     beta= 0.60
     Davidson diagonalization with overlap
     ethr =  4.26E-03,  avg # of iterations =  1.2

     total cpu time spent up to now is      664.6 secs

     total energy              =    -470.28324703 Ry
     Harris-Foulkes estimate   =    -470.67113494 Ry
     estimated scf accuracy    <       1.92733246 Ry

     iteration #  8     ecut=    50.00 Ry     beta= 0.60
     Davidson diagonalization with overlap
     ethr =  3.78E-03,  avg # of iterations =  3.1

     total cpu time spent up to now is      676.3 secs

     total energy              =    -470.51312799 Ry
     Harris-Foulkes estimate   =    -470.42217298 Ry
     estimated scf accuracy    <       0.38052750 Ry

     iteration #  9     ecut=    50.00 Ry     beta= 0.60
     Davidson diagonalization with overlap
     ethr =  7.46E-04,  avg # of iterations =  4.7

     total cpu time spent up to now is      690.5 secs

     total energy              =    -470.55620456 Ry
     Harris-Foulkes estimate   =    -470.56638177 Ry
     estimated scf accuracy    <       0.69068127 Ry

     iteration # 10     ecut=    50.00 Ry     beta= 0.60
     Davidson diagonalization with overlap
     ethr =  7.46E-04,  avg # of iterations =  1.0

     total cpu time spent up to now is      700.6 secs

     total energy              =    -470.03482760 Ry
     Harris-Foulkes estimate   =    -470.55740503 Ry
     estimated scf accuracy    <       0.64558321 Ry

     iteration # 11     ecut=    50.00 Ry     beta= 0.60
     Davidson diagonalization with overlap
     ethr =  7.46E-04,  avg # of iterations =  4.8

     total cpu time spent up to now is      718.5 secs

     total energy              =    -467.61276823 Ry
     Harris-Foulkes estimate   =    -472.55346620 Ry
     estimated scf accuracy    <      29.33011775 Ry

     iteration # 12     ecut=    50.00 Ry     beta= 0.60
     Davidson diagonalization with overlap
     ethr =  7.46E-04,  avg # of iterations =  6.6

     total cpu time spent up to now is      737.8 secs

     total energy              =    -471.11299445 Ry
     Harris-Foulkes estimate   =    -470.56393496 Ry
     estimated scf accuracy    <       0.90782026 Ry

     iteration # 13     ecut=    50.00 Ry     beta= 0.60
     Davidson diagonalization with overlap
     ethr =  7.46E-04,  avg # of iterations =  4.9

     total cpu time spent up to now is      753.4 secs

     total energy              =    -470.97811598 Ry
     Harris-Foulkes estimate   =    -471.28904871 Ry
     estimated scf accuracy    <       3.24265084 Ry

     iteration # 14     ecut=    50.00 Ry     beta= 0.60
     Davidson diagonalization with overlap
     ethr =  7.46E-04,  avg # of iterations =  1.0

     total cpu time spent up to now is      763.5 secs

     total energy              =    -470.56763581 Ry
     Harris-Foulkes estimate   =    -470.98533081 Ry
     estimated scf accuracy    <       2.67724025 Ry

     iteration # 15     ecut=    50.00 Ry     beta= 0.60
     Davidson diagonalization with overlap
     ethr =  7.46E-04,  avg # of iterations =  3.1

     total cpu time spent up to now is      776.3 secs

     total energy              =    -470.41831029 Ry
     Harris-Foulkes estimate   =    -470.61984061 Ry
     estimated scf accuracy    <       1.29705472 Ry

     iteration # 16     ecut=    50.00 Ry     beta= 0.60
     Davidson diagonalization with overlap
     ethr =  7.46E-04,  avg # of iterations =  2.9

     total cpu time spent up to now is      787.6 secs

     total energy              =    -470.28689254 Ry
     Harris-Foulkes estimate   =    -470.44518850 Ry
     estimated scf accuracy    <       0.53658982 Ry

     iteration # 17     ecut=    50.00 Ry     beta= 0.60
     Davidson diagonalization with overlap
     ethr =  7.46E-04,  avg # of iterations =  4.3

     total cpu time spent up to now is      803.3 secs

     total energy              =    -470.40722336 Ry
     Harris-Foulkes estimate   =    -470.49736344 Ry
     estimated scf accuracy    <       1.31091642 Ry

     iteration # 18     ecut=    50.00 Ry     beta= 0.60
     Davidson diagonalization with overlap
     ethr =  7.46E-04,  avg # of iterations =  1.0

     total cpu time spent up to now is      813.7 secs

     total energy              =    -470.54454558 Ry
     Harris-Foulkes estimate   =    -470.43037988 Ry
     estimated scf accuracy    <       0.31455066 Ry

     iteration # 19     ecut=    50.00 Ry     beta= 0.60
     Davidson diagonalization with overlap
     ethr =  6.17E-04,  avg # of iterations =  4.0

     total cpu time spent up to now is      826.8 secs

     total energy              =    -470.65867622 Ry
     Harris-Foulkes estimate   =    -470.68926527 Ry
     estimated scf accuracy    <       5.12229771 Ry

     iteration # 20     ecut=    50.00 Ry     beta= 0.60
     Davidson diagonalization with overlap
     ethr =  6.17E-04,  avg # of iterations =  1.0

     total cpu time spent up to now is      837.1 secs

     total energy              =    -470.58041409 Ry
     Harris-Foulkes estimate   =    -470.66167565 Ry
     estimated scf accuracy    <       4.72783828 Ry

     iteration # 21     ecut=    50.00 Ry     beta= 0.60
     Davidson diagonalization with overlap
     ethr =  6.17E-04,  avg # of iterations =  1.0

     total cpu time spent up to now is      847.5 secs

     total energy              =    -470.53083776 Ry
     Harris-Foulkes estimate   =    -470.58832802 Ry
     estimated scf accuracy    <       3.38388142 Ry

     iteration # 22     ecut=    50.00 Ry     beta= 0.60
     Davidson diagonalization with overlap
     ethr =  6.17E-04,  avg # of iterations =  1.0

     total cpu time spent up to now is      857.9 secs

     total energy              =    -470.54312192 Ry
     Harris-Foulkes estimate   =    -470.53668807 Ry
     estimated scf accuracy    <       2.38730422 Ry

     iteration # 23     ecut=    50.00 Ry     beta= 0.60
     Davidson diagonalization with overlap
     ethr =  6.17E-04,  avg # of iterations =  1.0

     total cpu time spent up to now is      868.3 secs

     total energy              =    -470.14973237 Ry
     Harris-Foulkes estimate   =    -470.54427202 Ry
     estimated scf accuracy    <       2.43364049 Ry

     iteration # 24     ecut=    50.00 Ry     beta= 0.60
     Davidson diagonalization with overlap
     ethr =  6.17E-04,  avg # of iterations =  5.2

     total cpu time spent up to now is      884.1 secs

     total energy              =    -470.40558851 Ry
     Harris-Foulkes estimate   =    -470.45043798 Ry
     estimated scf accuracy    <       0.28302319 Ry

     iteration # 25     ecut=    50.00 Ry     beta= 0.60
     Davidson diagonalization with overlap
     ethr =  5.55E-04,  avg # of iterations =  1.0

     total cpu time spent up to now is      894.5 secs

     total energy              =    -470.40893318 Ry
     Harris-Foulkes estimate   =    -470.41818022 Ry
     estimated scf accuracy    <       0.04104265 Ry

     iteration # 26     ecut=    50.00 Ry     beta= 0.60
     Davidson diagonalization with overlap
     ethr =  8.05E-05,  avg # of iterations =  5.0

     total cpu time spent up to now is      910.9 secs

     total energy              =    -470.41092603 Ry
     Harris-Foulkes estimate   =    -470.43804640 Ry
     estimated scf accuracy    <       0.19390688 Ry

     iteration # 27     ecut=    50.00 Ry     beta= 0.60
     Davidson diagonalization with overlap
     ethr =  8.05E-05,  avg # of iterations =  4.3

     total cpu time spent up to now is      924.3 secs

     total energy              =    -470.42484505 Ry
     Harris-Foulkes estimate   =    -470.42392201 Ry
     estimated scf accuracy    <       0.00126190 Ry

     iteration # 28     ecut=    50.00 Ry     beta= 0.60
     Davidson diagonalization with overlap
     c_bands:  1 eigenvalues not converged
     c_bands:  1 eigenvalues not converged
     c_bands:  1 eigenvalues not converged
     c_bands:  1 eigenvalues not converged
     ethr =  2.47E-06,  avg # of iterations =  8.2

     total cpu time spent up to now is      945.9 secs

     total energy              =    -470.44680219 Ry
     Harris-Foulkes estimate   =    -470.44158944 Ry
     estimated scf accuracy    <       0.17192364 Ry

     iteration # 29     ecut=    50.00 Ry     beta= 0.60
     Davidson diagonalization with overlap
     ethr =  2.47E-06,  avg # of iterations =  5.2

     total cpu time spent up to now is      961.3 secs

     total energy              =    -470.43893430 Ry
     Harris-Foulkes estimate   =    -470.44723321 Ry
     estimated scf accuracy    <       0.22886281 Ry

     iteration # 30     ecut=    50.00 Ry     beta= 0.60
     Davidson diagonalization with overlap
     ethr =  2.47E-06,  avg # of iterations =  5.2

     total cpu time spent up to now is      980.5 secs

     total energy              =    -470.41549320 Ry
     Harris-Foulkes estimate   =    -470.43956867 Ry
     estimated scf accuracy    <       0.16723569 Ry

     iteration # 31     ecut=    50.00 Ry     beta= 0.60
     Davidson diagonalization with overlap
     ethr =  2.47E-06,  avg # of iterations =  6.3

     total cpu time spent up to now is     1000.6 secs

     total energy              =    -470.42433959 Ry
     Harris-Foulkes estimate   =    -470.42438222 Ry
     estimated scf accuracy    <       0.00526122 Ry

     iteration # 32     ecut=    50.00 Ry     beta= 0.60
     Davidson diagonalization with overlap
     ethr =  2.47E-06,  avg # of iterations =  1.0

     total cpu time spent up to now is     1010.7 secs

     total energy              =    -470.42476678 Ry
     Harris-Foulkes estimate   =    -470.42437562 Ry
     estimated scf accuracy    <       0.00570125 Ry

     iteration # 33     ecut=    50.00 Ry     beta= 0.60
     Davidson diagonalization with overlap
     ethr =  2.47E-06,  avg # of iterations =  2.3

     total cpu time spent up to now is     1021.4 secs

     total energy              =    -470.42329994 Ry
     Harris-Foulkes estimate   =    -470.42484510 Ry
     estimated scf accuracy    <       0.01082508 Ry

     iteration # 34     ecut=    50.00 Ry     beta= 0.60
     Davidson diagonalization with overlap
     ethr =  2.47E-06,  avg # of iterations =  4.4

     total cpu time spent up to now is     1035.9 secs

     total energy              =    -470.42389425 Ry
     Harris-Foulkes estimate   =    -470.42392663 Ry
     estimated scf accuracy    <       0.00015506 Ry

     iteration # 35     ecut=    50.00 Ry     beta= 0.60
     Davidson diagonalization with overlap
     ethr =  3.04E-07,  avg # of iterations =  3.8

     total cpu time spent up to now is     1047.7 secs

     total energy              =    -470.42391673 Ry
     Harris-Foulkes estimate   =    -470.42391924 Ry
     estimated scf accuracy    <       0.00003364 Ry

     iteration # 36     ecut=    50.00 Ry     beta= 0.60
     Davidson diagonalization with overlap
     ethr =  6.60E-08,  avg # of iterations =  3.5

     total cpu time spent up to now is     1059.6 secs

     total energy              =    -470.42391106 Ry
     Harris-Foulkes estimate   =    -470.42391975 Ry
     estimated scf accuracy    <       0.00003530 Ry

     iteration # 37     ecut=    50.00 Ry     beta= 0.60
     Davidson diagonalization with overlap
     ethr =  6.60E-08,  avg # of iterations =  3.6

     total cpu time spent up to now is     1071.8 secs

     total energy              =    -470.42391610 Ry
     Harris-Foulkes estimate   =    -470.42391780 Ry
     estimated scf accuracy    <       0.00001000 Ry

     iteration # 38     ecut=    50.00 Ry     beta= 0.60
     Davidson diagonalization with overlap
     ethr =  1.96E-08,  avg # of iterations =  2.4

     total cpu time spent up to now is     1082.6 secs

     total energy              =    -470.42391688 Ry
     Harris-Foulkes estimate   =    -470.42391694 Ry
     estimated scf accuracy    <       0.00000035 Ry

     iteration # 39     ecut=    50.00 Ry     beta= 0.60
     Davidson diagonalization with overlap
     ethr =  6.91E-10,  avg # of iterations =  4.9

     total cpu time spent up to now is     1097.3 secs

     total energy              =    -470.42391714 Ry
     Harris-Foulkes estimate   =    -470.42391716 Ry
     estimated scf accuracy    <       0.00000027 Ry

     iteration # 40     ecut=    50.00 Ry     beta= 0.60
     Davidson diagonalization with overlap
     ethr =  5.21E-10,  avg # of iterations =  1.0

     total cpu time spent up to now is     1107.3 secs

     total energy              =    -470.42391712 Ry
     Harris-Foulkes estimate   =    -470.42391714 Ry
     estimated scf accuracy    <       0.00000012 Ry

     iteration # 41     ecut=    50.00 Ry     beta= 0.60
     Davidson diagonalization with overlap
     ethr =  2.43E-10,  avg # of iterations =  3.7

     total cpu time spent up to now is     1119.6 secs

     total energy              =    -470.42391714 Ry
     Harris-Foulkes estimate   =    -470.42391714 Ry
     estimated scf accuracy    <       0.00000004 Ry

     iteration # 42     ecut=    50.00 Ry     beta= 0.60
     Davidson diagonalization with overlap
     ethr =  6.87E-11,  avg # of iterations =  1.6

     total cpu time spent up to now is     1129.9 secs

     total energy              =    -470.42391714 Ry
     Harris-Foulkes estimate   =    -470.42391714 Ry
     estimated scf accuracy    <       0.00000002 Ry

     iteration # 43     ecut=    50.00 Ry     beta= 0.60
     Davidson diagonalization with overlap
     ethr =  3.59E-11,  avg # of iterations =  2.2

     total cpu time spent up to now is     1140.6 secs

     total energy              =    -470.42391714 Ry
     Harris-Foulkes estimate   =    -470.42391714 Ry
     estimated scf accuracy    <          5.7E-09 Ry

     iteration # 44     ecut=    50.00 Ry     beta= 0.60
     Davidson diagonalization with overlap
     ethr =  1.11E-11,  avg # of iterations =  3.4

     total cpu time spent up to now is     1152.3 secs

     End of self-consistent calculation

          k = 0.0000 0.0000 0.0000 (  3479 PWs)   bands (ev):

   -41.3773 -39.3174 -39.2234 -39.0596 -17.6511 -17.6511 -17.6511 -15.4695
   -15.4695 -15.4695 -15.3923 -15.3923 -15.3923 -14.9469 -14.9469 -14.9469
     9.4044  12.2318  12.2318  13.8995  13.8995  13.8995  14.4700  14.4700
    14.4700  15.7314  15.7314  15.7314  17.8596  17.8596  18.5670

          k = 0.0113 0.0113-0.0113 (  3509 PWs)   bands (ev):

   -41.3772 -39.3152 -39.2239 -39.0615 -17.6515 -17.6515 -17.6512 -15.4939
   -15.4815 -15.4815 -15.3805 -15.3805 -15.3579 -14.9572 -14.9462 -14.9462
     9.4842  12.2812  12.2812  13.7754  13.8899  13.8899  14.4883  14.4883
    14.4928  15.6986  15.6986  15.8055  17.8391  17.8391  18.5452

          k = 0.0227 0.0227-0.0227 (  3521 PWs)   bands (ev):

   -41.3769 -39.3087 -39.2256 -39.0668 -17.6524 -17.6524 -17.6514 -15.5212
   -15.5053 -15.5053 -15.3576 -15.3576 -15.3066 -14.9820 -14.9441 -14.9441
     9.7182  12.4259  12.4259  13.5515  13.8766  13.8766  14.4223  14.5240
    14.5240  15.5959  15.5959  16.0356  17.7910  17.7910  18.3774

          k = 0.0340 0.0340-0.0340 (  3521 PWs)   bands (ev):

   -41.3765 -39.2988 -39.2284 -39.0747 -17.6536 -17.6536 -17.6514 -15.5311
   -15.5297 -15.5297 -15.3346 -15.3346 -15.2746 -15.0055 -14.9410 -14.9410
    10.0900  12.6549  12.6549  13.3829  13.8872  13.8872  14.1560  14.5378
    14.5378  15.4185  15.4185  16.4292  17.3413  17.7488  17.7488

          k = 0.0454 0.0454-0.0454 (  3506 PWs)   bands (ev):

   -41.3761 -39.2867 -39.2322 -39.0839 -17.6549 -17.6549 -17.6510 -15.5502
   -15.5502 -15.5262 -15.3156 -15.3156 -15.2736 -15.0131 -14.9375 -14.9374
    10.5750  12.9484  12.9484  13.3115  13.7534  13.9402  13.9402  14.4942
    14.4942  15.1789  15.1789  16.3175  16.9839  17.7422  17.7422

          k = 0.0567 0.0567-0.0567 (  3489 PWs)   bands (ev):

   -41.3757 -39.2743 -39.2370 -39.0922 -17.6560 -17.6560 -17.6503 -15.5649
   -15.5649 -15.5161 -15.3024 -15.3024 -15.2896 -15.0088 -14.9344 -14.9344
    11.1429  13.0091  13.2710  13.2710  13.6471  14.0368  14.0368  14.3749
    14.3749  14.9185  14.9185  15.4043  17.6741  17.7754  17.7754

          k = 0.0681 0.0681-0.0681 (  3501 PWs)   bands (ev):

   -41.3755 -39.2649 -39.2418 -39.0972 -17.6566 -17.6566 -17.6497 -15.5725
   -15.5725 -15.5097 -15.3016 -15.2957 -15.2957 -15.0043 -14.9326 -14.9326
    11.7570  12.4177  13.5422  13.5422  13.9498  14.1403  14.1403  14.2182
    14.2182  14.6782  14.7179  14.7179  17.8190  17.8190  18.1655

          k = 0.0227 0.0000 0.0000 (  3523 PWs)   bands (ev):

   -41.3772 -39.3145 -39.2241 -39.0621 -17.6520 -17.6520 -17.6504 -15.5007
   -15.5007 -15.4678 -15.3816 -15.3609 -15.3609 -14.9612 -14.9458 -14.9458
     9.5108  12.2903  12.3036  13.7639  13.8671  13.8671  14.3061  14.6014
    14.6014  15.7196  15.7196  15.7694  17.7682  17.8873  18.5174

          k = 0.0340 0.0113-0.0113 (  3522 PWs)   bands (ev):

   -41.3769 -39.3094 -39.2254 -39.0663 -17.6531 -17.6529 -17.6500 -15.5264
   -15.5250 -15.4760 -15.3703 -15.3368 -15.3191 -14.9825 -14.9439 -14.9438
     9.6932  12.3962  12.4188  13.5658  13.8384  13.8492  14.1920  14.6754
    14.7191  15.6282  15.6708  15.9362  17.6598  17.8951  18.4654

          k = 0.0454 0.0227-0.0227 (  3519 PWs)   bands (ev):

   -41.3766 -39.3006 -39.2278 -39.0735 -17.6545 -17.6539 -17.6500 -15.5476
   -15.5418 -15.4962 -15.3506 -15.3153 -15.2807 -15.0078 -14.9408 -14.9407
    10.0180  12.5894  12.6169  13.3645  13.7592  13.8563  14.1450  14.6111
    14.7975  15.4651  15.5337  16.2760  17.5617  17.6918  17.8814

          k = 0.0567 0.0340-0.0340 (  3515 PWs)   bands (ev):

   -41.3762 -39.2892 -39.2311 -39.0823 -17.6558 -17.6548 -17.6502 -15.5654
[...]

   -39.4580 -37.3818 -37.3408 -37.2310 -15.8005 -15.7976 -15.7636 -13.9130
   -13.9076 -13.6406 -13.4736 -13.3631 -13.3527 -13.1977 -12.9918 -12.9815
    13.3761  13.5905  13.8712  14.8209  15.0482  15.4864  15.6250  16.6676
    17.1009  17.6931  17.7226  18.0201  18.1411  18.7458  19.2204

          k =-0.0234-0.1169 0.1169 (  2873 PWs)   bands (ev):

   -39.4577 -37.3678 -37.3465 -37.2399 -15.7996 -15.7937 -15.7680 -13.9174
   -13.9000 -13.6376 -13.5273 -13.3743 -13.3378 -13.1388 -13.0082 -12.9798
    13.5127  13.7909  13.9086  14.7793  15.3066  15.6026  15.9233  16.2424
    16.9315  17.2414  17.2901  17.6294  18.4493  18.7064  19.2895

          k =-0.0117-0.1052 0.1052 (  2872 PWs)   bands (ev):

   -39.4577 -37.3620 -37.3521 -37.2402 -15.7967 -15.7883 -15.7737 -13.9103
   -13.8836 -13.6686 -13.5369 -13.3939 -13.3299 -13.0856 -13.0344 -12.9814
    13.4309  13.9811  14.2048  14.6334  15.4632  15.6521  16.0254  16.3379
    16.7565  16.7861  16.9482  17.2750  18.7857  18.8449  18.8748

          k = 0.0000-0.0935 0.0935 (  2886 PWs)   bands (ev):

   -39.4579 -37.3739 -37.3483 -37.2317 -15.7926 -15.7831 -15.7795 -13.8870
   -13.8605 -13.7174 -13.5213 -13.4193 -13.3311 -13.0656 -13.0425 -12.9858
    13.2786  14.1459  14.4848  14.4995  15.4299  15.5675  16.1412  16.2404
    16.5207  16.8390  16.9234  16.9812  18.5811  19.1214  19.1412

          k = 0.1169 0.0000 0.0000 (  2862 PWs)   bands (ev):

   -39.4580 -37.3857 -37.3381 -37.2297 -15.8029 -15.8029 -15.7591 -13.9183
   -13.9183 -13.6419 -13.3506 -13.3506 -13.3479 -13.3313 -12.9791 -12.9791
    13.2863  13.4713  13.7711  14.7735  15.0101  15.4187  15.4187  17.2113
    17.4832  17.4832  18.2761  18.2761  18.5771  18.6727  18.6727

          k = 0.1286 0.0117-0.0117 (  2870 PWs)   bands (ev):

   -39.4577 -37.3729 -37.3401 -37.2412 -15.8047 -15.8038 -15.7594 -13.9259
   -13.9223 -13.6293 -13.4293 -13.3488 -13.3305 -13.2733 -12.9782 -12.9745
    13.3655  13.6419  13.6749  14.7420  15.3047  15.4645  15.4978  16.6963
    17.4356  17.7250  18.0644  18.2338  18.5066  18.5233  19.0073

          k =-0.0117-0.1286 0.1286 (  2873 PWs)   bands (ev):

   -39.4575 -37.3625 -37.3434 -37.2487 -15.8041 -15.8007 -15.7625 -13.9326
   -13.9173 -13.6039 -13.5150 -13.3563 -13.3214 -13.2024 -12.9899 -12.9733
    13.3749  13.6319  14.0075  14.6341  15.4664  15.6463  15.6918  16.2162
    17.2791  17.5600  17.8836  18.1152  18.2294  18.3499  19.5160

          k = 0.0000-0.1169 0.1169 (  2874 PWs)   bands (ev):

   -39.4575 -37.3565 -37.3497 -37.2484 -15.8012 -15.7948 -15.7678 -13.9303
   -13.9038 -13.5970 -13.5684 -13.3721 -13.3209 -13.1363 -13.0121 -12.9758
    13.4112  13.7612  14.2323  14.5192  15.5164  15.8345  15.8746  15.9921
    17.1105  17.1369  17.3548  17.7789  18.4377  18.4853  19.1867

          k = 0.1403 0.0000 0.0000 (  2886 PWs)   bands (ev):

   -39.4575 -37.3651 -37.3403 -37.2492 -15.8070 -15.8070 -15.7576 -13.9292
   -13.9292 -13.6301 -13.3744 -13.3426 -13.3426 -13.3179 -12.9703 -12.9703
    13.2660  13.5241  13.9461  14.6377  15.4546  15.4546  15.6119  16.4753
    17.6538  17.6538  18.1066  18.1066  18.8063  18.8063  19.0300

          k = 0.0000-0.1403 0.1403 (  2884 PWs)   bands (ev):

   -39.4574 -37.3612 -37.3413 -37.2522 -15.8068 -15.8058 -15.7587 -13.9327
   -13.9275 -13.6191 -13.4453 -13.3453 -13.3148 -13.2777 -12.9745 -12.9698
    13.2748  13.5177  14.1042  14.5563  15.4696  15.5210  15.8026  16.1977
    17.5846  17.8026  17.8492  18.0811  18.5846  18.6815  19.3752

          k = 0.0468 0.0234-0.0000 (  2847 PWs)   bands (ev):

   -39.4611 -37.4556 -37.3260 -37.1661 -15.7817 -15.7799 -15.7717 -13.8019
   -13.7990 -13.7116 -13.5342 -13.4562 -13.4431 -13.0999 -13.0093 -13.0088
    11.4666  13.7954  13.8694  14.8991  15.2299  15.4223  15.6663  16.4884
    16.6047  17.1984  17.3401  17.8477  19.3949  19.8849  20.2897

          k = 0.0584 0.0351-0.0117 (  2860 PWs)   bands (ev):

   -39.4603 -37.4407 -37.3299 -37.1786 -15.7845 -15.7820 -15.7720 -13.8242
   -13.8123 -13.7316 -13.5092 -13.4371 -13.4028 -13.1288 -13.0063 -13.0052
    11.8539  14.0106  14.1304  14.7114  15.0680  15.4348  15.6458  16.4513
    16.6925  17.0024  17.1841  18.2521  19.2732  19.2821  19.8736

          k = 0.0701 0.0468-0.0234 (  2873 PWs)   bands (ev):

   -39.4595 -37.4222 -37.3352 -37.1933 -15.7864 -15.7837 -15.7731 -13.8428
   -13.8117 -13.7533 -13.4782 -13.4406 -13.3913 -13.1271 -13.0038 -13.0019
    12.3447  14.2498  14.4193  14.6816  14.8986  15.4805  15.6816  16.2808
    16.6685  16.7582  16.9200  18.1984  18.8515  19.2746  19.7608

          k = 0.0818 0.0584-0.0351 (  2874 PWs)   bands (ev):

   -39.4588 -37.4030 -37.3420 -37.2071 -15.7875 -15.7844 -15.7741 -13.8550
   -13.8133 -13.7667 -13.4607 -13.4467 -13.3923 -13.1074 -13.0050 -12.9992
    12.8951  14.3023  14.6048  14.7869  14.9663  15.5768  15.7525  16.0944
    16.4814  16.5286  16.6448  17.2543  19.3511  19.5723  19.6386

          k =-0.0584-0.0818 0.1052 (  2874 PWs)   bands (ev):

   -39.4584 -37.3884 -37.3488 -37.2158 -15.7881 -15.7845 -15.7745 -13.8614
   -13.8172 -13.7732 -13.4707 -13.4249 -13.3989 -13.0918 -13.0087 -12.9974
    13.4544  13.9654  14.7202  14.9089  15.2711  15.6871  15.8411  16.0224
    16.2541  16.3412  16.4665  16.5768  19.4978  19.5278  19.6041

          k = 0.0701 0.0234-0.0000 (  2863 PWs)   bands (ev):

   -39.4600 -37.4355 -37.3306 -37.1837 -15.7877 -15.7869 -15.7677 -13.8529
   -13.8453 -13.6939 -13.4766 -13.4207 -13.3951 -13.1606 -13.0034 -13.0033
    11.9862  14.0577  14.1239  14.5989  14.8369  15.3914  15.4259  16.9435
    17.0393  17.1558  17.2735  18.1396  18.8834  19.5301  19.7011

          k = 0.0818 0.0351-0.0117 (  2867 PWs)   bands (ev):

   -39.4593 -37.4186 -37.3348 -37.1978 -15.7901 -15.7888 -15.7684 -13.8728
   -13.8469 -13.7040 -13.4535 -13.4328 -13.3742 -13.1612 -13.0001 -12.9988
    12.4205  14.0905  14.3707  14.5933  14.6769  15.4419  15.5311  16.8299
    16.9905  17.0510  17.1132  18.5962  18.6436  18.8266  19.3661

          k = 0.0935 0.0468-0.0234 (  2875 PWs)   bands (ev):

   -39.4586 -37.4000 -37.3403 -37.2122 -15.7918 -15.7883 -15.7707 -13.8881
   -13.8403 -13.7176 -13.4697 -13.4214 -13.3713 -13.1332 -13.0025 -12.9948
    12.9111  14.0435  14.4236  14.6058  14.9483  15.5292  15.7079  16.5903
    16.7088  16.8566  16.9664  17.6927  18.9167  19.1911  19.3311

          k =-0.0468-0.0935 0.1169 (  2881 PWs)   bands (ev):

   -39.4582 -37.3834 -37.3470 -37.2229 -15.7923 -15.7860 -15.7739 -13.8970
   -13.8296 -13.7361 -13.4911 -13.4011 -13.3755 -13.1012 -13.0124 -12.9921
    13.4028  13.8838  14.3964  14.7510  15.2584  15.6427  15.9565  16.3265
    16.4467  16.6511  16.7289  17.0173  19.0986  19.1590  19.3772

          k =-0.0351-0.0818 0.1052 (  2871 PWs)   bands (ev):

   -39.4581 -37.3775 -37.3503 -37.2257 -15.7914 -15.7839 -15.7766 -13.8963
   -13.8135 -13.7583 -13.4973 -13.4062 -13.3684 -13.0837 -13.0207 -12.9916
    13.5727  13.8417  14.4512  14.7578  15.4233  15.7064  16.0607  16.1921
    16.3685  16.5100  16.6410  16.7421  19.0971  19.2640  19.3290

          k =-0.0234-0.0701 0.0935 (  2867 PWs)   bands (ev):

   -39.4583 -37.3887 -37.3452 -37.2192 -15.7897 -15.7846 -15.7764 -13.8844
   -13.7963 -13.7756 -13.4914 -13.4299 -13.3581 -13.0955 -13.0140 -12.9932
    13.1652  14.1445  14.4816  14.6745  15.2432  15.6817  15.8302  16.2785
    16.3720  16.7058  16.7163  17.1237  18.9415  19.3648  19.4829

          k =-0.0117-0.0584 0.0818 (  2870 PWs)   bands (ev):

   -39.4589 -37.4067 -37.3389 -37.2064 -15.7875 -15.7862 -15.7743 -13.8645
   -13.8052 -13.7639 -13.4710 -13.4593 -13.3567 -13.1208 -13.0051 -12.9967
    12.7038  14.2230  14.4857  14.6826  14.8909  15.6016  15.6723  16.3912
    16.5929  16.7800  16.8842  17.9407  18.9510  19.1766  19.2674

          k = 0.0000-0.0468 0.0701 (  2864 PWs)   bands (ev):

   -39.4596 -37.4251 -37.3338 -37.1917 -15.7868 -15.7843 -15.7726 -13.8420
   -13.8183 -13.7442 -13.4884 -13.4442 -13.3710 -13.1376 -13.0031 -13.0011
    12.2473  14.1514  14.3791  14.6353  14.8543  15.5075  15.6210  16.4824
    16.7802  16.8140  17.0757  18.6227  18.8222  19.1932  19.2217

          k = 0.0935 0.0234-0.0000 (  2872 PWs)   bands (ev):

   -39.4589 -37.4102 -37.3353 -37.2063 -15.7947 -15.7945 -15.7640 -13.8972
   -13.8789 -13.6685 -13.4180 -13.4111 -13.3627 -13.2117 -12.9942 -12.9932
    12.6370  13.8500  14.2705  14.5045  14.7118  15.4268  15.4325  17.1075
    17.1597  17.5135  17.5655  18.3111  18.5025  18.8391  19.0618

          k = 0.1052 0.0351-0.0117 (  2872 PWs)   bands (ev):

   -39.4583 -37.3932 -37.3393 -37.2204 -15.7968 -15.7945 -15.7657 -13.9161
   -13.8725 -13.6666 -13.4689 -13.3871 -13.3539 -13.1803 -12.9953 -12.9884
    13.0679  13.7661  14.0880  14.6786  14.9621  15.5007  15.5935  16.8131
    16.9396  17.4098  17.5113  18.0824  18.4106  18.8354  19.0747

          k =-0.0351-0.1052 0.1286 (  2875 PWs)   bands (ev):

   -39.4579 -37.3769 -37.3447 -37.2322 -15.7972 -15.7916 -15.7695 -13.9294
   -13.8594 -13.6735 -13.5115 -13.3723 -13.3534 -13.1338 -13.0075 -12.9855
    13.4836  13.7148  14.0315  14.7217  15.2758  15.6058  15.8614  16.4381
    16.7741  17.1123  17.2236  17.4586  18.6389  18.7989  19.4075

          k =-0.0234-0.0935 0.1169 (  2873 PWs)   bands (ev):

   -39.4578 -37.3664 -37.3507 -37.2370 -15.7959 -15.7869 -15.7747 -13.9319
   -13.8400 -13.6994 -13.5258 -13.3827 -13.3433 -13.0894 -13.0293 -12.9850
    13.5580  13.8712  14.1331  14.6439  15.5118  15.7063  16.1666  16.2348
    16.6465  16.7261  16.8785  17.1239  18.9076  18.9256  19.0146

          k =-0.0117-0.0818 0.1052 (  2878 PWs)   bands (ev):

   -39.4579 -37.3730 -37.3485 -37.2323 -15.7934 -15.7824 -15.7797 -13.9195
   -13.8144 -13.7369 -13.5202 -13.4056 -13.3362 -13.0735 -13.0368 -12.9872
    13.3550  14.0992  14.3118  14.5238  15.5126  15.6875  16.1752  16.1992
    16.5110  16.8124  16.8654  16.9402  18.6723  19.1702  19.2080

          k = 0.0000-0.0701 0.0935 (  2874 PWs)   bands (ev):

   -39.4583 -37.3892 -37.3433 -37.2206 -15.7901 -15.7849 -15.7772 -13.8943
   -13.7866 -13.7751 -13.5015 -13.4330 -13.3390 -13.0987 -13.0162 -12.9914
    13.0610  14.1817  14.4810  14.5018  15.2356  15.6776  15.8254  16.3647
    16.4822  16.8372  16.8436  17.4918  18.5571  19.3405  19.4823

          k = 0.1169 0.0234 0.0000 (  2871 PWs)   bands (ev):

   -39.4580 -37.3836 -37.3393 -37.2307 -15.8014 -15.8005 -15.7615 -13.9282
   -13.9003 -13.6392 -13.4462 -13.3564 -13.3437 -13.2391 -12.9848 -12.9813
    13.3269  13.5402  13.8175  14.7660  15.0619  15.4879  15.4898  16.8807
    17.1966  17.9356  17.9399  18.0405  18.3147  18.6049  18.9287

          k =-0.0234-0.1169 0.1403 (  2878 PWs)   bands (ev):

   -39.4577 -37.3698 -37.3427 -37.2418 -15.8019 -15.7985 -15.7642 -13.9461
   -13.8872 -13.6237 -13.5149 -13.3498 -13.3340 -13.1889 -12.9933 -12.9788
    13.4766  13.7193  13.7576  14.6971  15.3851  15.5740  15.6804  16.4741
    17.0404  17.5629  17.7674  17.9401  18.2300  18.5059  19.5081

          k =-0.0117-0.1052 0.1286 (  2872 PWs)   bands (ev):

   -39.4575 -37.3593 -37.3483 -37.2470 -15.8004 -15.7934 -15.7691 -13.9540
   -13.8682 -13.6288 -13.5557 -13.3608 -13.3259 -13.1311 -13.0145 -12.9791
    13.4827  13.7979  14.0514  14.5458  15.5789  15.7512  15.9905  16.1202
    16.9222  17.1100  17.2645  17.6133  18.5370  18.6016  19.2343

          k = 0.0000-0.0935 0.1169 (  2874 PWs)   bands (ev):

   -39.4576 -37.3589 -37.3524 -37.2431 -15.7973 -15.7871 -15.7752 -13.9453
   -13.8432 -13.6801 -13.5441 -13.3808 -13.3259 -13.0788 -13.0428 -12.9821
    13.4496  13.9737  14.2573  14.4117  15.6518  15.7503  16.0463  16.3883
    16.6937  16.7880  16.8886  17.2420  18.8389  18.8473  18.8780

          k =-0.0117-0.1286 0.1519 (  2873 PWs)   bands (ev):

   -39.4575 -37.3637 -37.3415 -37.2493 -15.8053 -15.8039 -15.7602 -13.9443
   -13.9104 -13.6152 -13.4771 -13.3411 -13.3196 -13.2491 -12.9790 -12.9734
    13.3330  13.5724  13.9693  14.6232  15.5118  15.5312  15.6390  16.3509
    17.3632  17.7672  17.9133  18.1934  18.3747  18.4612  19.3810

          k = 0.0000-0.1169 0.1403 (  2876 PWs)   bands (ev):

   -39.4574 -37.3589 -37.3441 -37.2518 -15.8037 -15.7999 -15.7637 -13.9568
   -13.8919 -13.5912 -13.5493 -13.3454 -13.3179 -13.1912 -12.9930 -12.9750
    13.3924  13.6196  14.1347  14.5019  15.5639  15.7167  15.8537  16.0723
    17.1814  17.3684  17.8478  18.0491  18.2989  18.3316  19.5477

          k = 0.0935 0.0468-0.0000 (  2871 PWs)   bands (ev):

   -39.4586 -37.4019 -37.3387 -37.2118 -15.7918 -15.7904 -15.7698 -13.8998
   -13.8353 -13.7097 -13.4732 -13.4265 -13.3498 -13.1477 -13.0011 -12.9939
    12.8236  14.0119  14.3779  14.5070  14.9429  15.5797  15.5901  16.6857
    16.9095  16.9509  17.1414  18.1638  18.7631  18.8377  19.0740

          k =-0.0468-0.0935 0.1403 (  2869 PWs)   bands (ev):

   -39.4581 -37.3844 -37.3436 -37.2254 -15.7937 -15.7882 -15.7731 -13.9243
   -13.8122 -13.7263 -13.5061 -13.4002 -13.3442 -13.1166 -13.0114 -12.9902
    13.2252  13.9637  14.2461  14.5437  15.3097  15.6872  15.8051  16.4741
    16.7239  16.8090  17.0434  17.4505  18.6787  18.9843  19.4922

          k =-0.0351-0.0818 0.1286 (  2878 PWs)   bands (ev):

   -39.4578 -37.3704 -37.3493 -37.2342 -15.7948 -15.7841 -15.7774 -13.9393
   -13.7851 -13.7523 -13.5206 -13.3790 -13.3494 -13.0851 -13.0299 -12.9882
    13.5603  13.8387  14.2529  14.5045  15.6295  15.7944  16.0856  16.2712
    16.5727  16.7224  16.7865  16.9645  18.8454  19.1512  19.1905

          k =-0.0351-0.1052 0.1519 (  2874 PWs)   bands (ev):

   -39.4579 -37.3777 -37.3426 -37.2334 -15.7980 -15.7937 -15.7682 -13.9465
   -13.8488 -13.6661 -13.5164 -13.3658 -13.3383 -13.1537 -13.0024 -12.9857
    13.4114  13.7324  13.9471  14.6198  15.3413  15.6747  15.6869  16.6735
    16.7263  17.2715  17.4723  17.6424  18.5580  18.5787  19.5384

          k =-0.0234-0.0935 0.1403 (  2876 PWs)   bands (ev):

   -39.4576 -37.3642 -37.3471 -37.2431 -15.7984 -15.7894 -15.7728 -13.9671
   -13.8185 -13.6865 -13.5429 -13.3498 -13.3362 -13.1136 -13.0224 -12.9845
    13.6224  13.7947  13.9413  14.4751  15.7219  15.7895  15.9823  16.4113
    16.6570  16.9679  17.0747  17.2841  18.6690  18.8256  19.3099

          k =-0.0117-0.0818 0.1286 (  2880 PWs)   bands (ev):

   -39.4576 -37.3583 -37.3513 -37.2449 -15.7976 -15.7835 -15.7787 -13.9708
   -13.7849 -13.7263 -13.5439 -13.3557 -13.3320 -13.0729 -13.0509 -12.9850
    13.6028  13.9112  14.0799  14.3283  15.8696  15.9197  16.2216  16.3688
    16.5703  16.6930  16.7645  17.0790  18.9071  18.9641  19.0777

          k = 0.0000-0.0701 0.1169 (  2870 PWs)   bands (ev):

   -39.4577 -37.3690 -37.3474 -37.2378 -15.7959 -15.7845 -15.7775 -13.9550
   -13.7711 -13.7514 -13.5318 -13.3757 -13.3321 -13.0884 -13.0334 -12.9869
    13.4629  13.9828  14.1236  14.3968  15.6779  15.8369  16.0656  16.3418
    16.6711  16.7516  16.9967  17.0298  18.6363  19.1745  19.2836

          k =-0.0117-0.1052 0.1519 (  2874 PWs)   bands (ev):

   -39.4575 -37.3600 -37.3449 -37.2497 -15.8016 -15.7956 -15.7675 -13.9727
   -13.8559 -13.6194 -13.5633 -13.3368 -13.3246 -13.1571 -13.0053 -12.9802
    13.5173  13.7078  13.9760  14.4846  15.7448  15.7482  15.8049  16.3048
    16.8520  17.1804  17.5399  17.6577  18.5059  18.5240  19.5829

          k = 0.0000-0.0935 0.1403 (  2869 PWs)   bands (ev):

   -39.4574 -37.3547 -37.3489 -37.2511 -15.8001 -15.7899 -15.7729 -13.9826
   -13.8209 -13.6650 -13.5628 -13.3398 -13.3233 -13.1121 -13.0288 -12.9823
    13.5841  13.8066  14.0714  14.3058  15.8299  16.0569  16.0987  16.1581
    16.7170  16.8401  17.0563  17.3589  18.7436  18.7636  19.2451

          k =-0.0117-0.0818 0.1519 (  2878 PWs)   bands (ev):

   -39.4575 -37.3547 -37.3497 -37.2504 -15.7991 -15.7844 -15.7782 -13.9892
   -13.7712 -13.7239 -13.5551 -13.3335 -13.3288 -13.0833 -13.0496 -12.9847
    13.7012  13.8975  13.9248  14.2401  16.0011  16.0926  16.2588  16.3974
    16.5280  16.6936  16.7162  17.1134  18.8711  19.0538  19.1984

     the Fermi energy is    16.8511 ev

!    total energy              =    -470.44243246 Ry
     Harris-Foulkes estimate   =    -470.44243246 Ry
     estimated scf accuracy    <          3.3E-13 Ry

     The total energy is the sum of the following terms:

     one-electron contribution =     -88.94300050 Ry
     hartree contribution      =      69.14379051 Ry
     xc contribution           =     -69.86445321 Ry
     ewald contribution        =    -380.77758943 Ry
     smearing contrib. (-TS)   =      -0.00117982 Ry

     convergence has been achieved in  37 iterations

     Forces acting on atoms (cartesian axes, Ry/au):

     atom    1 type  2   force =    -0.00000000    0.00000000    0.00000000
     atom    2 type  1   force =    -0.00000000    0.00000000   -0.00000000
     atom    3 type  1   force =     0.00000000   -0.00000000   -0.00000000
     atom    4 type  1   force =    -0.00000000    0.00000000    0.00000000

     Total force =     0.000000     Total SCF correction =     0.000000


     Computing stress (Cartesian axis) and pressure

          total   stress  (Ry/bohr**3)                   (kbar)     P=   -1.34
  -0.00000914   0.00000000   0.00000000         -1.34      0.00      0.00
   0.00000000  -0.00000914   0.00000000          0.00     -1.34      0.00
   0.00000000   0.00000000  -0.00000914          0.00      0.00     -1.34

 
     init_run     :      8.69s CPU     12.95s WALL (       2 calls)
     electrons    :   2276.75s CPU   3057.81s WALL (       9 calls)
     update_pot   :      3.73s CPU      3.99s WALL (       7 calls)
     forces       :      5.65s CPU      6.49s WALL (       9 calls)
     stress       :     10.02s CPU     10.52s WALL (       9 calls)

     Called by init_run:
     wfcinit      :      7.57s CPU     11.52s WALL (       2 calls)
     potinit      :      0.26s CPU      0.32s WALL (       2 calls)
     hinit0       :      0.43s CPU      0.50s WALL (       2 calls)

     Called by electrons:
     c_bands      :   1907.88s CPU   2555.94s WALL (     242 calls)
     sum_band     :    340.57s CPU    467.27s WALL (     242 calls)
     v_of_rho     :     13.35s CPU     17.27s WALL (     248 calls)
     newd         :     10.31s CPU     10.77s WALL (     248 calls)
     mix_rho      :      3.49s CPU      4.77s WALL (     242 calls)

     Called by c_bands:
     init_us_2    :      7.60s CPU      7.92s WALL (   42336 calls)
     cegterg      :   1866.66s CPU   2512.21s WALL (   20328 calls)

     Called by sum_band:
     sum_band:bec :      0.49s CPU      0.52s WALL (   20328 calls)
     addusdens    :     13.08s CPU     13.19s WALL (     242 calls)

     Called by *egterg:
     h_psi        :   1568.38s CPU   2170.74s WALL (   79499 calls)
     s_psi        :     10.55s CPU     10.60s WALL (   79499 calls)
     g_psi        :      2.22s CPU      2.24s WALL (   59003 calls)
     cdiaghg      :    196.94s CPU    221.90s WALL (   78491 calls)

     Called by h_psi:
     h_psi:pot    :   1566.99s CPU   2169.19s WALL (   79499 calls)
     h_psi:calbec :     36.43s CPU     46.78s WALL (   79499 calls)
     vloc_psi     :   1518.97s CPU   2110.52s WALL (   79499 calls)
     add_vuspsi   :     11.26s CPU     11.44s WALL (   79499 calls)

     General routines
     calbec       :     50.72s CPU     65.08s WALL (  103607 calls)
     fft          :     18.38s CPU     25.11s WALL (    3450 calls)
     ffts         :      0.76s CPU      1.01s WALL (     490 calls)
     fftw         :   1789.43s CPU   2498.11s WALL ( 3749530 calls)
     interpolate  :      1.76s CPU      2.41s WALL (     248 calls)
 
     Parallel routines
     fft_scatt_xy :     50.20s CPU     55.07s WALL ( 3753470 calls)
     fft_scatt_yz :   1568.49s CPU   2261.79s WALL ( 3753470 calls)
 
     PWSCF        : 38m25.74s CPU    51m33.43s WALL

 
   This run was terminated on:  19:37:24  22Jan2020            

=------------------------------------------------------------------------------=
   JOB DONE.
=------------------------------------------------------------------------------=
