
     Program PWSCF v.6.3MaX starts on  2Feb2020 at 14:43:19 

     This program is part of the open-source Quantum ESPRESSO suite
     for quantum simulation of materials; please cite
         "P. Giannozzi et al., J. Phys.:Condens. Matter 21 395502 (2009);
         "P. Giannozzi et al., J. Phys.:Condens. Matter 29 465901 (2017);
          URL http://www.quantum-espresso.org", 
     in publications or presentations arising from this work. More details at
     http://www.quantum-espresso.org/quote

     Parallel version (MPI), running on     4 processors

     MPI processes distributed on     1 nodes
     R & G space division:  proc/nbgrp/npool/nimage =       4
     Waiting for input...
     Reading input from standard input

     Current dimensions of program PWSCF are:
     Max number of different atomic species (ntypx) = 10
     Max number of k-points (npk) =  40000
     Max angular momentum in pseudopotentials (lmaxx) =  3
     Message from routine iosys:
     minimal I/O required, wf_collect reset to FALSE

     Subspace diagonalization in iterative solution of the eigenvalue problem:
     a serial algorithm will be used

 
     Parallelization info
     --------------------
     sticks:   dense  smooth     PW     G-vecs:    dense   smooth      PW
     Min         933     371    112                34659     8740    1457
     Max         934     373    113                34662     8741    1460
     Sum        3735    1489    451               138645    34963    5837
 


     bravais-lattice index     =            0
     lattice parameter (alat)  =       1.8897  a.u.
     unit-cell volume          =     733.3418 (a.u.)^3
     number of atoms/cell      =            5
     number of atomic types    =            2
     number of electrons       =        64.00
     number of Kohn-Sham states=           38
     kinetic-energy cutoff     =      50.0000  Ry
     charge density cutoff     =     500.0000  Ry
     convergence threshold     =      1.0E-10
     mixing beta               =       0.6000
     number of iterations used =            8  plain     mixing
     Exchange-correlation      = SLA PW PBE PBE ( 1  4  3  4 0 0)
     nstep                     =           50


     celldm(1)=   1.889726  celldm(2)=   0.000000  celldm(3)=   0.000000
     celldm(4)=   0.000000  celldm(5)=   0.000000  celldm(6)=   0.000000

     crystal axes: (cart. coord. in units of alat)
               a(1) = (  -1.758031   1.758031   5.274095 )  
               a(2) = (  -1.758031   5.274095   1.758031 )  
               a(3) = (  -5.274095   1.758031   1.758031 )  

     reciprocal axes: (cart. coord. in units 2 pi/alat)
               b(1) = (  0.056882 -0.056882  0.227527 )  
               b(2) = (  0.056882  0.227527 -0.056882 )  
               b(3) = ( -0.227527 -0.056882 -0.056882 )  


     PseudoPot. # 1 for Nb read from file:
     ./Nb.pbe-nsp-van.UPF
     MD5 check sum: 0a22fc7fb0ba19a08ca5db297a5d2854
     Pseudo is Ultrasoft + core correction, Zval = 13.0
     Generated by new atomic code, or converted to UPF format
     Using radial grid of  887 points,  6 beta functions with: 
                l(1) =   0
                l(2) =   0
                l(3) =   1
                l(4) =   1
                l(5) =   2
                l(6) =   2
     Q(r) pseudized with  6 coefficients,  rinner =    1.000   1.000   1.000
                                                       1.000   1.000

     PseudoPot. # 2 for Ti read from file:
     ./Ti.pbe-sp-van_ak.UPF
     MD5 check sum: f98fea3e8887528921fefa5636a534ca
     Pseudo is Ultrasoft, Zval = 12.0
     Generated by new atomic code, or converted to UPF format
     Using radial grid of  851 points,  6 beta functions with: 
                l(1) =   0
                l(2) =   0
                l(3) =   1
                l(4) =   1
                l(5) =   2
                l(6) =   2
     Q(r) pseudized with  8 coefficients,  rinner =    1.000   1.000   1.000
                                                       1.000   1.000

     atomic species   valence    mass     pseudopotential
        Nb            13.00    92.90638     Nb( 1.00)
        Ti            12.00    47.86700     Ti( 1.00)

     12 Sym. Ops., with inversion, found ( 6 have fractional translation)



   Cartesian axes

     site n.     atom                  positions (alat units)
         1           Ti  tau(   1) = (  -3.5160633   3.5160633   3.5160633  )
         2           Nb  tau(   2) = (  -5.2740949   5.2740949   5.2740949  )
         3           Nb  tau(   3) = (  -7.0321265   7.0321265   7.0321265  )
         4           Nb  tau(   4) = (  -8.7901582   8.7901582   8.7901582  )
         5           Nb  tau(   5) = (  -1.7580316   1.7580316   1.7580316  )

     number of k points=   189  Marzari-Vanderbilt smearing, width (Ry)=  0.0200

     Number of k-points >= 100: set verbosity='high' to print them.

     Dense  grid:   138645 G-vectors     FFT dimensions: (  80,  80,  80)

     Smooth grid:    34963 G-vectors     FFT dimensions: (  50,  50,  50)

     Estimated max dynamical RAM per process >     254.56 MB

     Estimated total dynamical RAM >    1018.26 MB

     Initial potential from superposition of free atoms

     starting charge   62.98902, renormalised to   64.00000
     Starting wfcs are   62 randomized atomic wfcs

     total cpu time spent up to now is       14.8 secs

     Self-consistent Calculation

     iteration #  1     ecut=    50.00 Ry     beta= 0.60
     Davidson diagonalization with overlap
     ethr =  1.00E-02,  avg # of iterations =  2.0

     total cpu time spent up to now is       39.2 secs

     total energy              =    -570.19597134 Ry
     Harris-Foulkes estimate   =    -590.28250983 Ry
     estimated scf accuracy    <      25.22361439 Ry

     iteration #  2     ecut=    50.00 Ry     beta= 0.60
     Davidson diagonalization with overlap
     ethr =  1.00E-02,  avg # of iterations =  6.2

     total cpu time spent up to now is       81.3 secs

     total energy              =    -577.39769157 Ry
     Harris-Foulkes estimate   =    -614.01106752 Ry
     estimated scf accuracy    <     110.33610338 Ry

     iteration #  3     ecut=    50.00 Ry     beta= 0.60
     Davidson diagonalization with overlap
     ethr =  1.00E-02,  avg # of iterations =  5.0

     total cpu time spent up to now is      117.0 secs

     total energy              =    -588.57619276 Ry
     Harris-Foulkes estimate   =    -592.72429042 Ry
     estimated scf accuracy    <      26.02049999 Ry

     iteration #  4     ecut=    50.00 Ry     beta= 0.60
     Davidson diagonalization with overlap
     ethr =  1.00E-02,  avg # of iterations =  2.7

     total cpu time spent up to now is      140.7 secs

     total energy              =    -589.78224539 Ry
     Harris-Foulkes estimate   =    -589.98810850 Ry
     estimated scf accuracy    <       5.14624716 Ry

     iteration #  5     ecut=    50.00 Ry     beta= 0.60
     Davidson diagonalization with overlap
     ethr =  8.04E-03,  avg # of iterations =  1.0

     total cpu time spent up to now is      161.1 secs

     total energy              =    -588.52872515 Ry
     Harris-Foulkes estimate   =    -589.81969231 Ry
     estimated scf accuracy    <       4.79215442 Ry

     iteration #  6     ecut=    50.00 Ry     beta= 0.60
     Davidson diagonalization with overlap
     ethr =  7.49E-03,  avg # of iterations =  1.2

     total cpu time spent up to now is      181.6 secs

     total energy              =    -588.15807955 Ry
     Harris-Foulkes estimate   =    -588.63508000 Ry
     estimated scf accuracy    <       2.35545646 Ry

     iteration #  7     ecut=    50.00 Ry     beta= 0.60
     Davidson diagonalization with overlap
     ethr =  3.68E-03,  avg # of iterations =  3.3

     total cpu time spent up to now is      204.8 secs

     total energy              =    -588.31618310 Ry
     Harris-Foulkes estimate   =    -588.30505645 Ry
     estimated scf accuracy    <       0.50727473 Ry

     iteration #  8     ecut=    50.00 Ry     beta= 0.60
     Davidson diagonalization with overlap
     ethr =  7.93E-04,  avg # of iterations =  5.1

     total cpu time spent up to now is      231.0 secs

     total energy              =    -588.32075743 Ry
     Harris-Foulkes estimate   =    -588.33925298 Ry
     estimated scf accuracy    <       0.46092088 Ry

     iteration #  9     ecut=    50.00 Ry     beta= 0.60
     Davidson diagonalization with overlap
     ethr =  7.20E-04,  avg # of iterations =  1.2

     total cpu time spent up to now is      251.7 secs

     total energy              =    -588.29871594 Ry
     Harris-Foulkes estimate   =    -588.32521985 Ry
     estimated scf accuracy    <       0.34134476 Ry

     iteration # 10     ecut=    50.00 Ry     beta= 0.60
     Davidson diagonalization with overlap
     ethr =  5.33E-04,  avg # of iterations =  1.1

     total cpu time spent up to now is      272.2 secs

     total energy              =    -588.31310778 Ry
     Harris-Foulkes estimate   =    -588.30172270 Ry
     estimated scf accuracy    <       0.23981794 Ry

     iteration # 11     ecut=    50.00 Ry     beta= 0.60
     Davidson diagonalization with overlap
     ethr =  3.75E-04,  avg # of iterations =  4.6

     total cpu time spent up to now is      300.3 secs

     total energy              =    -588.36432500 Ry
     Harris-Foulkes estimate   =    -588.39924061 Ry
     estimated scf accuracy    <       1.10492382 Ry

     iteration # 12     ecut=    50.00 Ry     beta= 0.60
     Davidson diagonalization with overlap
     ethr =  3.75E-04,  avg # of iterations =  1.0

     total cpu time spent up to now is      320.9 secs

     total energy              =    -588.19214873 Ry
     Harris-Foulkes estimate   =    -588.36701734 Ry
     estimated scf accuracy    <       0.96758088 Ry

     iteration # 13     ecut=    50.00 Ry     beta= 0.60
     Davidson diagonalization with overlap
     ethr =  3.75E-04,  avg # of iterations =  4.9

     total cpu time spent up to now is      352.0 secs

     total energy              =    -588.27625814 Ry
     Harris-Foulkes estimate   =    -588.27427101 Ry
     estimated scf accuracy    <       0.05745680 Ry

     iteration # 14     ecut=    50.00 Ry     beta= 0.60
     Davidson diagonalization with overlap
     ethr =  8.98E-05,  avg # of iterations =  3.7

     total cpu time spent up to now is      376.9 secs

     total energy              =    -588.28393649 Ry
     Harris-Foulkes estimate   =    -588.28768984 Ry
     estimated scf accuracy    <       0.41304162 Ry

     iteration # 15     ecut=    50.00 Ry     beta= 0.60
     Davidson diagonalization with overlap
     ethr =  8.98E-05,  avg # of iterations =  1.0

     total cpu time spent up to now is      397.1 secs

     total energy              =    -588.21304602 Ry
     Harris-Foulkes estimate   =    -588.28460673 Ry
     estimated scf accuracy    <       0.35910106 Ry

     iteration # 16     ecut=    50.00 Ry     beta= 0.60
     Davidson diagonalization with overlap
     ethr =  8.98E-05,  avg # of iterations =  6.7

     total cpu time spent up to now is      433.2 secs

     total energy              =    -588.28069056 Ry
     Harris-Foulkes estimate   =    -588.28387502 Ry
     estimated scf accuracy    <       0.21445357 Ry

     iteration # 17     ecut=    50.00 Ry     beta= 0.60
     Davidson diagonalization with overlap
     ethr =  8.98E-05,  avg # of iterations =  1.0

     total cpu time spent up to now is      453.3 secs

     total energy              =    -588.27253641 Ry
     Harris-Foulkes estimate   =    -588.28081297 Ry
     estimated scf accuracy    <       0.18787321 Ry

     iteration # 18     ecut=    50.00 Ry     beta= 0.60
     Davidson diagonalization with overlap
     ethr =  8.98E-05,  avg # of iterations =  1.2

     total cpu time spent up to now is      473.6 secs

     total energy              =    -588.25717234 Ry
     Harris-Foulkes estimate   =    -588.27352195 Ry
     estimated scf accuracy    <       0.10669390 Ry

     iteration # 19     ecut=    50.00 Ry     beta= 0.60
     Davidson diagonalization with overlap
     ethr =  8.98E-05,  avg # of iterations =  4.9

     total cpu time spent up to now is      501.3 secs

     total energy              =    -588.26912222 Ry
     Harris-Foulkes estimate   =    -588.26765342 Ry
     estimated scf accuracy    <       0.00977375 Ry

     iteration # 20     ecut=    50.00 Ry     beta= 0.60
     Davidson diagonalization with overlap
     ethr =  1.53E-05,  avg # of iterations =  4.5

     total cpu time spent up to now is      525.3 secs

     total energy              =    -588.26822065 Ry
     Harris-Foulkes estimate   =    -588.27008220 Ry
     estimated scf accuracy    <       0.04556752 Ry

     iteration # 21     ecut=    50.00 Ry     beta= 0.60
     Davidson diagonalization with overlap
     ethr =  1.53E-05,  avg # of iterations =  1.0

     total cpu time spent up to now is      545.5 secs

     total energy              =    -588.26643695 Ry
     Harris-Foulkes estimate   =    -588.26850121 Ry
     estimated scf accuracy    <       0.02433215 Ry

     iteration # 22     ecut=    50.00 Ry     beta= 0.60
     Davidson diagonalization with overlap
     ethr =  1.53E-05,  avg # of iterations =  2.4

     total cpu time spent up to now is      567.0 secs

     total energy              =    -588.26681947 Ry
     Harris-Foulkes estimate   =    -588.26711456 Ry
     estimated scf accuracy    <       0.00312986 Ry

     iteration # 23     ecut=    50.00 Ry     beta= 0.60
     Davidson diagonalization with overlap
     ethr =  4.89E-06,  avg # of iterations =  4.9

     total cpu time spent up to now is      592.6 secs

     total energy              =    -588.26708076 Ry
     Harris-Foulkes estimate   =    -588.26708256 Ry
     estimated scf accuracy    <       0.00000768 Ry

     iteration # 24     ecut=    50.00 Ry     beta= 0.60
     Davidson diagonalization with overlap
     ethr =  1.20E-08,  avg # of iterations =  6.1

     total cpu time spent up to now is      630.0 secs

     total energy              =    -588.26707864 Ry
     Harris-Foulkes estimate   =    -588.26713472 Ry
     estimated scf accuracy    <       0.00048504 Ry

     iteration # 25     ecut=    50.00 Ry     beta= 0.60
     Davidson diagonalization with overlap
     ethr =  1.20E-08,  avg # of iterations =  5.1

     total cpu time spent up to now is      663.1 secs

     total energy              =    -588.26710472 Ry
     Harris-Foulkes estimate   =    -588.26710496 Ry
     estimated scf accuracy    <       0.00000158 Ry

     iteration # 26     ecut=    50.00 Ry     beta= 0.60
     Davidson diagonalization with overlap
     ethr =  2.47E-09,  avg # of iterations =  5.2

     total cpu time spent up to now is      696.4 secs

     total energy              =    -588.26710611 Ry
     Harris-Foulkes estimate   =    -588.26710963 Ry
     estimated scf accuracy    <       0.00007416 Ry

     iteration # 27     ecut=    50.00 Ry     beta= 0.60
     Davidson diagonalization with overlap
     ethr =  2.47E-09,  avg # of iterations =  4.0

     total cpu time spent up to now is      723.7 secs

     total energy              =    -588.26710547 Ry
     Harris-Foulkes estimate   =    -588.26710671 Ry
     estimated scf accuracy    <       0.00002995 Ry

     iteration # 28     ecut=    50.00 Ry     beta= 0.60
     Davidson diagonalization with overlap
     ethr =  2.47E-09,  avg # of iterations =  2.6

     total cpu time spent up to now is      745.2 secs

     total energy              =    -588.26710452 Ry
     Harris-Foulkes estimate   =    -588.26710562 Ry
     estimated scf accuracy    <       0.00001670 Ry

     iteration # 29     ecut=    50.00 Ry     beta= 0.60
     Davidson diagonalization with overlap
     ethr =  2.47E-09,  avg # of iterations =  3.9

     total cpu time spent up to now is      771.9 secs

     total energy              =    -588.26710470 Ry
     Harris-Foulkes estimate   =    -588.26710495 Ry
     estimated scf accuracy    <       0.00000253 Ry

     iteration # 30     ecut=    50.00 Ry     beta= 0.60
     Davidson diagonalization with overlap
     ethr =  2.47E-09,  avg # of iterations =  1.0

     total cpu time spent up to now is      792.1 secs

     total energy              =    -588.26710472 Ry
     Harris-Foulkes estimate   =    -588.26710477 Ry
     estimated scf accuracy    <       0.00000042 Ry

     iteration # 31     ecut=    50.00 Ry     beta= 0.60
     Davidson diagonalization with overlap
     ethr =  6.61E-10,  avg # of iterations =  3.9

     total cpu time spent up to now is      817.6 secs

     total energy              =    -588.26710479 Ry
     Harris-Foulkes estimate   =    -588.26710479 Ry
     estimated scf accuracy    <       0.00000005 Ry

     iteration # 32     ecut=    50.00 Ry     beta= 0.60
     Davidson diagonalization with overlap
     ethr =  7.46E-11,  avg # of iterations =  2.5

     total cpu time spent up to now is      839.6 secs

     total energy              =    -588.26710479 Ry
     Harris-Foulkes estimate   =    -588.26710479 Ry
     estimated scf accuracy    <       0.00000002 Ry

     iteration # 33     ecut=    50.00 Ry     beta= 0.60
     Davidson diagonalization with overlap
     ethr =  3.40E-11,  avg # of iterations =  1.2

     total cpu time spent up to now is      860.0 secs

     total energy              =    -588.26710479 Ry
     Harris-Foulkes estimate   =    -588.26710479 Ry
     estimated scf accuracy    <       0.00000001 Ry

     iteration # 34     ecut=    50.00 Ry     beta= 0.60
     Davidson diagonalization with overlap
     ethr =  2.13E-11,  avg # of iterations =  3.3

     total cpu time spent up to now is      882.5 secs

     total energy              =    -588.26710479 Ry
     Harris-Foulkes estimate   =    -588.26710479 Ry
     estimated scf accuracy    <          1.6E-09 Ry

     iteration # 35     ecut=    50.00 Ry     beta= 0.60
     Davidson diagonalization with overlap
     ethr =  2.55E-12,  avg # of iterations =  4.1

     total cpu time spent up to now is      909.4 secs

     total energy              =    -588.26710479 Ry
     Harris-Foulkes estimate   =    -588.26710479 Ry
     estimated scf accuracy    <          1.3E-10 Ry

     iteration # 36     ecut=    50.00 Ry     beta= 0.60
     Davidson diagonalization with overlap
     ethr =  2.10E-13,  avg # of iterations =  3.1

     total cpu time spent up to now is      932.8 secs

     End of self-consistent calculation

     Number of k-points >= 100: set verbosity='high' to print the bands.

     the Fermi energy is    13.5042 ev

!    total energy              =    -588.26710479 Ry
     Harris-Foulkes estimate   =    -588.26710479 Ry
     estimated scf accuracy    <          5.0E-12 Ry

     The total energy is the sum of the following terms:

     one-electron contribution =    -148.57704314 Ry
     hartree contribution      =      96.57735661 Ry
     xc contribution           =     -87.37155675 Ry
     ewald contribution        =    -448.89582251 Ry
     smearing contrib. (-TS)   =      -0.00003900 Ry

     convergence has been achieved in  36 iterations

     Forces acting on atoms (cartesian axes, Ry/au):

     atom    1 type  2   force =     0.00000000    0.00000000    0.00000000
     atom    2 type  1   force =    -0.00987112    0.00987112    0.00987112
     atom    3 type  1   force =    -0.00310864    0.00310864    0.00310864
     atom    4 type  1   force =     0.00310864   -0.00310864   -0.00310864
     atom    5 type  1   force =     0.00987112   -0.00987112   -0.00987112

     Total force =     0.025350     Total SCF correction =     0.000001


     Computing stress (Cartesian axis) and pressure

          total   stress  (Ry/bohr**3)                   (kbar)     P= -213.46
  -0.00145107   0.00001434   0.00001434       -213.46      2.11      2.11
   0.00001434  -0.00145107  -0.00001434          2.11   -213.46     -2.11
   0.00001434  -0.00001434  -0.00145107          2.11     -2.11   -213.46


     BFGS Geometry Optimization

     number of scf cycles    =   1
     number of bfgs steps    =   0

     enthalpy new            =    -588.2671047886 Ry

     new trust radius        =       0.1964966866 bohr
     new conv_thr            =            1.0E-10 Ry

     new unit-cell volume =    656.39180 a.u.^3 (    97.26723 Ang^3 )
     density =      7.16155 g/cm^3

CELL_PARAMETERS (alat=  1.88972599)
  -1.691735143   1.691735143   5.081506691
  -1.691735143   5.081506691   1.691735143
  -5.081506691   1.691735143   1.691735143

ATOMIC_POSITIONS (angstrom)
Ti      -3.385990791   3.385990791   3.385990791
Nb      -5.084016517   5.084016517   5.084016517
Nb      -6.773565748   6.773565748   6.773565748
Nb      -8.463392810   8.463392810   8.463392810
Nb      -1.687965064   1.687965064   1.687965064


     NEW-OLD atomic charge density approx. for the potential
     extrapolated charge   56.61568, renormalised to   64.00000

     total cpu time spent up to now is      945.4 secs

     Self-consistent Calculation

     iteration #  1     ecut=    50.00 Ry     beta= 0.60
     Davidson diagonalization with overlap
     c_bands:  1 eigenvalues not converged
     c_bands:  1 eigenvalues not converged
     c_bands:  2 eigenvalues not converged
     c_bands:  1 eigenvalues not converged
     c_bands:  1 eigenvalues not converged
     c_bands:  1 eigenvalues not converged
     c_bands:  1 eigenvalues not converged
     c_bands:  1 eigenvalues not converged
     c_bands:  1 eigenvalues not converged
     c_bands:  1 eigenvalues not converged
     c_bands:  1 eigenvalues not converged
     c_bands:  1 eigenvalues not converged
     c_bands:  1 eigenvalues not converged
     c_bands:  1 eigenvalues not converged
     c_bands:  1 eigenvalues not converged
     ethr =  1.00E-06,  avg # of iterations = 14.7

     total cpu time spent up to now is     1024.8 secs

     total energy              =    -566.40795857 Ry
     Harris-Foulkes estimate   =    -599.58813812 Ry
     estimated scf accuracy    <      24.44045029 Ry

     iteration #  2     ecut=    50.00 Ry     beta= 0.60
     Davidson diagonalization with overlap
     ethr =  1.00E-02,  avg # of iterations =  6.6

     total cpu time spent up to now is     1067.4 secs

     total energy              =    -582.21111067 Ry
     Harris-Foulkes estimate   =    -615.13328237 Ry
     estimated scf accuracy    <      96.66864672 Ry

     iteration #  3     ecut=    50.00 Ry     beta= 0.60
     Davidson diagonalization with overlap
     ethr =  1.00E-02,  avg # of iterations =  4.7

     total cpu time spent up to now is     1100.7 secs

     total energy              =    -589.98889532 Ry
     Harris-Foulkes estimate   =    -591.76201618 Ry
     estimated scf accuracy    <       8.13135310 Ry

     iteration #  4     ecut=    50.00 Ry     beta= 0.60
     Davidson diagonalization with overlap
     ethr =  1.00E-02,  avg # of iterations =  1.0

     total cpu time spent up to now is     1121.5 secs

     total energy              =    -589.45599355 Ry
     Harris-Foulkes estimate   =    -590.15173807 Ry
     estimated scf accuracy    <       5.39458186 Ry

     iteration #  5     ecut=    50.00 Ry     beta= 0.60
     Davidson diagonalization with overlap
     ethr =  8.43E-03,  avg # of iterations =  1.0

     total cpu time spent up to now is     1142.3 secs

     total energy              =    -588.64206850 Ry
     Harris-Foulkes estimate   =    -589.54005387 Ry
     estimated scf accuracy    <       3.95140963 Ry

     iteration #  6     ecut=    50.00 Ry     beta= 0.60
     Davidson diagonalization with overlap
     ethr =  6.17E-03,  avg # of iterations =  1.0

     total cpu time spent up to now is     1163.0 secs

     total energy              =    -588.50864143 Ry
     Harris-Foulkes estimate   =    -588.70422594 Ry
     estimated scf accuracy    <       2.29410534 Ry

     iteration #  7     ecut=    50.00 Ry     beta= 0.60
     Davidson diagonalization with overlap
     ethr =  3.58E-03,  avg # of iterations =  1.8

     total cpu time spent up to now is     1184.6 secs

     total energy              =    -588.74519803 Ry
     Harris-Foulkes estimate   =    -588.55480818 Ry
     estimated scf accuracy    <       1.63958103 Ry

     iteration #  8     ecut=    50.00 Ry     beta= 0.60
     Davidson diagonalization with overlap
     ethr =  2.56E-03,  avg # of iterations =  1.0

     total cpu time spent up to now is     1205.4 secs

     total energy              =    -588.41843161 Ry
     Harris-Foulkes estimate   =    -588.76146010 Ry
     estimated scf accuracy    <       1.95143537 Ry

     iteration #  9     ecut=    50.00 Ry     beta= 0.60
     Davidson diagonalization with overlap
     ethr =  2.56E-03,  avg # of iterations =  1.8

     total cpu time spent up to now is     1226.9 secs

     total energy              =    -588.18762178 Ry
     Harris-Foulkes estimate   =    -588.45558722 Ry
     estimated scf accuracy    <       1.05481401 Ry

     iteration # 10     ecut=    50.00 Ry     beta= 0.60
     Davidson diagonalization with overlap
     ethr =  1.65E-03,  avg # of iterations =  4.2

     total cpu time spent up to now is     1256.6 secs

     total energy              =    -588.59110225 Ry
     Harris-Foulkes estimate   =    -588.38562391 Ry
     estimated scf accuracy    <       0.42272406 Ry

     iteration # 11     ecut=    50.00 Ry     beta= 0.60
     Davidson diagonalization with overlap
     ethr =  6.61E-04,  avg # of iterations =  4.6

     total cpu time spent up to now is     1290.1 secs

     total energy              =    -588.60297302 Ry
     Harris-Foulkes estimate   =    -589.12010701 Ry
     estimated scf accuracy    <      14.84411608 Ry

     iteration # 12     ecut=    50.00 Ry     beta= 0.60
     Davidson diagonalization with overlap
     ethr =  6.61E-04,  avg # of iterations =  3.0

     total cpu time spent up to now is     1312.9 secs

     total energy              =    -588.73948019 Ry
     Harris-Foulkes estimate   =    -588.67416728 Ry
     estimated scf accuracy    <       7.30644983 Ry

     iteration # 13     ecut=    50.00 Ry     beta= 0.60
     Davidson diagonalization with overlap
     ethr =  6.61E-04,  avg # of iterations =  1.0

     total cpu time spent up to now is     1333.8 secs

     total energy              =    -589.36619098 Ry
     Harris-Foulkes estimate   =    -588.74519858 Ry
     estimated scf accuracy    <       8.21283713 Ry

     iteration # 14     ecut=    50.00 Ry     beta= 0.60
     Davidson diagonalization with overlap
     ethr =  6.61E-04,  avg # of iterations =  4.0

     total cpu time spent up to now is     1361.4 secs

     total energy              =    -588.95634620 Ry
     Harris-Foulkes estimate   =    -589.60243540 Ry
     estimated scf accuracy    <      22.00050929 Ry

     iteration # 15     ecut=    50.00 Ry     beta= 0.60
     Davidson diagonalization with overlap
     ethr =  6.61E-04,  avg # of iterations =  3.0

     total cpu time spent up to now is     1384.4 secs

     total energy              =    -589.20843117 Ry
     Harris-Foulkes estimate   =    -589.01603131 Ry
     estimated scf accuracy    <      14.03275335 Ry

     iteration # 16     ecut=    50.00 Ry     beta= 0.60
     Davidson diagonalization with overlap
     ethr =  6.61E-04,  avg # of iterations =  1.0

     total cpu time spent up to now is     1405.3 secs

     total energy              =    -589.57149941 Ry
     Harris-Foulkes estimate   =    -589.22335135 Ry
     estimated scf accuracy    <      16.81484460 Ry

     iteration # 17     ecut=    50.00 Ry     beta= 0.60
     Davidson diagonalization with overlap
     ethr =  6.61E-04,  avg # of iterations =  2.8

     total cpu time spent up to now is     1428.3 secs

     total energy              =    -587.37592259 Ry
     Harris-Foulkes estimate   =    -589.60716352 Ry
     estimated scf accuracy    <      22.15271634 Ry

     iteration # 18     ecut=    50.00 Ry     beta= 0.60
     Davidson diagonalization with overlap
     ethr =  6.61E-04,  avg # of iterations =  5.6

     total cpu time spent up to now is     1463.3 secs

     total energy              =    -588.36160542 Ry
     Harris-Foulkes estimate   =    -588.36368818 Ry
     estimated scf accuracy    <       0.09730345 Ry

     iteration # 19     ecut=    50.00 Ry     beta= 0.60
     Davidson diagonalization with overlap
     ethr =  1.52E-04,  avg # of iterations =  1.9

     total cpu time spent up to now is     1485.0 secs

     total energy              =    -588.35475745 Ry
     Harris-Foulkes estimate   =    -588.36224455 Ry
     estimated scf accuracy    <       0.08968040 Ry

     iteration # 20     ecut=    50.00 Ry     beta= 0.60
     Davidson diagonalization with overlap
     ethr =  1.40E-04,  avg # of iterations =  1.1

     total cpu time spent up to now is     1505.9 secs

     total energy              =    -588.35539355 Ry
     Harris-Foulkes estimate   =    -588.35764651 Ry
     estimated scf accuracy    <       0.02430315 Ry

     iteration # 21     ecut=    50.00 Ry     beta= 0.60
     Davidson diagonalization with overlap
     ethr =  3.80E-05,  avg # of iterations =  5.0

     total cpu time spent up to now is     1531.8 secs

     total energy              =    -588.35571884 Ry
     Harris-Foulkes estimate   =    -588.35641428 Ry
     estimated scf accuracy    <       0.00861509 Ry

     iteration # 22     ecut=    50.00 Ry     beta= 0.60
     Davidson diagonalization with overlap
     c_bands:  1 eigenvalues not converged
     ethr =  1.35E-05,  avg # of iterations =  4.7

     total cpu time spent up to now is     1556.7 secs

     total energy              =    -588.35584432 Ry
     Harris-Foulkes estimate   =    -588.35600926 Ry
     estimated scf accuracy    <       0.00455184 Ry

     iteration # 23     ecut=    50.00 Ry     beta= 0.60
     Davidson diagonalization with overlap
     c_bands:  1 eigenvalues not converged
     ethr =  7.11E-06,  avg # of iterations =  2.6

     total cpu time spent up to now is     1579.0 secs

     total energy              =    -588.35562806 Ry
     Harris-Foulkes estimate   =    -588.35593091 Ry
     estimated scf accuracy    <       0.00258742 Ry

     iteration # 24     ecut=    50.00 Ry     beta= 0.60
     Davidson diagonalization with overlap
     ethr =  4.04E-06,  avg # of iterations =  5.9

     total cpu time spent up to now is     1606.2 secs

     total energy              =    -588.35581128 Ry
     Harris-Foulkes estimate   =    -588.35582891 Ry
     estimated scf accuracy    <       0.00005852 Ry

     iteration # 25     ecut=    50.00 Ry     beta= 0.60
     Davidson diagonalization with overlap
     ethr =  9.14E-08,  avg # of iterations =  5.4

     total cpu time spent up to now is     1639.2 secs

     total energy              =    -588.35583853 Ry
     Harris-Foulkes estimate   =    -588.35585140 Ry
     estimated scf accuracy    <       0.00009985 Ry

     iteration # 26     ecut=    50.00 Ry     beta= 0.60
     Davidson diagonalization with overlap
     ethr =  9.14E-08,  avg # of iterations =  1.5

     total cpu time spent up to now is     1660.5 secs

     total energy              =    -588.35583858 Ry
     Harris-Foulkes estimate   =    -588.35584171 Ry
     estimated scf accuracy    <       0.00001798 Ry

     iteration # 27     ecut=    50.00 Ry     beta= 0.60
     Davidson diagonalization with overlap
     ethr =  2.81E-08,  avg # of iterations =  4.0

     total cpu time spent up to now is     1688.3 secs

     total energy              =    -588.35584221 Ry
     Harris-Foulkes estimate   =    -588.35584312 Ry
     estimated scf accuracy    <       0.00000620 Ry

     iteration # 28     ecut=    50.00 Ry     beta= 0.60
     Davidson diagonalization with overlap
     ethr =  9.69E-09,  avg # of iterations =  1.2

     total cpu time spent up to now is     1709.2 secs

     total energy              =    -588.35584242 Ry
     Harris-Foulkes estimate   =    -588.35584250 Ry
     estimated scf accuracy    <       0.00000066 Ry

     iteration # 29     ecut=    50.00 Ry     beta= 0.60
     Davidson diagonalization with overlap
     ethr =  1.02E-09,  avg # of iterations =  4.3

     total cpu time spent up to now is     1738.0 secs

     total energy              =    -588.35584261 Ry
     Harris-Foulkes estimate   =    -588.35584263 Ry
     estimated scf accuracy    <       0.00000019 Ry

     iteration # 30     ecut=    50.00 Ry     beta= 0.60
     Davidson diagonalization with overlap
     ethr =  3.04E-10,  avg # of iterations =  1.2

     total cpu time spent up to now is     1759.0 secs

     total energy              =    -588.35584261 Ry
     Harris-Foulkes estimate   =    -588.35584262 Ry
     estimated scf accuracy    <       0.00000004 Ry

     iteration # 31     ecut=    50.00 Ry     beta= 0.60
     Davidson diagonalization with overlap
     ethr =  5.96E-11,  avg # of iterations =  3.7

     total cpu time spent up to now is     1784.5 secs

     total energy              =    -588.35584262 Ry
     Harris-Foulkes estimate   =    -588.35584262 Ry
     estimated scf accuracy    <          2.1E-09 Ry

     iteration # 32     ecut=    50.00 Ry     beta= 0.60
     Davidson diagonalization with overlap
     ethr =  3.34E-12,  avg # of iterations =  3.7

     total cpu time spent up to now is     1810.1 secs

     total energy              =    -588.35584262 Ry
     Harris-Foulkes estimate   =    -588.35584262 Ry
     estimated scf accuracy    <          6.6E-10 Ry

     iteration # 33     ecut=    50.00 Ry     beta= 0.60
     Davidson diagonalization with overlap
     ethr =  1.02E-12,  avg # of iterations =  3.7

     total cpu time spent up to now is     1834.7 secs

     End of self-consistent calculation

     Number of k-points >= 100: set verbosity='high' to print the bands.

     the Fermi energy is    15.4302 ev

!    total energy              =    -588.35584262 Ry
     Harris-Foulkes estimate   =    -588.35584262 Ry
     estimated scf accuracy    <          6.4E-11 Ry

     The total energy is the sum of the following terms:

     one-electron contribution =    -124.14221959 Ry
     hartree contribution      =      89.44605985 Ry
     xc contribution           =     -87.87229206 Ry
     ewald contribution        =    -465.78714560 Ry
     smearing contrib. (-TS)   =      -0.00024521 Ry

     convergence has been achieved in  33 iterations

     Forces acting on atoms (cartesian axes, Ry/au):

     atom    1 type  2   force =     0.00000000   -0.00000000    0.00000000
     atom    2 type  1   force =    -0.00885104    0.00885104    0.00885104
     atom    3 type  1   force =    -0.00135271    0.00135271    0.00135271
     atom    4 type  1   force =     0.00135271   -0.00135271   -0.00135271
     atom    5 type  1   force =     0.00885104   -0.00885104   -0.00885104

     Total force =     0.021932     Total SCF correction =     0.000012


     Computing stress (Cartesian axis) and pressure

          total   stress  (Ry/bohr**3)                   (kbar)     P= -113.23
  -0.00076975   0.00002064   0.00002064       -113.23      3.04      3.04
   0.00002064  -0.00076975  -0.00002064          3.04   -113.23     -3.04
   0.00002064  -0.00002064  -0.00076975          3.04     -3.04   -113.23


     number of scf cycles    =   2
     number of bfgs steps    =   1

     enthalpy old            =    -588.2671047886 Ry
     enthalpy new            =    -588.3558426191 Ry

     CASE: enthalpy_new < enthalpy_old

     new trust radius        =       0.1888385860 bohr
     new conv_thr            =            1.0E-10 Ry

     new unit-cell volume =    586.51134 a.u.^3 (    86.91201 Ang^3 )
     density =      8.01481 g/cm^3

CELL_PARAMETERS (alat=  1.88972599)
  -1.622572074   1.622572074   4.890948137
  -1.622572074   4.890948137   1.622572074
  -4.890948137   1.622572074   1.622572074

ATOMIC_POSITIONS (angstrom)
Ti      -3.254436913   3.254436913   3.254436913
Nb      -4.894767965   4.894767965   4.894767965
Nb      -6.511664086   6.511664086   6.511664086
Nb      -8.133302025   8.133302025   8.133302025
Nb      -1.614105862   1.614105862   1.614105862


     NEW-OLD atomic charge density approx. for the potential
     extrapolated charge   56.49511, renormalised to   64.00000

     total cpu time spent up to now is     1848.0 secs

     Self-consistent Calculation

     iteration #  1     ecut=    50.00 Ry     beta= 0.60
     Davidson diagonalization with overlap
     c_bands:  1 eigenvalues not converged
     c_bands:  1 eigenvalues not converged
     c_bands:  1 eigenvalues not converged
     c_bands:  1 eigenvalues not converged
     c_bands:  1 eigenvalues not converged
     c_bands:  1 eigenvalues not converged
     c_bands:  1 eigenvalues not converged
     c_bands:  1 eigenvalues not converged
     c_bands:  1 eigenvalues not converged
     c_bands:  1 eigenvalues not converged
     c_bands:  1 eigenvalues not converged
     c_bands:  1 eigenvalues not converged
     c_bands:  1 eigenvalues not converged
     c_bands:  1 eigenvalues not converged
     c_bands:  1 eigenvalues not converged
     c_bands:  1 eigenvalues not converged
     c_bands:  1 eigenvalues not converged
     c_bands:  1 eigenvalues not converged
     c_bands:  1 eigenvalues not converged
     c_bands:  1 eigenvalues not converged
     c_bands:  1 eigenvalues not converged
     ethr =  1.00E-06,  avg # of iterations = 15.0

     total cpu time spent up to now is     1925.9 secs

     total energy              =    -570.51942164 Ry
     Harris-Foulkes estimate   =    -597.73256190 Ry
     estimated scf accuracy    <      19.64192023 Ry

     iteration #  2     ecut=    50.00 Ry     beta= 0.60
     Davidson diagonalization with overlap
     ethr =  1.00E-02,  avg # of iterations =  6.7

     total cpu time spent up to now is     1967.4 secs

     total energy              =    -581.88485614 Ry
     Harris-Foulkes estimate   =    -609.59114903 Ry
     estimated scf accuracy    <      83.19734568 Ry

     iteration #  3     ecut=    50.00 Ry     beta= 0.60
     Davidson diagonalization with overlap
     ethr =  1.00E-02,  avg # of iterations =  4.0

     total cpu time spent up to now is     1999.0 secs

     total energy              =    -589.56657583 Ry
     Harris-Foulkes estimate   =    -591.06073073 Ry
     estimated scf accuracy    <       6.75969123 Ry

     iteration #  4     ecut=    50.00 Ry     beta= 0.60
     Davidson diagonalization with overlap
     ethr =  1.00E-02,  avg # of iterations =  1.0

     total cpu time spent up to now is     2019.8 secs

     total energy              =    -588.94574227 Ry
     Harris-Foulkes estimate   =    -589.67592109 Ry
     estimated scf accuracy    <       4.35308825 Ry

     iteration #  5     ecut=    50.00 Ry     beta= 0.60
     Davidson diagonalization with overlap
     ethr =  6.80E-03,  avg # of iterations =  1.0

     total cpu time spent up to now is     2040.6 secs

     total energy              =    -588.49246656 Ry
     Harris-Foulkes estimate   =    -589.02639733 Ry
     estimated scf accuracy    <       2.78734322 Ry

     iteration #  6     ecut=    50.00 Ry     beta= 0.60
     Davidson diagonalization with overlap
     ethr =  4.36E-03,  avg # of iterations =  1.0

     total cpu time spent up to now is     2061.4 secs

     total energy              =    -588.45812157 Ry
     Harris-Foulkes estimate   =    -588.54034448 Ry
     estimated scf accuracy    <       1.67027517 Ry

     iteration #  7     ecut=    50.00 Ry     beta= 0.60
     Davidson diagonalization with overlap
     ethr =  2.61E-03,  avg # of iterations =  2.4

     total cpu time spent up to now is     2083.6 secs

     total energy              =    -588.67514153 Ry
     Harris-Foulkes estimate   =    -588.50403107 Ry
     estimated scf accuracy    <       1.13599360 Ry

     iteration #  8     ecut=    50.00 Ry     beta= 0.60
     Davidson diagonalization with overlap
     ethr =  1.77E-03,  avg # of iterations =  1.0

     total cpu time spent up to now is     2104.5 secs

     total energy              =    -588.56519885 Ry
     Harris-Foulkes estimate   =    -588.69140272 Ry
     estimated scf accuracy    <       1.52531073 Ry

     iteration #  9     ecut=    50.00 Ry     beta= 0.60
     Davidson diagonalization with overlap
     ethr =  1.77E-03,  avg # of iterations =  1.0

     total cpu time spent up to now is     2125.3 secs

     total energy              =    -588.26890667 Ry
     Harris-Foulkes estimate   =    -588.57474903 Ry
     estimated scf accuracy    <       1.21214399 Ry

     iteration # 10     ecut=    50.00 Ry     beta= 0.60
     Davidson diagonalization with overlap
     ethr =  1.77E-03,  avg # of iterations =  3.7

     total cpu time spent up to now is     2149.5 secs

     total energy              =    -588.30703392 Ry
     Harris-Foulkes estimate   =    -588.35134722 Ry
     estimated scf accuracy    <       0.10702653 Ry

     iteration # 11     ecut=    50.00 Ry     beta= 0.60
     Davidson diagonalization with overlap
     ethr =  1.67E-04,  avg # of iterations =  5.2

     total cpu time spent up to now is     2186.3 secs

     total energy              =    -588.28920532 Ry
     Harris-Foulkes estimate   =    -588.44815231 Ry
     estimated scf accuracy    <       1.21343654 Ry

     iteration # 12     ecut=    50.00 Ry     beta= 0.60
     Davidson diagonalization with overlap
     ethr =  1.67E-04,  avg # of iterations =  5.3

     total cpu time spent up to now is     2219.0 secs

     total energy              =    -588.39482353 Ry
     Harris-Foulkes estimate   =    -588.37715861 Ry
     estimated scf accuracy    <       0.00946645 Ry

     iteration # 13     ecut=    50.00 Ry     beta= 0.60
     Davidson diagonalization with overlap
     c_bands:  1 eigenvalues not converged
     c_bands:  1 eigenvalues not converged
     ethr =  1.48E-05,  avg # of iterations =  7.6

     total cpu time spent up to now is     2262.7 secs

     total energy              =    -588.46398271 Ry
     Harris-Foulkes estimate   =    -588.44847123 Ry
     estimated scf accuracy    <       0.56045682 Ry

     iteration # 14     ecut=    50.00 Ry     beta= 0.60
     Davidson diagonalization with overlap
     ethr =  1.48E-05,  avg # of iterations =  3.5

     total cpu time spent up to now is     2286.4 secs

     total energy              =    -588.44908892 Ry
     Harris-Foulkes estimate   =    -588.46478282 Ry
     estimated scf accuracy    <       0.65354997 Ry

     iteration # 15     ecut=    50.00 Ry     beta= 0.60
     Davidson diagonalization with overlap
     ethr =  1.48E-05,  avg # of iterations =  1.3

     total cpu time spent up to now is     2307.4 secs

     total energy              =    -588.44717218 Ry
     Harris-Foulkes estimate   =    -588.44939851 Ry
     estimated scf accuracy    <       0.59997036 Ry

     iteration # 16     ecut=    50.00 Ry     beta= 0.60
     Davidson diagonalization with overlap
     ethr =  1.48E-05,  avg # of iterations =  1.7

     total cpu time spent up to now is     2328.8 secs

     total energy              =    -588.42379711 Ry
     Harris-Foulkes estimate   =    -588.44738725 Ry
     estimated scf accuracy    <       0.59247308 Ry

     iteration # 17     ecut=    50.00 Ry     beta= 0.60
     Davidson diagonalization with overlap
     ethr =  1.48E-05,  avg # of iterations =  4.0

     total cpu time spent up to now is     2356.3 secs

     total energy              =    -588.41435237 Ry
     Harris-Foulkes estimate   =    -588.42537555 Ry
     estimated scf accuracy    <       0.43202414 Ry

     iteration # 18     ecut=    50.00 Ry     beta= 0.60
     Davidson diagonalization with overlap
     ethr =  1.48E-05,  avg # of iterations =  1.1

     total cpu time spent up to now is     2377.2 secs

     total energy              =    -588.40748950 Ry
     Harris-Foulkes estimate   =    -588.41463758 Ry
     estimated scf accuracy    <       0.37819691 Ry

     iteration # 19     ecut=    50.00 Ry     beta= 0.60
     Davidson diagonalization with overlap
     ethr =  1.48E-05,  avg # of iterations =  4.0

     total cpu time spent up to now is     2402.8 secs

     total energy              =    -588.39343126 Ry
     Harris-Foulkes estimate   =    -588.40821879 Ry
     estimated scf accuracy    <       0.29727078 Ry

     iteration # 20     ecut=    50.00 Ry     beta= 0.60
     Davidson diagonalization with overlap
     ethr =  1.48E-05,  avg # of iterations =  4.5

     total cpu time spent up to now is     2428.4 secs

     total energy              =    -588.35854470 Ry
     Harris-Foulkes estimate   =    -588.39457997 Ry
     estimated scf accuracy    <       0.20224951 Ry

     iteration # 21     ecut=    50.00 Ry     beta= 0.60
     Davidson diagonalization with overlap
     ethr =  1.48E-05,  avg # of iterations =  6.0

     total cpu time spent up to now is     2466.3 secs

     total energy              =    -588.37555547 Ry
     Harris-Foulkes estimate   =    -588.37574156 Ry
     estimated scf accuracy    <       0.00023951 Ry

     iteration # 22     ecut=    50.00 Ry     beta= 0.60
     Davidson diagonalization with overlap
     ethr =  3.74E-07,  avg # of iterations =  5.6

     total cpu time spent up to now is     2504.5 secs

     total energy              =    -588.37512726 Ry
     Harris-Foulkes estimate   =    -588.37651893 Ry
     estimated scf accuracy    <       0.00959570 Ry

     iteration # 23     ecut=    50.00 Ry     beta= 0.60
     Davidson diagonalization with overlap
     ethr =  3.74E-07,  avg # of iterations =  5.2

     total cpu time spent up to now is     2539.6 secs

     total energy              =    -588.37572201 Ry
     Harris-Foulkes estimate   =    -588.37572214 Ry
     estimated scf accuracy    <       0.00006890 Ry

     iteration # 24     ecut=    50.00 Ry     beta= 0.60
     Davidson diagonalization with overlap
     ethr =  1.08E-07,  avg # of iterations =  1.0

     total cpu time spent up to now is     2560.4 secs

     total energy              =    -588.37572048 Ry
     Harris-Foulkes estimate   =    -588.37572222 Ry
     estimated scf accuracy    <       0.00006923 Ry

     iteration # 25     ecut=    50.00 Ry     beta= 0.60
     Davidson diagonalization with overlap
     ethr =  1.08E-07,  avg # of iterations =  1.0

     total cpu time spent up to now is     2581.2 secs

     total energy              =    -588.37571712 Ry
     Harris-Foulkes estimate   =    -588.37572062 Ry
     estimated scf accuracy    <       0.00005470 Ry

     iteration # 26     ecut=    50.00 Ry     beta= 0.60
     Davidson diagonalization with overlap
     ethr =  8.55E-08,  avg # of iterations =  1.0

     total cpu time spent up to now is     2602.0 secs

     total energy              =    -588.37571383 Ry
     Harris-Foulkes estimate   =    -588.37571775 Ry
     estimated scf accuracy    <       0.00002293 Ry

     iteration # 27     ecut=    50.00 Ry     beta= 0.60
     Davidson diagonalization with overlap
     ethr =  3.58E-08,  avg # of iterations =  3.1

     total cpu time spent up to now is     2626.3 secs

     total energy              =    -588.37571650 Ry
     Harris-Foulkes estimate   =    -588.37571674 Ry
     estimated scf accuracy    <       0.00000153 Ry

     iteration # 28     ecut=    50.00 Ry     beta= 0.60
     Davidson diagonalization with overlap
     ethr =  2.39E-09,  avg # of iterations =  3.3

     total cpu time spent up to now is     2650.1 secs

     total energy              =    -588.37571664 Ry
     Harris-Foulkes estimate   =    -588.37571665 Ry
     estimated scf accuracy    <       0.00000003 Ry

     iteration # 29     ecut=    50.00 Ry     beta= 0.60
     Davidson diagonalization with overlap
     ethr =  5.12E-11,  avg # of iterations =  4.5

     total cpu time spent up to now is     2681.0 secs

     total energy              =    -588.37571666 Ry
     Harris-Foulkes estimate   =    -588.37571666 Ry
     estimated scf accuracy    <          9.3E-10 Ry

     iteration # 30     ecut=    50.00 Ry     beta= 0.60
     Davidson diagonalization with overlap
     ethr =  1.46E-12,  avg # of iterations =  3.5

     total cpu time spent up to now is     2708.2 secs

     total energy              =    -588.37571666 Ry
     Harris-Foulkes estimate   =    -588.37571666 Ry
     estimated scf accuracy    <          5.2E-10 Ry

     iteration # 31     ecut=    50.00 Ry     beta= 0.60
     Davidson diagonalization with overlap
     ethr =  8.15E-13,  avg # of iterations =  3.1

     total cpu time spent up to now is     2731.7 secs

     total energy              =    -588.37571666 Ry
     Harris-Foulkes estimate   =    -588.37571666 Ry
     estimated scf accuracy    <          1.1E-09 Ry

     iteration # 32     ecut=    50.00 Ry     beta= 0.60
     Davidson diagonalization with overlap
     ethr =  8.15E-13,  avg # of iterations =  1.0

     total cpu time spent up to now is     2752.5 secs

     total energy              =    -588.37571666 Ry
     Harris-Foulkes estimate   =    -588.37571666 Ry
     estimated scf accuracy    <          8.1E-10 Ry

     iteration # 33     ecut=    50.00 Ry     beta= 0.60
     Davidson diagonalization with overlap
     ethr =  8.15E-13,  avg # of iterations =  1.1

     total cpu time spent up to now is     2773.4 secs

     total energy              =    -588.37571666 Ry
     Harris-Foulkes estimate   =    -588.37571666 Ry
     estimated scf accuracy    <          3.8E-10 Ry

     iteration # 34     ecut=    50.00 Ry     beta= 0.60
     Davidson diagonalization with overlap
     ethr =  5.93E-13,  avg # of iterations =  1.8

     total cpu time spent up to now is     2794.7 secs

     End of self-consistent calculation

     Number of k-points >= 100: set verbosity='high' to print the bands.

     the Fermi energy is    17.5988 ev

!    total energy              =    -588.37571666 Ry
     Harris-Foulkes estimate   =    -588.37571666 Ry
     estimated scf accuracy    <          6.8E-11 Ry

     The total energy is the sum of the following terms:

     one-electron contribution =     -98.76712904 Ry
     hartree contribution      =      82.42665821 Ry
     xc contribution           =     -88.45537439 Ry
     ewald contribution        =    -483.57957982 Ry
     smearing contrib. (-TS)   =      -0.00029163 Ry

     convergence has been achieved in  34 iterations

     Forces acting on atoms (cartesian axes, Ry/au):

     atom    1 type  2   force =    -0.00000000   -0.00000000   -0.00000000
     atom    2 type  1   force =    -0.00645616    0.00645616    0.00645616
     atom    3 type  1   force =     0.00018348   -0.00018348   -0.00018348
     atom    4 type  1   force =    -0.00018348    0.00018348    0.00018348
     atom    5 type  1   force =     0.00645616   -0.00645616   -0.00645616

     Total force =     0.015821     Total SCF correction =     0.000007


     Computing stress (Cartesian axis) and pressure

          total   stress  (Ry/bohr**3)                   (kbar)     P=   47.28
   0.00032141   0.00002714   0.00002714         47.28      3.99      3.99
   0.00002714   0.00032141  -0.00002714          3.99     47.28     -3.99
   0.00002714  -0.00002714   0.00032141          3.99     -3.99     47.28


     number of scf cycles    =   3
     number of bfgs steps    =   2

     enthalpy old            =    -588.3558426191 Ry
     enthalpy new            =    -588.3757166608 Ry

     CASE: enthalpy_new < enthalpy_old

     new trust radius        =       0.0501178649 bohr
     new conv_thr            =            1.0E-10 Ry

     new unit-cell volume =    604.89042 a.u.^3 (    89.63551 Ang^3 )
     density =      7.77129 g/cm^3

CELL_PARAMETERS (alat=  1.88972599)
  -1.637362985   1.637362985   4.940523773
  -1.637362985   4.940523773   1.637362985
  -4.940523773   1.637362985   1.637362985

ATOMIC_POSITIONS (angstrom)
Ti      -3.286099897   3.286099897   3.286099897
Nb      -4.943471601   4.943471601   4.943471601
Nb      -6.574792709   6.574792709   6.574792709
Nb      -8.212656827   8.212656827   8.212656827
Nb      -1.628728193   1.628728193   1.628728193


     NEW-OLD atomic charge density approx. for the potential
     extrapolated charge   65.91387, renormalised to   64.00000

     total cpu time spent up to now is     2807.9 secs

     Self-consistent Calculation

     iteration #  1     ecut=    50.00 Ry     beta= 0.60
     Davidson diagonalization with overlap
     c_bands:  1 eigenvalues not converged
     ethr =  1.00E-06,  avg # of iterations = 12.3

     total cpu time spent up to now is     2868.7 secs

     total energy              =    -588.16968772 Ry
     Harris-Foulkes estimate   =    -586.16809595 Ry
     estimated scf accuracy    <       0.16770649 Ry

     iteration #  2     ecut=    50.00 Ry     beta= 0.60
     Davidson diagonalization with overlap
     ethr =  2.62E-04,  avg # of iterations =  5.9

     total cpu time spent up to now is     2912.2 secs

     total energy              =    -587.90565552 Ry
     Harris-Foulkes estimate   =    -588.88004446 Ry
     estimated scf accuracy    <       9.13466344 Ry

     iteration #  3     ecut=    50.00 Ry     beta= 0.60
     Davidson diagonalization with overlap
     ethr =  2.62E-04,  avg # of iterations =  5.7

     total cpu time spent up to now is     2948.0 secs

     total energy              =    -588.37549882 Ry
     Harris-Foulkes estimate   =    -588.41704070 Ry
     estimated scf accuracy    <       0.11420383 Ry

     iteration #  4     ecut=    50.00 Ry     beta= 0.60
     Davidson diagonalization with overlap
     ethr =  1.78E-04,  avg # of iterations =  2.0

     total cpu time spent up to now is     2970.4 secs

     total energy              =    -588.38332682 Ry
     Harris-Foulkes estimate   =    -588.38658110 Ry
     estimated scf accuracy    <       0.03030055 Ry

     iteration #  5     ecut=    50.00 Ry     beta= 0.60
     Davidson diagonalization with overlap
     ethr =  4.73E-05,  avg # of iterations =  2.8

     total cpu time spent up to now is     2993.1 secs

     total energy              =    -588.38339175 Ry
     Harris-Foulkes estimate   =    -588.38466683 Ry
     estimated scf accuracy    <       0.02901057 Ry

     iteration #  6     ecut=    50.00 Ry     beta= 0.60
     Davidson diagonalization with overlap
     ethr =  4.53E-05,  avg # of iterations =  1.0

     total cpu time spent up to now is     3013.8 secs

     total energy              =    -588.38048029 Ry
     Harris-Foulkes estimate   =    -588.38367556 Ry
     estimated scf accuracy    <       0.02627563 Ry

     iteration #  7     ecut=    50.00 Ry     beta= 0.60
     Davidson diagonalization with overlap
     ethr =  4.11E-05,  avg # of iterations =  1.0

     total cpu time spent up to now is     3034.4 secs

     total energy              =    -588.37801950 Ry
     Harris-Foulkes estimate   =    -588.38089499 Ry
     estimated scf accuracy    <       0.01491279 Ry

     iteration #  8     ecut=    50.00 Ry     beta= 0.60
     Davidson diagonalization with overlap
     ethr =  2.33E-05,  avg # of iterations =  1.6

     total cpu time spent up to now is     3055.8 secs

     total energy              =    -588.37840107 Ry
     Harris-Foulkes estimate   =    -588.37869574 Ry
     estimated scf accuracy    <       0.00396938 Ry

     iteration #  9     ecut=    50.00 Ry     beta= 0.60
     Davidson diagonalization with overlap
     ethr =  6.20E-06,  avg # of iterations =  3.3

     total cpu time spent up to now is     3079.3 secs

     total energy              =    -588.37835970 Ry
     Harris-Foulkes estimate   =    -588.37857769 Ry
     estimated scf accuracy    <       0.00162051 Ry

     iteration # 10     ecut=    50.00 Ry     beta= 0.60
     Davidson diagonalization with overlap
     ethr =  2.53E-06,  avg # of iterations =  3.8

     total cpu time spent up to now is     3103.8 secs

     total energy              =    -588.37848295 Ry
     Harris-Foulkes estimate   =    -588.37848504 Ry
     estimated scf accuracy    <       0.00032347 Ry

     iteration # 11     ecut=    50.00 Ry     beta= 0.60
     Davidson diagonalization with overlap
     ethr =  5.05E-07,  avg # of iterations =  3.1

     total cpu time spent up to now is     3127.6 secs

     total energy              =    -588.37847785 Ry
     Harris-Foulkes estimate   =    -588.37850391 Ry
     estimated scf accuracy    <       0.00028997 Ry

     iteration # 12     ecut=    50.00 Ry     beta= 0.60
     Davidson diagonalization with overlap
     ethr =  4.53E-07,  avg # of iterations =  1.2

     total cpu time spent up to now is     3148.5 secs

     total energy              =    -588.37848104 Ry
     Harris-Foulkes estimate   =    -588.37848574 Ry
     estimated scf accuracy    <       0.00011191 Ry

     iteration # 13     ecut=    50.00 Ry     beta= 0.60
     Davidson diagonalization with overlap
     ethr =  1.75E-07,  avg # of iterations =  3.3

     total cpu time spent up to now is     3171.9 secs

     total energy              =    -588.37848089 Ry
     Harris-Foulkes estimate   =    -588.37848594 Ry
     estimated scf accuracy    <       0.00003895 Ry

     iteration # 14     ecut=    50.00 Ry     beta= 0.60
     Davidson diagonalization with overlap
     ethr =  6.09E-08,  avg # of iterations =  3.5

     total cpu time spent up to now is     3196.2 secs

     total energy              =    -588.37848434 Ry
     Harris-Foulkes estimate   =    -588.37848462 Ry
     estimated scf accuracy    <       0.00000099 Ry

     iteration # 15     ecut=    50.00 Ry     beta= 0.60
     Davidson diagonalization with overlap
     ethr =  1.55E-09,  avg # of iterations =  5.0

     total cpu time spent up to now is     3228.1 secs

     total energy              =    -588.37848493 Ry
     Harris-Foulkes estimate   =    -588.37848515 Ry
     estimated scf accuracy    <       0.00000175 Ry

     iteration # 16     ecut=    50.00 Ry     beta= 0.60
     Davidson diagonalization with overlap
     ethr =  1.55E-09,  avg # of iterations =  1.2

     total cpu time spent up to now is     3249.0 secs

     total energy              =    -588.37848494 Ry
     Harris-Foulkes estimate   =    -588.37848499 Ry
     estimated scf accuracy    <       0.00000033 Ry

     iteration # 17     ecut=    50.00 Ry     beta= 0.60
     Davidson diagonalization with overlap
     ethr =  5.10E-10,  avg # of iterations =  3.9

     total cpu time spent up to now is     3275.9 secs

     total energy              =    -588.37848502 Ry
     Harris-Foulkes estimate   =    -588.37848501 Ry
     estimated scf accuracy    <       0.00000010 Ry

     iteration # 18     ecut=    50.00 Ry     beta= 0.60
     Davidson diagonalization with overlap
     ethr =  1.53E-10,  avg # of iterations =  1.0

     total cpu time spent up to now is     3296.7 secs

     total energy              =    -588.37848500 Ry
     Harris-Foulkes estimate   =    -588.37848502 Ry
     estimated scf accuracy    <       0.00000014 Ry

     iteration # 19     ecut=    50.00 Ry     beta= 0.60
     Davidson diagonalization with overlap
     ethr =  1.53E-10,  avg # of iterations =  1.0

     total cpu time spent up to now is     3317.6 secs

     total energy              =    -588.37848500 Ry
     Harris-Foulkes estimate   =    -588.37848501 Ry
     estimated scf accuracy    <       0.00000004 Ry

     iteration # 20     ecut=    50.00 Ry     beta= 0.60
     Davidson diagonalization with overlap
     ethr =  6.92E-11,  avg # of iterations =  2.6

     total cpu time spent up to now is     3340.4 secs

     total energy              =    -588.37848500 Ry
     Harris-Foulkes estimate   =    -588.37848500 Ry
     estimated scf accuracy    <          6.8E-09 Ry

     iteration # 21     ecut=    50.00 Ry     beta= 0.60
     Davidson diagonalization with overlap
     ethr =  1.06E-11,  avg # of iterations =  3.1

     total cpu time spent up to now is     3364.5 secs

     total energy              =    -588.37848500 Ry
     Harris-Foulkes estimate   =    -588.37848500 Ry
     estimated scf accuracy    <          1.1E-09 Ry

     iteration # 22     ecut=    50.00 Ry     beta= 0.60
     Davidson diagonalization with overlap
     ethr =  1.69E-12,  avg # of iterations =  3.4

     total cpu time spent up to now is     3389.0 secs

     total energy              =    -588.37848500 Ry
     Harris-Foulkes estimate   =    -588.37848500 Ry
     estimated scf accuracy    <          1.4E-10 Ry

     iteration # 23     ecut=    50.00 Ry     beta= 0.60
     Davidson diagonalization with overlap
     ethr =  2.16E-13,  avg # of iterations =  4.0

     total cpu time spent up to now is     3416.6 secs

     End of self-consistent calculation

     Number of k-points >= 100: set verbosity='high' to print the bands.

     the Fermi energy is    16.9804 ev

!    total energy              =    -588.37848500 Ry
     Harris-Foulkes estimate   =    -588.37848500 Ry
     estimated scf accuracy    <          5.4E-11 Ry

     The total energy is the sum of the following terms:

     one-electron contribution =    -105.79641345 Ry
     hartree contribution      =      84.33510515 Ry
     xc contribution           =     -88.28840229 Ry
     ewald contribution        =    -478.62859881 Ry
     smearing contrib. (-TS)   =      -0.00017561 Ry

     convergence has been achieved in  23 iterations

     Forces acting on atoms (cartesian axes, Ry/au):

     atom    1 type  2   force =     0.00000000    0.00000000    0.00000000
     atom    2 type  1   force =    -0.00627494    0.00627494    0.00627494
     atom    3 type  1   force =    -0.00025899    0.00025899    0.00025899
     atom    4 type  1   force =     0.00025899   -0.00025899   -0.00025899
     atom    5 type  1   force =     0.00627494   -0.00627494   -0.00627494

     Total force =     0.015383     Total SCF correction =     0.000006


     Computing stress (Cartesian axis) and pressure

          total   stress  (Ry/bohr**3)                   (kbar)     P=   -3.47
  -0.00002360   0.00002532   0.00002532         -3.47      3.72      3.72
   0.00002532  -0.00002360  -0.00002532          3.72     -3.47     -3.72
   0.00002532  -0.00002532  -0.00002360          3.72     -3.72     -3.47


     number of scf cycles    =   4
     number of bfgs steps    =   3

     enthalpy old            =    -588.3757166608 Ry
     enthalpy new            =    -588.3784850043 Ry

     CASE: enthalpy_new < enthalpy_old

     new trust radius        =       0.0099126920 bohr
     new conv_thr            =            1.0E-10 Ry

     new unit-cell volume =    603.88288 a.u.^3 (    89.48621 Ang^3 )
     density =      7.78426 g/cm^3

CELL_PARAMETERS (alat=  1.88972599)
  -1.632404209   1.632404209   4.935764896
  -1.632404209   4.935764896   1.632404209
  -4.935764896   1.632404209   1.632404209

ATOMIC_POSITIONS (angstrom)
Ti      -3.280229326   3.280229326   3.280229326
Nb      -4.937663280   4.937663280   4.937663280
Nb      -6.563171938   6.563171938   6.563171938
Nb      -8.197860028   8.197860028   8.197860028
Nb      -1.622795372   1.622795372   1.622795372


     NEW-OLD atomic charge density approx. for the potential
     extrapolated charge   63.89491, renormalised to   64.00000

     total cpu time spent up to now is     3430.1 secs

     Self-consistent Calculation

     iteration #  1     ecut=    50.00 Ry     beta= 0.60
     Davidson diagonalization with overlap
     ethr =  1.00E-06,  avg # of iterations =  4.1

     total cpu time spent up to now is     3469.9 secs

     total energy              =    -588.37798463 Ry
     Harris-Foulkes estimate   =    -588.50121829 Ry
     estimated scf accuracy    <       0.00067181 Ry

     iteration #  2     ecut=    50.00 Ry     beta= 0.60
     Davidson diagonalization with overlap
     ethr =  1.05E-06,  avg # of iterations =  5.6

     total cpu time spent up to now is     3511.8 secs

     total energy              =    -588.37764420 Ry
     Harris-Foulkes estimate   =    -588.38029936 Ry
     estimated scf accuracy    <       0.01785705 Ry

     iteration #  3     ecut=    50.00 Ry     beta= 0.60
     Davidson diagonalization with overlap
     ethr =  1.05E-06,  avg # of iterations =  5.1

     total cpu time spent up to now is     3546.9 secs

     total energy              =    -588.37875938 Ry
     Harris-Foulkes estimate   =    -588.37888673 Ry
     estimated scf accuracy    <       0.00032998 Ry

     iteration #  4     ecut=    50.00 Ry     beta= 0.60
     Davidson diagonalization with overlap
     ethr =  5.16E-07,  avg # of iterations =  2.0

     total cpu time spent up to now is     3570.0 secs

     total energy              =    -588.37878410 Ry
     Harris-Foulkes estimate   =    -588.37879671 Ry
     estimated scf accuracy    <       0.00020893 Ry

     iteration #  5     ecut=    50.00 Ry     beta= 0.60
     Davidson diagonalization with overlap
     ethr =  3.26E-07,  avg # of iterations =  1.0

     total cpu time spent up to now is     3590.8 secs

     total energy              =    -588.37874975 Ry
     Harris-Foulkes estimate   =    -588.37878719 Ry
     estimated scf accuracy    <       0.00016116 Ry

     iteration #  6     ecut=    50.00 Ry     beta= 0.60
     Davidson diagonalization with overlap
     ethr =  2.52E-07,  avg # of iterations =  1.3

     total cpu time spent up to now is     3611.7 secs

     total energy              =    -588.37875073 Ry
     Harris-Foulkes estimate   =    -588.37875790 Ry
     estimated scf accuracy    <       0.00003068 Ry

     iteration #  7     ecut=    50.00 Ry     beta= 0.60
     Davidson diagonalization with overlap
     ethr =  4.79E-08,  avg # of iterations =  3.7

     total cpu time spent up to now is     3638.7 secs

     total energy              =    -588.37875693 Ry
     Harris-Foulkes estimate   =    -588.37875733 Ry
     estimated scf accuracy    <       0.00000233 Ry

     iteration #  8     ecut=    50.00 Ry     beta= 0.60
     Davidson diagonalization with overlap
     ethr =  3.64E-09,  avg # of iterations =  3.4

     total cpu time spent up to now is     3663.7 secs

     total energy              =    -588.37875702 Ry
     Harris-Foulkes estimate   =    -588.37875720 Ry
     estimated scf accuracy    <       0.00000102 Ry

     iteration #  9     ecut=    50.00 Ry     beta= 0.60
     Davidson diagonalization with overlap
     ethr =  1.60E-09,  avg # of iterations =  1.9

     total cpu time spent up to now is     3685.4 secs

     total energy              =    -588.37875702 Ry
     Harris-Foulkes estimate   =    -588.37875707 Ry
     estimated scf accuracy    <       0.00000025 Ry

     iteration # 10     ecut=    50.00 Ry     beta= 0.60
     Davidson diagonalization with overlap
     ethr =  3.95E-10,  avg # of iterations =  3.5

     total cpu time spent up to now is     3710.4 secs

     total energy              =    -588.37875703 Ry
     Harris-Foulkes estimate   =    -588.37875704 Ry
     estimated scf accuracy    <       0.00000002 Ry

     iteration # 11     ecut=    50.00 Ry     beta= 0.60
     Davidson diagonalization with overlap
     ethr =  2.65E-11,  avg # of iterations =  4.1

     total cpu time spent up to now is     3740.3 secs

     total energy              =    -588.37875704 Ry
     Harris-Foulkes estimate   =    -588.37875704 Ry
     estimated scf accuracy    <          9.5E-10 Ry

     iteration # 12     ecut=    50.00 Ry     beta= 0.60
     Davidson diagonalization with overlap
     ethr =  1.49E-12,  avg # of iterations =  3.3

     total cpu time spent up to now is     3765.2 secs

     End of self-consistent calculation

     Number of k-points >= 100: set verbosity='high' to print the bands.

     the Fermi energy is    17.0127 ev

!    total energy              =    -588.37875704 Ry
     Harris-Foulkes estimate   =    -588.37875704 Ry
     estimated scf accuracy    <          3.4E-11 Ry

     The total energy is the sum of the following terms:

     one-electron contribution =    -105.43678419 Ry
     hartree contribution      =      84.24023122 Ry
     xc contribution           =     -88.29780850 Ry
     ewald contribution        =    -478.88433038 Ry
     smearing contrib. (-TS)   =      -0.00006519 Ry

     convergence has been achieved in  12 iterations

     Forces acting on atoms (cartesian axes, Ry/au):

     atom    1 type  2   force =     0.00000000   -0.00000000    0.00000000
     atom    2 type  1   force =    -0.00543461    0.00543461    0.00543461
     atom    3 type  1   force =    -0.00031815    0.00031815    0.00031815
     atom    4 type  1   force =     0.00031815   -0.00031815   -0.00031815
     atom    5 type  1   force =     0.00543461   -0.00543461   -0.00543461

     Total force =     0.013335     Total SCF correction =     0.000009


     Computing stress (Cartesian axis) and pressure

          total   stress  (Ry/bohr**3)                   (kbar)     P=   -0.79
  -0.00000537   0.00002482   0.00002482         -0.79      3.65      3.65
   0.00002482  -0.00000537  -0.00002482          3.65     -0.79     -3.65
   0.00002482  -0.00002482  -0.00000537          3.65     -3.65     -0.79


     number of scf cycles    =   5
     number of bfgs steps    =   4

     enthalpy old            =    -588.3784850043 Ry
     enthalpy new            =    -588.3787570401 Ry

     CASE: enthalpy_new < enthalpy_old


     WARNING: bfgs curvature condition failed, Theta= 0.957
     new trust radius        =       0.0148424747 bohr
     new conv_thr            =            1.0E-10 Ry

     new unit-cell volume =    603.44783 a.u.^3 (    89.42174 Ang^3 )
     density =      7.78987 g/cm^3

CELL_PARAMETERS (alat=  1.88972599)
  -1.625343592   1.625343592   4.931268923
  -1.625343592   4.931268923   1.625343592
  -4.931268923   1.625343592   1.625343592

ATOMIC_POSITIONS (angstrom)
Ti      -3.272782443   3.272782443   3.272782443
Nb      -4.930978024   4.930978024   4.930978024
Nb      -6.548510294   6.548510294   6.548510294
Nb      -8.179010699   8.179010699   8.179010699
Nb      -1.614586862   1.614586862   1.614586862


     NEW-OLD atomic charge density approx. for the potential
     extrapolated charge   63.95459, renormalised to   64.00000

     total cpu time spent up to now is     3778.7 secs

     Self-consistent Calculation

     iteration #  1     ecut=    50.00 Ry     beta= 0.60
     Davidson diagonalization with overlap
     ethr =  1.00E-06,  avg # of iterations =  4.1

     total cpu time spent up to now is     3820.8 secs

     total energy              =    -588.37893169 Ry
     Harris-Foulkes estimate   =    -588.43195415 Ry
     estimated scf accuracy    <       0.00019340 Ry

     iteration #  2     ecut=    50.00 Ry     beta= 0.60
     Davidson diagonalization with overlap
     ethr =  3.02E-07,  avg # of iterations =  5.2

     total cpu time spent up to now is     3858.8 secs

     total energy              =    -588.37885584 Ry
     Harris-Foulkes estimate   =    -588.37934350 Ry
     estimated scf accuracy    <       0.00241585 Ry

     iteration #  3     ecut=    50.00 Ry     beta= 0.60
     Davidson diagonalization with overlap
     ethr =  3.02E-07,  avg # of iterations =  4.6

     total cpu time spent up to now is     3889.7 secs

     total energy              =    -588.37905796 Ry
     Harris-Foulkes estimate   =    -588.37912920 Ry
     estimated scf accuracy    <       0.00026901 Ry

     iteration #  4     ecut=    50.00 Ry     beta= 0.60
     Davidson diagonalization with overlap
     ethr =  3.02E-07,  avg # of iterations =  3.8

     total cpu time spent up to now is     3916.3 secs

     total energy              =    -588.37908791 Ry
     Harris-Foulkes estimate   =    -588.37911563 Ry
     estimated scf accuracy    <       0.00020961 Ry

     iteration #  5     ecut=    50.00 Ry     beta= 0.60
     Davidson diagonalization with overlap
     ethr =  3.02E-07,  avg # of iterations =  1.0

     total cpu time spent up to now is     3937.0 secs

     total energy              =    -588.37907964 Ry
     Harris-Foulkes estimate   =    -588.37909481 Ry
     estimated scf accuracy    <       0.00004771 Ry

     iteration #  6     ecut=    50.00 Ry     beta= 0.60
     Davidson diagonalization with overlap
     ethr =  7.45E-08,  avg # of iterations =  4.1

     total cpu time spent up to now is     3966.0 secs

     total energy              =    -588.37909388 Ry
     Harris-Foulkes estimate   =    -588.37910020 Ry
     estimated scf accuracy    <       0.00006834 Ry

     iteration #  7     ecut=    50.00 Ry     beta= 0.60
     Davidson diagonalization with overlap
     ethr =  7.45E-08,  avg # of iterations =  1.0

     total cpu time spent up to now is     3986.7 secs

     total energy              =    -588.37909308 Ry
     Harris-Foulkes estimate   =    -588.37909498 Ry
     estimated scf accuracy    <       0.00002689 Ry

     iteration #  8     ecut=    50.00 Ry     beta= 0.60
     Davidson diagonalization with overlap
     ethr =  4.20E-08,  avg # of iterations =  2.4

     total cpu time spent up to now is     4008.8 secs

     total energy              =    -588.37909204 Ry
     Harris-Foulkes estimate   =    -588.37909387 Ry
     estimated scf accuracy    <       0.00000907 Ry

     iteration #  9     ecut=    50.00 Ry     beta= 0.60
     Davidson diagonalization with overlap
     ethr =  1.42E-08,  avg # of iterations =  4.0

     total cpu time spent up to now is     4036.2 secs

     total energy              =    -588.37909384 Ry
     Harris-Foulkes estimate   =    -588.37909411 Ry
     estimated scf accuracy    <       0.00000207 Ry

     iteration # 10     ecut=    50.00 Ry     beta= 0.60
     Davidson diagonalization with overlap
     ethr =  3.23E-09,  avg # of iterations =  1.3

     total cpu time spent up to now is     4057.3 secs

     total energy              =    -588.37909383 Ry
     Harris-Foulkes estimate   =    -588.37909391 Ry
     estimated scf accuracy    <       0.00000050 Ry

     iteration # 11     ecut=    50.00 Ry     beta= 0.60
     Davidson diagonalization with overlap
     ethr =  7.84E-10,  avg # of iterations =  3.8

     total cpu time spent up to now is     4084.2 secs

     total energy              =    -588.37909392 Ry
     Harris-Foulkes estimate   =    -588.37909392 Ry
     estimated scf accuracy    <       0.00000002 Ry

     iteration # 12     ecut=    50.00 Ry     beta= 0.60
     Davidson diagonalization with overlap
     ethr =  3.09E-11,  avg # of iterations =  2.9

     total cpu time spent up to now is     4108.7 secs

     total energy              =    -588.37909392 Ry
     Harris-Foulkes estimate   =    -588.37909392 Ry
     estimated scf accuracy    <          1.9E-09 Ry

     iteration # 13     ecut=    50.00 Ry     beta= 0.60
     Davidson diagonalization with overlap
     ethr =  2.90E-12,  avg # of iterations =  3.7

     total cpu time spent up to now is     4135.0 secs

     total energy              =    -588.37909392 Ry
     Harris-Foulkes estimate   =    -588.37909392 Ry
     estimated scf accuracy    <          4.7E-10 Ry

     iteration # 14     ecut=    50.00 Ry     beta= 0.60
     Davidson diagonalization with overlap
     ethr =  7.38E-13,  avg # of iterations =  2.3

     total cpu time spent up to now is     4157.3 secs

     total energy              =    -588.37909392 Ry
     Harris-Foulkes estimate   =    -588.37909392 Ry
     estimated scf accuracy    <          1.1E-10 Ry

     iteration # 15     ecut=    50.00 Ry     beta= 0.60
     Davidson diagonalization with overlap
     ethr =  1.76E-13,  avg # of iterations =  2.5

     total cpu time spent up to now is     4181.9 secs

     total energy              =    -588.37909392 Ry
     Harris-Foulkes estimate   =    -588.37909392 Ry
     estimated scf accuracy    <          2.2E-10 Ry

     iteration # 16     ecut=    50.00 Ry     beta= 0.60
     Davidson diagonalization with overlap
     ethr =  1.76E-13,  avg # of iterations =  2.1

     total cpu time spent up to now is     4203.6 secs

     End of self-consistent calculation

     Number of k-points >= 100: set verbosity='high' to print the bands.

     the Fermi energy is    17.0263 ev

!    total energy              =    -588.37909392 Ry
     Harris-Foulkes estimate   =    -588.37909392 Ry
     estimated scf accuracy    <          4.8E-11 Ry

     The total energy is the sum of the following terms:

     one-electron contribution =    -105.31024233 Ry
     hartree contribution      =      84.21285319 Ry
     xc contribution           =     -88.30263590 Ry
     ewald contribution        =    -478.97917965 Ry
     smearing contrib. (-TS)   =       0.00011077 Ry

     convergence has been achieved in  16 iterations

     Forces acting on atoms (cartesian axes, Ry/au):

     atom    1 type  2   force =    -0.00000000    0.00000000   -0.00000000
     atom    2 type  1   force =    -0.00414933    0.00414933    0.00414933
     atom    3 type  1   force =    -0.00041008    0.00041008    0.00041008
     atom    4 type  1   force =     0.00041008   -0.00041008   -0.00041008
     atom    5 type  1   force =     0.00414933   -0.00414933   -0.00414933

     Total force =     0.010213     Total SCF correction =     0.000007


     Computing stress (Cartesian axis) and pressure

          total   stress  (Ry/bohr**3)                   (kbar)     P=    0.44
   0.00000299   0.00002343   0.00002343          0.44      3.45      3.45
   0.00002343   0.00000299  -0.00002343          3.45      0.44     -3.45
   0.00002343  -0.00002343   0.00000299          3.45     -3.45      0.44


     number of scf cycles    =   6
     number of bfgs steps    =   5

     enthalpy old            =    -588.3787570401 Ry
     enthalpy new            =    -588.3790939235 Ry

     CASE: enthalpy_new < enthalpy_old

     new trust radius        =       0.0222131682 bohr
     new conv_thr            =            1.0E-10 Ry

     new unit-cell volume =    603.32225 a.u.^3 (    89.40313 Ang^3 )
     density =      7.79149 g/cm^3

CELL_PARAMETERS (alat=  1.88972599)
  -1.614061759   1.614061759   4.925401317
  -1.614061759   4.925401317   1.614061759
  -4.925401317   1.614061759   1.614061759

ATOMIC_POSITIONS (angstrom)
Ti      -3.261409934   3.261409934   3.261409934
Nb      -4.920606491   4.920606491   4.920606491
Nb      -6.526237545   6.526237545   6.526237545
Nb      -8.150107158   8.150107158   8.150107158
Nb      -1.602213377   1.602213377   1.602213377


     NEW-OLD atomic charge density approx. for the potential
     extrapolated charge   63.98689, renormalised to   64.00000

     total cpu time spent up to now is     4217.0 secs

     Self-consistent Calculation

     iteration #  1     ecut=    50.00 Ry     beta= 0.60
     Davidson diagonalization with overlap
     c_bands:  1 eigenvalues not converged
     c_bands:  1 eigenvalues not converged
     ethr =  1.00E-06,  avg # of iterations =  5.1

     total cpu time spent up to now is     4262.4 secs

     total energy              =    -588.37929711 Ry
     Harris-Foulkes estimate   =    -588.39477426 Ry
     estimated scf accuracy    <       0.00031532 Ry

     iteration #  2     ecut=    50.00 Ry     beta= 0.60
     Davidson diagonalization with overlap
     ethr =  4.93E-07,  avg # of iterations =  4.9

     total cpu time spent up to now is     4296.7 secs

     total energy              =    -588.37901074 Ry
     Harris-Foulkes estimate   =    -588.37991003 Ry
     estimated scf accuracy    <       0.00431045 Ry

     iteration #  3     ecut=    50.00 Ry     beta= 0.60
     Davidson diagonalization with overlap
     ethr =  4.93E-07,  avg # of iterations =  4.5

     total cpu time spent up to now is     4328.3 secs

     total energy              =    -588.37943430 Ry
     Harris-Foulkes estimate   =    -588.37949314 Ry
     estimated scf accuracy    <       0.00027080 Ry

[...]
               a(1) = (  -1.577749   1.577749   4.909010 )  
               a(2) = (  -1.577749   4.909010   1.577749 )  
               a(3) = (  -4.909010   1.577749   1.577749 )  

     reciprocal axes: (cart. coord. in units 2 pi/alat)
               b(1) = (  0.058729 -0.058729  0.241458 )  
               b(2) = (  0.058729  0.241458 -0.058729 )  
               b(3) = ( -0.241458 -0.058729 -0.058729 )  


     PseudoPot. # 1 for Nb read from file:
     ./Nb.pbe-nsp-van.UPF
     MD5 check sum: 0a22fc7fb0ba19a08ca5db297a5d2854
     Pseudo is Ultrasoft + core correction, Zval = 13.0
     Generated by new atomic code, or converted to UPF format
     Using radial grid of  887 points,  6 beta functions with: 
                l(1) =   0
                l(2) =   0
                l(3) =   1
                l(4) =   1
                l(5) =   2
                l(6) =   2
     Q(r) pseudized with  6 coefficients,  rinner =    1.000   1.000   1.000
                                                       1.000   1.000

     PseudoPot. # 2 for Ti read from file:
     ./Ti.pbe-sp-van_ak.UPF
     MD5 check sum: f98fea3e8887528921fefa5636a534ca
     Pseudo is Ultrasoft, Zval = 12.0
     Generated by new atomic code, or converted to UPF format
     Using radial grid of  851 points,  6 beta functions with: 
                l(1) =   0
                l(2) =   0
                l(3) =   1
                l(4) =   1
                l(5) =   2
                l(6) =   2
     Q(r) pseudized with  8 coefficients,  rinner =    1.000   1.000   1.000
                                                       1.000   1.000

     atomic species   valence    mass     pseudopotential
        Nb            13.00    92.90638     Nb( 1.00)
        Ti            12.00    47.86700     Ti( 1.00)

     12 Sym. Ops., with inversion, found ( 6 have fractional translation)



   Cartesian axes

     site n.     atom                  positions (alat units)
         1           Ti  tau(   1) = (  -3.2258031   3.2258031   3.2258031  )
         2           Nb  tau(   2) = (  -4.8730252   4.8730252   4.8730252  )
         3           Nb  tau(   3) = (  -6.4569572   6.4569572   6.4569572  )
         4           Nb  tau(   4) = (  -8.0591566   8.0591566   8.0591566  )
         5           Nb  tau(   5) = (  -1.5785810   1.5785810   1.5785810  )

     number of k points=   189  Marzari-Vanderbilt smearing, width (Ry)=  0.0200

     Number of k-points >= 100: set verbosity='high' to print them.

     Dense  grid:   113997 G-vectors     FFT dimensions: (  75,  75,  75)

     Smooth grid:    28875 G-vectors     FFT dimensions: (  45,  45,  45)

     Estimated max dynamical RAM per process >     210.50 MB

     Estimated total dynamical RAM >     842.01 MB

     Initial potential from superposition of free atoms

     starting charge   62.98902, renormalised to   64.00000
     Starting wfcs are   62 randomized atomic wfcs

     total cpu time spent up to now is     8894.6 secs

     Self-consistent Calculation

     iteration #  1     ecut=    50.00 Ry     beta= 0.60
     Davidson diagonalization with overlap
     ethr =  1.00E-06,  avg # of iterations = 10.4

     total cpu time spent up to now is     8948.1 secs

     total energy              =    -575.26333275 Ry
     Harris-Foulkes estimate   =    -589.95940794 Ry
     estimated scf accuracy    <      18.51578911 Ry

     iteration #  2     ecut=    50.00 Ry     beta= 0.60
     Davidson diagonalization with overlap
     ethr =  1.00E-02,  avg # of iterations =  6.5

     total cpu time spent up to now is     8982.2 secs

     total energy              =    -577.23672208 Ry
     Harris-Foulkes estimate   =    -605.59779962 Ry
     estimated scf accuracy    <      87.44876695 Ry

     iteration #  3     ecut=    50.00 Ry     beta= 0.60
     Davidson diagonalization with overlap
     ethr =  1.00E-02,  avg # of iterations =  4.0

     total cpu time spent up to now is     9008.3 secs

     total energy              =    -588.79487634 Ry
     Harris-Foulkes estimate   =    -590.37604633 Ry
     estimated scf accuracy    <      10.53682594 Ry

     iteration #  4     ecut=    50.00 Ry     beta= 0.60
     Davidson diagonalization with overlap
     ethr =  1.00E-02,  avg # of iterations =  1.6

     total cpu time spent up to now is     9025.1 secs

     total energy              =    -589.07960427 Ry
     Harris-Foulkes estimate   =    -589.34222553 Ry
     estimated scf accuracy    <       3.72818666 Ry

     iteration #  5     ecut=    50.00 Ry     beta= 0.60
     Davidson diagonalization with overlap
     ethr =  5.83E-03,  avg # of iterations =  1.0

     total cpu time spent up to now is     9041.4 secs

     total energy              =    -588.15164507 Ry
     Harris-Foulkes estimate   =    -589.12197877 Ry
     estimated scf accuracy    <       3.22522609 Ry

     iteration #  6     ecut=    50.00 Ry     beta= 0.60
     Davidson diagonalization with overlap
     ethr =  5.04E-03,  avg # of iterations =  3.4

     total cpu time spent up to now is     9060.3 secs

     total energy              =    -588.19740953 Ry
     Harris-Foulkes estimate   =    -588.35963385 Ry
     estimated scf accuracy    <       0.57203036 Ry

     iteration #  7     ecut=    50.00 Ry     beta= 0.60
     Davidson diagonalization with overlap
     ethr =  8.94E-04,  avg # of iterations =  4.8

     total cpu time spent up to now is     9087.9 secs

     total energy              =    -588.07235392 Ry
     Harris-Foulkes estimate   =    -588.46459333 Ry
     estimated scf accuracy    <       1.25556314 Ry

     iteration #  8     ecut=    50.00 Ry     beta= 0.60
     Davidson diagonalization with overlap
     ethr =  8.94E-04,  avg # of iterations =  5.3

     total cpu time spent up to now is     9113.1 secs

     total energy              =    -588.39282570 Ry
     Harris-Foulkes estimate   =    -588.52571768 Ry
     estimated scf accuracy    <       1.05547093 Ry

     iteration #  9     ecut=    50.00 Ry     beta= 0.60
     Davidson diagonalization with overlap
     ethr =  8.94E-04,  avg # of iterations =  1.0

     total cpu time spent up to now is     9129.4 secs

     total energy              =    -588.40647062 Ry
     Harris-Foulkes estimate   =    -588.40698814 Ry
     estimated scf accuracy    <       0.55415170 Ry

     iteration # 10     ecut=    50.00 Ry     beta= 0.60
     Davidson diagonalization with overlap
     ethr =  8.66E-04,  avg # of iterations =  1.0

     total cpu time spent up to now is     9145.7 secs

     total energy              =    -588.35458188 Ry
     Harris-Foulkes estimate   =    -588.40944501 Ry
     estimated scf accuracy    <       0.54280378 Ry

     iteration # 11     ecut=    50.00 Ry     beta= 0.60
     Davidson diagonalization with overlap
     ethr =  8.48E-04,  avg # of iterations =  1.8

     total cpu time spent up to now is     9162.7 secs

     total energy              =    -588.36772566 Ry
     Harris-Foulkes estimate   =    -588.36621280 Ry
     estimated scf accuracy    <       0.23552030 Ry

     iteration # 12     ecut=    50.00 Ry     beta= 0.60
     Davidson diagonalization with overlap
     ethr =  3.68E-04,  avg # of iterations =  4.2

     total cpu time spent up to now is     9182.9 secs

     total energy              =    -588.38460454 Ry
     Harris-Foulkes estimate   =    -588.38142543 Ry
     estimated scf accuracy    <       0.09635038 Ry

     iteration # 13     ecut=    50.00 Ry     beta= 0.60
     Davidson diagonalization with overlap
     ethr =  1.51E-04,  avg # of iterations =  3.0

     total cpu time spent up to now is     9201.4 secs

     total energy              =    -588.38560402 Ry
     Harris-Foulkes estimate   =    -588.38701553 Ry
     estimated scf accuracy    <       0.09307742 Ry

     iteration # 14     ecut=    50.00 Ry     beta= 0.60
     Davidson diagonalization with overlap
     ethr =  1.45E-04,  avg # of iterations =  1.0

     total cpu time spent up to now is     9217.7 secs

     total energy              =    -588.36672396 Ry
     Harris-Foulkes estimate   =    -588.38580549 Ry
     estimated scf accuracy    <       0.08204918 Ry

     iteration # 15     ecut=    50.00 Ry     beta= 0.60
     Davidson diagonalization with overlap
     ethr =  1.28E-04,  avg # of iterations =  4.5

     total cpu time spent up to now is     9238.7 secs

     total energy              =    -588.37964868 Ry
     Harris-Foulkes estimate   =    -588.38056392 Ry
     estimated scf accuracy    <       0.02160666 Ry

     iteration # 16     ecut=    50.00 Ry     beta= 0.60
     Davidson diagonalization with overlap
     ethr =  3.38E-05,  avg # of iterations =  3.1

     total cpu time spent up to now is     9257.7 secs

     total energy              =    -588.37938459 Ry
     Harris-Foulkes estimate   =    -588.38038143 Ry
     estimated scf accuracy    <       0.01889221 Ry

     iteration # 17     ecut=    50.00 Ry     beta= 0.60
     Davidson diagonalization with overlap
     ethr =  2.95E-05,  avg # of iterations =  1.1

     total cpu time spent up to now is     9274.0 secs

     total energy              =    -588.37943562 Ry
     Harris-Foulkes estimate   =    -588.37960361 Ry
     estimated scf accuracy    <       0.00897795 Ry

     iteration # 18     ecut=    50.00 Ry     beta= 0.60
     Davidson diagonalization with overlap
     ethr =  1.40E-05,  avg # of iterations =  1.0

     total cpu time spent up to now is     9290.3 secs

     total energy              =    -588.37955505 Ry
     Harris-Foulkes estimate   =    -588.37948514 Ry
     estimated scf accuracy    <       0.00707177 Ry

     iteration # 19     ecut=    50.00 Ry     beta= 0.60
     Davidson diagonalization with overlap
     ethr =  1.10E-05,  avg # of iterations =  1.0

     total cpu time spent up to now is     9306.6 secs

     total energy              =    -588.37986525 Ry
     Harris-Foulkes estimate   =    -588.37957649 Ry
     estimated scf accuracy    <       0.00736901 Ry

     iteration # 20     ecut=    50.00 Ry     beta= 0.60
     Davidson diagonalization with overlap
     ethr =  1.10E-05,  avg # of iterations =  1.1

     total cpu time spent up to now is     9323.0 secs

     total energy              =    -588.38002178 Ry
     Harris-Foulkes estimate   =    -588.37990773 Ry
     estimated scf accuracy    <       0.01034932 Ry

     iteration # 21     ecut=    50.00 Ry     beta= 0.60
     Davidson diagonalization with overlap
     ethr =  1.10E-05,  avg # of iterations =  1.0

     total cpu time spent up to now is     9339.3 secs

     total energy              =    -588.37862053 Ry
     Harris-Foulkes estimate   =    -588.38002991 Ry
     estimated scf accuracy    <       0.01172975 Ry

     iteration # 22     ecut=    50.00 Ry     beta= 0.60
     Davidson diagonalization with overlap
     ethr =  1.10E-05,  avg # of iterations =  1.2

     total cpu time spent up to now is     9355.7 secs

     total energy              =    -588.37879195 Ry
     Harris-Foulkes estimate   =    -588.37904104 Ry
     estimated scf accuracy    <       0.00160862 Ry

     iteration # 23     ecut=    50.00 Ry     beta= 0.60
     Davidson diagonalization with overlap
     ethr =  2.51E-06,  avg # of iterations =  5.4

     total cpu time spent up to now is     9381.1 secs

     total energy              =    -588.37913389 Ry
     Harris-Foulkes estimate   =    -588.37919177 Ry
     estimated scf accuracy    <       0.00054972 Ry

     iteration # 24     ecut=    50.00 Ry     beta= 0.60
     Davidson diagonalization with overlap
     ethr =  8.59E-07,  avg # of iterations =  1.0

     total cpu time spent up to now is     9397.4 secs

     total energy              =    -588.37907398 Ry
     Harris-Foulkes estimate   =    -588.37914604 Ry
     estimated scf accuracy    <       0.00017920 Ry

     iteration # 25     ecut=    50.00 Ry     beta= 0.60
     Davidson diagonalization with overlap
     ethr =  2.80E-07,  avg # of iterations =  4.3

     total cpu time spent up to now is     9421.9 secs

     total energy              =    -588.37910173 Ry
     Harris-Foulkes estimate   =    -588.37919845 Ry
     estimated scf accuracy    <       0.00061356 Ry

     iteration # 26     ecut=    50.00 Ry     beta= 0.60
     Davidson diagonalization with overlap
     ethr =  2.80E-07,  avg # of iterations =  3.6

     total cpu time spent up to now is     9442.5 secs

     total energy              =    -588.37913908 Ry
     Harris-Foulkes estimate   =    -588.37914058 Ry
     estimated scf accuracy    <       0.00001165 Ry

     iteration # 27     ecut=    50.00 Ry     beta= 0.60
     Davidson diagonalization with overlap
     ethr =  1.82E-08,  avg # of iterations =  3.7

     total cpu time spent up to now is     9463.7 secs

     total energy              =    -588.37914097 Ry
     Harris-Foulkes estimate   =    -588.37914103 Ry
     estimated scf accuracy    <       0.00000025 Ry

     iteration # 28     ecut=    50.00 Ry     beta= 0.60
     Davidson diagonalization with overlap
     ethr =  3.95E-10,  avg # of iterations =  5.0

     total cpu time spent up to now is     9489.0 secs

     total energy              =    -588.37914111 Ry
     Harris-Foulkes estimate   =    -588.37914116 Ry
     estimated scf accuracy    <       0.00000039 Ry

     iteration # 29     ecut=    50.00 Ry     beta= 0.60
     Davidson diagonalization with overlap
     ethr =  3.95E-10,  avg # of iterations =  1.5

     total cpu time spent up to now is     9505.7 secs

     total energy              =    -588.37914111 Ry
     Harris-Foulkes estimate   =    -588.37914112 Ry
     estimated scf accuracy    <       0.00000005 Ry

     iteration # 30     ecut=    50.00 Ry     beta= 0.60
     Davidson diagonalization with overlap
     ethr =  8.15E-11,  avg # of iterations =  4.0

     total cpu time spent up to now is     9528.3 secs

     total energy              =    -588.37914113 Ry
     Harris-Foulkes estimate   =    -588.37914113 Ry
     estimated scf accuracy    <       0.00000002 Ry

     iteration # 31     ecut=    50.00 Ry     beta= 0.60
     Davidson diagonalization with overlap
     ethr =  3.32E-11,  avg # of iterations =  1.0

     total cpu time spent up to now is     9544.6 secs

     total energy              =    -588.37914113 Ry
     Harris-Foulkes estimate   =    -588.37914113 Ry
     estimated scf accuracy    <          6.3E-09 Ry

     iteration # 32     ecut=    50.00 Ry     beta= 0.60
     Davidson diagonalization with overlap
     ethr =  9.92E-12,  avg # of iterations =  3.5

     total cpu time spent up to now is     9564.5 secs

     total energy              =    -588.37914113 Ry
     Harris-Foulkes estimate   =    -588.37914113 Ry
     estimated scf accuracy    <          5.1E-11 Ry

     iteration # 33     ecut=    50.00 Ry     beta= 0.60
     Davidson diagonalization with overlap
     ethr =  1.00E-13,  avg # of iterations =  4.9

     total cpu time spent up to now is     9590.5 secs

     total energy              =    -588.37914113 Ry
     Harris-Foulkes estimate   =    -588.37914113 Ry
     estimated scf accuracy    <          1.3E-10 Ry

     iteration # 34     ecut=    50.00 Ry     beta= 0.60
     Davidson diagonalization with overlap
     ethr =  1.00E-13,  avg # of iterations =  3.7

     total cpu time spent up to now is     9612.5 secs

     total energy              =    -588.37914113 Ry
     Harris-Foulkes estimate   =    -588.37914113 Ry
     estimated scf accuracy    <          1.2E-11 Ry

     iteration # 35     ecut=    50.00 Ry     beta= 0.60
     Davidson diagonalization with overlap
     ethr =  1.00E-13,  avg # of iterations =  1.0

     total cpu time spent up to now is     9628.8 secs

     End of self-consistent calculation

     Number of k-points >= 100: set verbosity='high' to print the bands.

     the Fermi energy is    17.0141 ev

!    total energy              =    -588.37914113 Ry
     Harris-Foulkes estimate   =    -588.37914113 Ry
     estimated scf accuracy    <          7.9E-13 Ry

     The total energy is the sum of the following terms:

     one-electron contribution =    -105.75037237 Ry
     hartree contribution      =      84.38895851 Ry
     xc contribution           =     -88.30535418 Ry
     ewald contribution        =    -478.71294082 Ry
     smearing contrib. (-TS)   =       0.00056773 Ry

     convergence has been achieved in  35 iterations

     Forces acting on atoms (cartesian axes, Ry/au):

     atom    1 type  2   force =    -0.00000000   -0.00000000    0.00000000
     atom    2 type  1   force =    -0.00000003    0.00000003    0.00000003
     atom    3 type  1   force =    -0.00000765    0.00000765    0.00000765
     atom    4 type  1   force =     0.00000765   -0.00000765   -0.00000765
     atom    5 type  1   force =     0.00000003   -0.00000003   -0.00000003

     Total force =     0.000019     Total SCF correction =     0.000001


     Computing stress (Cartesian axis) and pressure

          total   stress  (Ry/bohr**3)                   (kbar)     P=   -1.40
  -0.00000952   0.00000005   0.00000005         -1.40      0.01      0.01
   0.00000005  -0.00000952  -0.00000005          0.01     -1.40     -0.01
   0.00000005  -0.00000005  -0.00000952          0.01     -0.01     -1.40

 
     init_run     :     24.05s CPU     24.74s WALL (       2 calls)
     electrons    :   9168.18s CPU   9351.95s WALL (      20 calls)
     update_pot   :     33.45s CPU     33.62s WALL (      18 calls)
     forces       :     54.17s CPU     56.85s WALL (      20 calls)
     stress       :    152.16s CPU    159.84s WALL (      20 calls)

     Called by init_run:
     wfcinit      :     21.68s CPU     22.08s WALL (       2 calls)
     potinit      :      0.72s CPU      0.74s WALL (       2 calls)
     hinit0       :      1.28s CPU      1.31s WALL (       2 calls)

     Called by electrons:
     c_bands      :   7635.15s CPU   7718.64s WALL (     358 calls)
     sum_band     :   1418.38s CPU   1473.93s WALL (     358 calls)
     v_of_rho     :     24.60s CPU     24.94s WALL (     368 calls)
     newd         :     92.28s CPU    137.86s WALL (     368 calls)
     mix_rho      :      2.61s CPU      2.62s WALL (     358 calls)

     Called by c_bands:
     init_us_2    :     99.04s CPU     99.57s WALL (  143262 calls)
     cegterg      :   7045.71s CPU   7121.78s WALL (   67662 calls)

     Called by sum_band:
     sum_band:bec :      2.11s CPU      2.01s WALL (   67662 calls)
     addusdens    :    105.93s CPU    147.23s WALL (     358 calls)

     Called by *egterg:
     h_psi        :   5425.27s CPU   5495.49s WALL (  277222 calls)
     s_psi        :    170.62s CPU    171.42s WALL (  277222 calls)
     g_psi        :     34.76s CPU     34.86s WALL (  209182 calls)
     cdiaghg      :    768.24s CPU    769.78s WALL (  271552 calls)

     Called by h_psi:
     h_psi:pot    :   5408.75s CPU   5479.09s WALL (  277222 calls)
     h_psi:calbec :    185.78s CPU    187.26s WALL (  277222 calls)
     vloc_psi     :   5047.46s CPU   5116.35s WALL (  277222 calls)
     add_vuspsi   :    174.45s CPU    173.95s WALL (  277222 calls)

     General routines
     calbec       :    270.48s CPU    272.13s WALL (  363784 calls)
     fft          :     14.62s CPU     14.91s WALL (    5292 calls)
     ffts         :      0.51s CPU      0.52s WALL (     726 calls)
     fftw         :   5579.28s CPU   5623.82s WALL (15602212 calls)
     interpolate  :      1.32s CPU      1.33s WALL (     368 calls)
 
     Parallel routines
     fft_scatt_xy :   1057.41s CPU   1081.25s WALL (15608230 calls)
     fft_scatt_yz :   1041.49s CPU   1009.15s WALL (15608230 calls)
 
     PWSCF        :     2h37m CPU       37h 2m WALL

      40h
 
   This run was terminated on:  17:23:55   2Feb2020            

=------------------------------------------------------------------------------=
   JOB DONE.
=------------------------------------------------------------------------------=
