
     Program PWSCF v.6.3MaX starts on 11Feb2020 at  8:21: 0 

     This program is part of the open-source Quantum ESPRESSO suite
     for quantum simulation of materials; please cite
         "P. Giannozzi et al., J. Phys.:Condens. Matter 21 395502 (2009);
         "P. Giannozzi et al., J. Phys.:Condens. Matter 29 465901 (2017);
          URL http://www.quantum-espresso.org", 
     in publications or presentations arising from this work. More details at
     http://www.quantum-espresso.org/quote

     Parallel version (MPI), running on     4 processors

     MPI processes distributed on     1 nodes
     R & G space division:  proc/nbgrp/npool/nimage =       4
     Waiting for input...
     Reading input from standard input

     Current dimensions of program PWSCF are:
     Max number of different atomic species (ntypx) = 10
     Max number of k-points (npk) =  40000
     Max angular momentum in pseudopotentials (lmaxx) =  3
     Message from routine iosys:
     minimal I/O required, wf_collect reset to FALSE

     Subspace diagonalization in iterative solution of the eigenvalue problem:
     a serial algorithm will be used

 
     Parallelization info
     --------------------
     sticks:   dense  smooth     PW     G-vecs:    dense   smooth      PW
     Min         228      91     28                27310     6922    1177
     Max         229      92     31                27335     6930    1184
     Sum         913     367    121               109271    27707    4719
 


     bravais-lattice index     =            0
     lattice parameter (alat)  =       1.8897  a.u.
     unit-cell volume          =     808.3427 (a.u.)^3
     number of atoms/cell      =            6
     number of atomic types    =            2
     number of electrons       =        74.00
     number of Kohn-Sham states=           44
     kinetic-energy cutoff     =      40.0000  Ry
     charge density cutoff     =     400.0000  Ry
     convergence threshold     =      1.0E-10
     mixing beta               =       0.6000
     number of iterations used =            8  plain     mixing
     Exchange-correlation      = SLA PW PBE PBE ( 1  4  3  4 0 0)
     nstep                     =           50


     celldm(1)=   1.889726  celldm(2)=   0.000000  celldm(3)=   0.000000
     celldm(4)=   0.000000  celldm(5)=   0.000000  celldm(6)=   0.000000

     crystal axes: (cart. coord. in units of alat)
               a(1) = (  -1.522502  -2.637051   0.000000 )  
               a(2) = (   3.045004   0.000000   0.000000 )  
               a(3) = (   0.000000   0.000000  14.917383 )  

     reciprocal axes: (cart. coord. in units 2 pi/alat)
               b(1) = (  0.000000 -0.379211  0.000000 )  
               b(2) = (  0.328407 -0.189606  0.000000 )  
               b(3) = (  0.000000  0.000000  0.067036 )  


     PseudoPot. # 1 for Nb read from file:
     ./Nb.pbe-nsp-van.UPF
     MD5 check sum: 0a22fc7fb0ba19a08ca5db297a5d2854
     Pseudo is Ultrasoft + core correction, Zval = 13.0
     Generated by new atomic code, or converted to UPF format
     Using radial grid of  887 points,  6 beta functions with: 
                l(1) =   0
                l(2) =   0
                l(3) =   1
                l(4) =   1
                l(5) =   2
                l(6) =   2
     Q(r) pseudized with  6 coefficients,  rinner =    1.000   1.000   1.000
                                                       1.000   1.000

     PseudoPot. # 2 for Ti read from file:
     ./Ti.pbe-sp-van_ak.UPF
     MD5 check sum: f98fea3e8887528921fefa5636a534ca
     Pseudo is Ultrasoft, Zval = 12.0
     Generated by new atomic code, or converted to UPF format
     Using radial grid of  851 points,  6 beta functions with: 
                l(1) =   0
                l(2) =   0
                l(3) =   1
                l(4) =   1
                l(5) =   2
                l(6) =   2
     Q(r) pseudized with  8 coefficients,  rinner =    1.000   1.000   1.000
                                                       1.000   1.000

     atomic species   valence    mass     pseudopotential
        Nb            13.00    92.90638     Nb( 1.00)
        Ti            12.00    47.86700     Ti( 1.00)

     12 Sym. Ops. (no inversion) found ( 6 have fractional translation)



   Cartesian axes

     site n.     atom                  positions (alat units)
         1           Ti  tau(   1) = (   1.5225021  -2.6370512   4.9724614  )
         2           Ti  tau(   2) = (   0.0000015  -1.7580350   2.4862307  )
         3           Ti  tau(   3) = (   1.5225021  -2.6370512   9.9449228  )
         4           Nb  tau(   4) = (   0.0000015  -1.7580350   7.4586921  )
         5           Ti  tau(   5) = (   1.5225021  -2.6370512  14.9173841  )
         6           Nb  tau(   6) = (   0.0000015  -1.7580350  12.4311534  )

     number of k points=   120  Marzari-Vanderbilt smearing, width (Ry)=  0.0200

     Number of k-points >= 100: set verbosity='high' to print them.

     Dense  grid:   109271 G-vectors     FFT dimensions: (  40,  40, 180)

     Smooth grid:    27707 G-vectors     FFT dimensions: (  24,  24, 120)

     Estimated max dynamical RAM per process >     174.94 MB

     Estimated total dynamical RAM >     699.78 MB

     Initial potential from superposition of free atoms

     starting charge   69.99436, renormalised to   74.00000
     Starting wfcs are   66 randomized atomic wfcs

     total cpu time spent up to now is        7.4 secs

     Self-consistent Calculation

     iteration #  1     ecut=    40.00 Ry     beta= 0.60
     Davidson diagonalization with overlap
     ethr =  1.00E-02,  avg # of iterations =  4.8

     total cpu time spent up to now is       25.6 secs

     total energy              =    -415.55647716 Ry
     Harris-Foulkes estimate   =    -728.02703486 Ry
     estimated scf accuracy    <     375.84437251 Ry

     iteration #  2     ecut=    40.00 Ry     beta= 0.60
     Davidson diagonalization with overlap
     c_bands:  2 eigenvalues not converged
     c_bands:  1 eigenvalues not converged
     c_bands:  1 eigenvalues not converged
     c_bands:  1 eigenvalues not converged
     c_bands:  1 eigenvalues not converged
     c_bands:  3 eigenvalues not converged
     c_bands:  1 eigenvalues not converged
     c_bands:  1 eigenvalues not converged
     c_bands:  2 eigenvalues not converged
     c_bands:  3 eigenvalues not converged
     ethr =  1.00E-02,  avg # of iterations = 17.5

     total cpu time spent up to now is       93.3 secs

     total energy              =    -642.72058435 Ry
     Harris-Foulkes estimate   =   -1634.32346426 Ry
     estimated scf accuracy    <    4092.98448420 Ry

     iteration #  3     ecut=    40.00 Ry     beta= 0.60
     Davidson diagonalization with overlap
     ethr =  1.00E-02,  avg # of iterations =  9.7

     total cpu time spent up to now is      133.2 secs

     total energy              =    -715.69778206 Ry
     Harris-Foulkes estimate   =    -879.39632674 Ry
     estimated scf accuracy    <     766.61716876 Ry

     iteration #  4     ecut=    40.00 Ry     beta= 0.60
     Davidson diagonalization with overlap
     ethr =  1.00E-02,  avg # of iterations =  8.1

     total cpu time spent up to now is      161.3 secs

     total energy              =    -702.15523060 Ry
     Harris-Foulkes estimate   =    -752.20948799 Ry
     estimated scf accuracy    <     671.58830875 Ry

     iteration #  5     ecut=    40.00 Ry     beta= 0.60
     Davidson diagonalization with overlap
     ethr =  1.00E-02,  avg # of iterations =  7.9

     total cpu time spent up to now is      185.7 secs

     total energy              =    -707.47436911 Ry
     Harris-Foulkes estimate   =    -710.84259549 Ry
     estimated scf accuracy    <     194.40953543 Ry

     iteration #  6     ecut=    40.00 Ry     beta= 0.60
     Davidson diagonalization with overlap
     ethr =  1.00E-02,  avg # of iterations =  5.8

     total cpu time spent up to now is      202.4 secs

     total energy              =    -691.47780270 Ry
     Harris-Foulkes estimate   =    -710.67839516 Ry
     estimated scf accuracy    <     189.07801747 Ry

     iteration #  7     ecut=    40.00 Ry     beta= 0.60
     Davidson diagonalization with overlap
     ethr =  1.00E-02,  avg # of iterations =  5.8

     total cpu time spent up to now is      224.2 secs

     total energy              =    -700.96321117 Ry
     Harris-Foulkes estimate   =    -708.37830583 Ry
     estimated scf accuracy    <     157.47181576 Ry

     iteration #  8     ecut=    40.00 Ry     beta= 0.60
     Davidson diagonalization with overlap
     ethr =  1.00E-02,  avg # of iterations =  6.3

     total cpu time spent up to now is      243.2 secs

     total energy              =    -707.54807117 Ry
     Harris-Foulkes estimate   =    -707.05887960 Ry
     estimated scf accuracy    <      51.50018621 Ry

     iteration #  9     ecut=    40.00 Ry     beta= 0.60
     Davidson diagonalization with overlap
     ethr =  1.00E-02,  avg # of iterations =  1.3

     total cpu time spent up to now is      253.8 secs

     total energy              =    -707.34188569 Ry
     Harris-Foulkes estimate   =    -707.62132759 Ry
     estimated scf accuracy    <      66.52401580 Ry

     iteration # 10     ecut=    40.00 Ry     beta= 0.60
     Davidson diagonalization with overlap
     ethr =  1.00E-02,  avg # of iterations =  1.0

     total cpu time spent up to now is      264.2 secs

     total energy              =    -701.21496555 Ry
     Harris-Foulkes estimate   =    -707.36111468 Ry
     estimated scf accuracy    <      62.35028299 Ry

     iteration # 11     ecut=    40.00 Ry     beta= 0.60
     Davidson diagonalization with overlap
     ethr =  1.00E-02,  avg # of iterations =  4.1

     total cpu time spent up to now is      281.0 secs

     total energy              =    -703.85375353 Ry
     Harris-Foulkes estimate   =    -705.58897065 Ry
     estimated scf accuracy    <      50.06682929 Ry

     iteration # 12     ecut=    40.00 Ry     beta= 0.60
     Davidson diagonalization with overlap
     ethr =  1.00E-02,  avg # of iterations =  1.0

     total cpu time spent up to now is      291.5 secs

     total energy              =    -703.81785383 Ry
     Harris-Foulkes estimate   =    -704.18669758 Ry
     estimated scf accuracy    <      14.28692549 Ry

     iteration # 13     ecut=    40.00 Ry     beta= 0.60
     Davidson diagonalization with overlap
     ethr =  1.00E-02,  avg # of iterations =  1.0

     total cpu time spent up to now is      301.8 secs

     total energy              =    -702.56816394 Ry
     Harris-Foulkes estimate   =    -703.84807034 Ry
     estimated scf accuracy    <      11.97358722 Ry

     iteration # 14     ecut=    40.00 Ry     beta= 0.60
     Davidson diagonalization with overlap
     ethr =  1.00E-02,  avg # of iterations =  1.0

     total cpu time spent up to now is      312.3 secs

     total energy              =    -701.81212689 Ry
     Harris-Foulkes estimate   =    -702.79656072 Ry
     estimated scf accuracy    <       3.74108010 Ry

     iteration # 15     ecut=    40.00 Ry     beta= 0.60
     Davidson diagonalization with overlap
     ethr =  5.06E-03,  avg # of iterations =  5.4

     total cpu time spent up to now is      330.7 secs

     total energy              =    -701.37453491 Ry
     Harris-Foulkes estimate   =    -703.18145996 Ry
     estimated scf accuracy    <      20.76480264 Ry

     iteration # 16     ecut=    40.00 Ry     beta= 0.60
     Davidson diagonalization with overlap
     ethr =  5.06E-03,  avg # of iterations =  2.8

     total cpu time spent up to now is      343.0 secs

     total energy              =    -702.20947082 Ry
     Harris-Foulkes estimate   =    -702.62162840 Ry
     estimated scf accuracy    <      24.54187201 Ry

     iteration # 17     ecut=    40.00 Ry     beta= 0.60
     Davidson diagonalization with overlap
     ethr =  5.06E-03,  avg # of iterations =  2.5

     total cpu time spent up to now is      355.0 secs

     total energy              =    -701.19213555 Ry
     Harris-Foulkes estimate   =    -702.81228460 Ry
     estimated scf accuracy    <      10.85521459 Ry

     iteration # 18     ecut=    40.00 Ry     beta= 0.60
     Davidson diagonalization with overlap
     ethr =  5.06E-03,  avg # of iterations =  4.5

     total cpu time spent up to now is      369.5 secs

     total energy              =    -702.56958805 Ry
     Harris-Foulkes estimate   =    -702.70946728 Ry
     estimated scf accuracy    <       7.14060455 Ry

     iteration # 19     ecut=    40.00 Ry     beta= 0.60
     Davidson diagonalization with overlap
     ethr =  5.06E-03,  avg # of iterations =  1.3

     total cpu time spent up to now is      380.0 secs

     total energy              =    -702.45910947 Ry
     Harris-Foulkes estimate   =    -702.61245680 Ry
     estimated scf accuracy    <       4.77152779 Ry

     iteration # 20     ecut=    40.00 Ry     beta= 0.60
     Davidson diagonalization with overlap
     ethr =  5.06E-03,  avg # of iterations =  1.0

     total cpu time spent up to now is      390.4 secs

     total energy              =    -702.51157350 Ry
     Harris-Foulkes estimate   =    -702.49094250 Ry
     estimated scf accuracy    <       1.91347770 Ry

     iteration # 21     ecut=    40.00 Ry     beta= 0.60
     Davidson diagonalization with overlap
     ethr =  2.59E-03,  avg # of iterations =  1.4

     total cpu time spent up to now is      401.2 secs

     total energy              =    -702.33894005 Ry
     Harris-Foulkes estimate   =    -702.53469744 Ry
     estimated scf accuracy    <       2.31459339 Ry

     iteration # 22     ecut=    40.00 Ry     beta= 0.60
     Davidson diagonalization with overlap
     ethr =  2.59E-03,  avg # of iterations =  1.1

     total cpu time spent up to now is      411.6 secs

     total energy              =    -702.38180018 Ry
     Harris-Foulkes estimate   =    -702.39443121 Ry
     estimated scf accuracy    <       0.65518771 Ry

     iteration # 23     ecut=    40.00 Ry     beta= 0.60
     Davidson diagonalization with overlap
     ethr =  8.85E-04,  avg # of iterations =  2.1

     total cpu time spent up to now is      422.9 secs

     total energy              =    -702.37466666 Ry
     Harris-Foulkes estimate   =    -702.39076999 Ry
     estimated scf accuracy    <       0.42239141 Ry

     iteration # 24     ecut=    40.00 Ry     beta= 0.60
     Davidson diagonalization with overlap
     ethr =  5.71E-04,  avg # of iterations =  2.1

     total cpu time spent up to now is      434.2 secs

     total energy              =    -702.37025797 Ry
     Harris-Foulkes estimate   =    -702.38223860 Ry
     estimated scf accuracy    <       0.15298519 Ry

     iteration # 25     ecut=    40.00 Ry     beta= 0.60
     Davidson diagonalization with overlap
     ethr =  2.07E-04,  avg # of iterations =  5.3

     total cpu time spent up to now is      450.2 secs

     total energy              =    -702.38622598 Ry
     Harris-Foulkes estimate   =    -702.38684016 Ry
     estimated scf accuracy    <       0.00688788 Ry

     iteration # 26     ecut=    40.00 Ry     beta= 0.60
     Davidson diagonalization with overlap
     c_bands:  1 eigenvalues not converged
     c_bands:  2 eigenvalues not converged
     ethr =  9.31E-06,  avg # of iterations =  8.5

     total cpu time spent up to now is      472.9 secs

     total energy              =    -702.38747019 Ry
     Harris-Foulkes estimate   =    -702.38766066 Ry
     estimated scf accuracy    <       0.00106192 Ry

     iteration # 27     ecut=    40.00 Ry     beta= 0.60
     Davidson diagonalization with overlap
     c_bands:  1 eigenvalues not converged
     c_bands:  1 eigenvalues not converged
     ethr =  1.44E-06,  avg # of iterations =  4.4

     total cpu time spent up to now is      487.3 secs

     total energy              =    -702.38756024 Ry
     Harris-Foulkes estimate   =    -702.38765608 Ry
     estimated scf accuracy    <       0.00160976 Ry

     iteration # 28     ecut=    40.00 Ry     beta= 0.60
     Davidson diagonalization with overlap
     ethr =  1.44E-06,  avg # of iterations =  1.2

     total cpu time spent up to now is      497.8 secs

     total energy              =    -702.38756028 Ry
     Harris-Foulkes estimate   =    -702.38758912 Ry
     estimated scf accuracy    <       0.00053955 Ry

     iteration # 29     ecut=    40.00 Ry     beta= 0.60
     Davidson diagonalization with overlap
     ethr =  7.29E-07,  avg # of iterations =  1.8

     total cpu time spent up to now is      508.8 secs

     total energy              =    -702.38755642 Ry
     Harris-Foulkes estimate   =    -702.38757176 Ry
     estimated scf accuracy    <       0.00022405 Ry

     iteration # 30     ecut=    40.00 Ry     beta= 0.60
     Davidson diagonalization with overlap
     ethr =  3.03E-07,  avg # of iterations =  3.7

     total cpu time spent up to now is      522.3 secs

     total energy              =    -702.38757156 Ry
     Harris-Foulkes estimate   =    -702.38757260 Ry
     estimated scf accuracy    <       0.00001714 Ry

     iteration # 31     ecut=    40.00 Ry     beta= 0.60
     Davidson diagonalization with overlap
     ethr =  2.32E-08,  avg # of iterations =  5.7

     total cpu time spent up to now is      540.4 secs

     total energy              =    -702.38757386 Ry
     Harris-Foulkes estimate   =    -702.38757710 Ry
     estimated scf accuracy    <       0.00005178 Ry

     iteration # 32     ecut=    40.00 Ry     beta= 0.60
     Davidson diagonalization with overlap
     ethr =  2.32E-08,  avg # of iterations =  1.6

     total cpu time spent up to now is      551.3 secs

     total energy              =    -702.38757384 Ry
     Harris-Foulkes estimate   =    -702.38757481 Ry
     estimated scf accuracy    <       0.00000987 Ry

     iteration # 33     ecut=    40.00 Ry     beta= 0.60
     Davidson diagonalization with overlap
     ethr =  1.33E-08,  avg # of iterations =  3.7

     total cpu time spent up to now is      565.0 secs

     total energy              =    -702.38757474 Ry
     Harris-Foulkes estimate   =    -702.38757476 Ry
     estimated scf accuracy    <       0.00000116 Ry

     iteration # 34     ecut=    40.00 Ry     beta= 0.60
     Davidson diagonalization with overlap
     ethr =  1.57E-09,  avg # of iterations =  4.6

     total cpu time spent up to now is      581.9 secs

     total energy              =    -702.38757480 Ry
     Harris-Foulkes estimate   =    -702.38757485 Ry
     estimated scf accuracy    <       0.00000151 Ry

     iteration # 35     ecut=    40.00 Ry     beta= 0.60
     Davidson diagonalization with overlap
     ethr =  1.57E-09,  avg # of iterations =  1.0

     total cpu time spent up to now is      592.3 secs

     total energy              =    -702.38757470 Ry
     Harris-Foulkes estimate   =    -702.38757481 Ry
     estimated scf accuracy    <       0.00000107 Ry

     iteration # 36     ecut=    40.00 Ry     beta= 0.60
     Davidson diagonalization with overlap
     ethr =  1.44E-09,  avg # of iterations =  1.5

     total cpu time spent up to now is      607.1 secs

     total energy              =    -702.38757474 Ry
     Harris-Foulkes estimate   =    -702.38757474 Ry
     estimated scf accuracy    <       0.00000006 Ry

     iteration # 37     ecut=    40.00 Ry     beta= 0.60
     Davidson diagonalization with overlap
     ethr =  8.16E-11,  avg # of iterations =  5.6

     total cpu time spent up to now is      625.4 secs

     total energy              =    -702.38757476 Ry
     Harris-Foulkes estimate   =    -702.38757476 Ry
     estimated scf accuracy    <       0.00000004 Ry

     iteration # 38     ecut=    40.00 Ry     beta= 0.60
     Davidson diagonalization with overlap
     ethr =  5.32E-11,  avg # of iterations =  1.1

     total cpu time spent up to now is      639.4 secs

     total energy              =    -702.38757476 Ry
     Harris-Foulkes estimate   =    -702.38757476 Ry
     estimated scf accuracy    <          8.9E-09 Ry

     iteration # 39     ecut=    40.00 Ry     beta= 0.60
     Davidson diagonalization with overlap
     ethr =  1.20E-11,  avg # of iterations =  3.5

     total cpu time spent up to now is      652.2 secs

     total energy              =    -702.38757476 Ry
     Harris-Foulkes estimate   =    -702.38757476 Ry
     estimated scf accuracy    <          5.1E-09 Ry

     iteration # 40     ecut=    40.00 Ry     beta= 0.60
     Davidson diagonalization with overlap
     ethr =  6.84E-12,  avg # of iterations =  4.0

     total cpu time spent up to now is      666.4 secs

     total energy              =    -702.38757476 Ry
     Harris-Foulkes estimate   =    -702.38757476 Ry
     estimated scf accuracy    <          1.3E-10 Ry

     iteration # 41     ecut=    40.00 Ry     beta= 0.60
     Davidson diagonalization with overlap
     ethr =  1.73E-13,  avg # of iterations =  5.9

     total cpu time spent up to now is      685.9 secs

     End of self-consistent calculation

     Number of k-points >= 100: set verbosity='high' to print the bands.

     the Fermi energy is    12.9775 ev

!    total energy              =    -702.38757476 Ry
     Harris-Foulkes estimate   =    -702.38757476 Ry
     estimated scf accuracy    <          9.3E-11 Ry

     The total energy is the sum of the following terms:

     one-electron contribution =    -232.41780211 Ry
     hartree contribution      =     138.27325254 Ry
     xc contribution           =     -94.33760350 Ry
     ewald contribution        =    -513.90173154 Ry
     smearing contrib. (-TS)   =      -0.00369013 Ry

     convergence has been achieved in  41 iterations

     Forces acting on atoms (cartesian axes, Ry/au):

     atom    1 type  2   force =     0.00000000    0.00000000   -0.00641613
     atom    2 type  2   force =     0.00000000    0.00000000    0.00000000
     atom    3 type  2   force =     0.00000000    0.00000000    0.00000000
     atom    4 type  1   force =     0.00000000    0.00000000    0.00068859
     atom    5 type  2   force =     0.00000000    0.00000000    0.00641613
     atom    6 type  1   force =     0.00000000    0.00000000   -0.00068859

     Total force =     0.009126     Total SCF correction =     0.000026


     Computing stress (Cartesian axis) and pressure

          total   stress  (Ry/bohr**3)                   (kbar)     P= -128.96
  -0.00089110  -0.00000000   0.00000000       -131.08     -0.00      0.00
   0.00000000  -0.00089110   0.00000000          0.00   -131.08      0.00
   0.00000000   0.00000000  -0.00084779          0.00      0.00   -124.71


     BFGS Geometry Optimization

     number of scf cycles    =   1
     number of bfgs steps    =   0

     enthalpy new            =    -702.3875747592 Ry

     new trust radius        =       0.1266753247 bohr
     new conv_thr            =            1.0E-10 Ry

     new unit-cell volume =    756.35067 a.u.^3 (   112.07961 Ang^3 )
     density =      5.58968 g/cm^3

CELL_PARAMETERS (alat=  1.88972599)
  -1.488584633  -2.578304401  -0.000000000
   2.977169265   0.000000000  -0.000000000
   0.000000000   0.000000000  14.601214277

ATOMIC_POSITIONS (angstrom)
Ti       1.488584633  -2.578304401   4.863748119
Ti       0.000001489  -1.718870460   2.433535713
Ti       1.488584633  -2.578304401   9.734142851
Nb       0.000001489  -1.718870460   7.300963801
Ti       1.488584633  -2.578304401  14.604537584
Nb       0.000001489  -1.718870460  12.167321902


     NEW-OLD atomic charge density approx. for the potential
     extrapolated charge   69.18854, renormalised to   74.00000

     total cpu time spent up to now is      695.8 secs

     Self-consistent Calculation

     iteration #  1     ecut=    40.00 Ry     beta= 0.60
     Davidson diagonalization with overlap
     c_bands:  1 eigenvalues not converged
     c_bands:  1 eigenvalues not converged
     c_bands:  1 eigenvalues not converged
     c_bands:  1 eigenvalues not converged
     c_bands:  1 eigenvalues not converged
     c_bands:  1 eigenvalues not converged
     c_bands:  2 eigenvalues not converged
     c_bands:  2 eigenvalues not converged
     c_bands:  2 eigenvalues not converged
     c_bands:  1 eigenvalues not converged
     c_bands:  1 eigenvalues not converged
     c_bands:  3 eigenvalues not converged
     c_bands:  2 eigenvalues not converged
     c_bands:  1 eigenvalues not converged
     c_bands:  1 eigenvalues not converged
     c_bands:  3 eigenvalues not converged
     c_bands:  1 eigenvalues not converged
     c_bands:  1 eigenvalues not converged
     c_bands:  2 eigenvalues not converged
     c_bands:  1 eigenvalues not converged
     c_bands:  1 eigenvalues not converged
     c_bands:  1 eigenvalues not converged
     c_bands:  1 eigenvalues not converged
     c_bands:  2 eigenvalues not converged
     c_bands:  2 eigenvalues not converged
     c_bands:  1 eigenvalues not converged
     c_bands:  1 eigenvalues not converged
     c_bands:  2 eigenvalues not converged
     c_bands:  2 eigenvalues not converged
     c_bands:  1 eigenvalues not converged
     c_bands:  2 eigenvalues not converged
     c_bands:  1 eigenvalues not converged
     c_bands:  1 eigenvalues not converged
     c_bands:  1 eigenvalues not converged
     c_bands:  1 eigenvalues not converged
     c_bands:  1 eigenvalues not converged
     c_bands:  1 eigenvalues not converged
     c_bands:  2 eigenvalues not converged
     c_bands:  1 eigenvalues not converged
     c_bands:  1 eigenvalues not converged
     c_bands:  1 eigenvalues not converged
     c_bands:  1 eigenvalues not converged
     c_bands:  1 eigenvalues not converged
     c_bands:  1 eigenvalues not converged
     c_bands:  1 eigenvalues not converged
     c_bands:  1 eigenvalues not converged
     c_bands:  1 eigenvalues not converged
     c_bands:  1 eigenvalues not converged
     c_bands:  1 eigenvalues not converged
     c_bands:  1 eigenvalues not converged
     c_bands:  2 eigenvalues not converged
     c_bands:  1 eigenvalues not converged
     c_bands:  2 eigenvalues not converged
     c_bands:  1 eigenvalues not converged
     ethr =  1.00E-06,  avg # of iterations = 19.2

     total cpu time spent up to now is      751.3 secs

     total energy              =    -614.32743146 Ry
     Harris-Foulkes estimate   =    -713.88320297 Ry
     estimated scf accuracy    <     105.24190276 Ry

     iteration #  2     ecut=    40.00 Ry     beta= 0.60
     Davidson diagonalization with overlap
     ethr =  1.00E-02,  avg # of iterations = 14.7

     total cpu time spent up to now is      798.7 secs

     total energy              =    -620.55773484 Ry
     Harris-Foulkes estimate   =   -1184.65312791 Ry
     estimated scf accuracy    <    3610.25376130 Ry

     iteration #  3     ecut=    40.00 Ry     beta= 0.60
     Davidson diagonalization with overlap
     ethr =  1.00E-02,  avg # of iterations =  7.6

     total cpu time spent up to now is      831.7 secs

     total energy              =    -697.16016434 Ry
     Harris-Foulkes estimate   =    -761.54210614 Ry
     estimated scf accuracy    <     588.75961017 Ry

     iteration #  4     ecut=    40.00 Ry     beta= 0.60
     Davidson diagonalization with overlap
     ethr =  1.00E-02,  avg # of iterations =  6.5

     total cpu time spent up to now is      855.1 secs

     total energy              =    -701.47398857 Ry
     Harris-Foulkes estimate   =    -714.32965601 Ry
     estimated scf accuracy    <     231.78958091 Ry

     iteration #  5     ecut=    40.00 Ry     beta= 0.60
     Davidson diagonalization with overlap
     ethr =  1.00E-02,  avg # of iterations =  5.7

     total cpu time spent up to now is      872.6 secs

     total energy              =    -702.38499905 Ry
     Harris-Foulkes estimate   =    -707.03336528 Ry
     estimated scf accuracy    <      77.66664250 Ry

     iteration #  6     ecut=    40.00 Ry     beta= 0.60
     Davidson diagonalization with overlap
     ethr =  1.00E-02,  avg # of iterations =  3.4

     total cpu time spent up to now is      886.1 secs

     total energy              =    -703.50278430 Ry
     Harris-Foulkes estimate   =    -704.17136313 Ry
     estimated scf accuracy    <       8.40915617 Ry

     iteration #  7     ecut=    40.00 Ry     beta= 0.60
     Davidson diagonalization with overlap
     ethr =  1.00E-02,  avg # of iterations =  5.6

     total cpu time spent up to now is      901.3 secs

     total energy              =    -700.99191492 Ry
     Harris-Foulkes estimate   =    -707.39882782 Ry
     estimated scf accuracy    <     151.60496255 Ry

     iteration #  8     ecut=    40.00 Ry     beta= 0.60
     Davidson diagonalization with overlap
     ethr =  1.00E-02,  avg # of iterations =  3.2

     total cpu time spent up to now is      913.9 secs

     total energy              =    -702.72360088 Ry
     Harris-Foulkes estimate   =    -702.95730525 Ry
     estimated scf accuracy    <       5.85223519 Ry

     iteration #  9     ecut=    40.00 Ry     beta= 0.60
     Davidson diagonalization with overlap
     ethr =  7.91E-03,  avg # of iterations =  1.1

     total cpu time spent up to now is      924.0 secs

     total energy              =    -702.58925744 Ry
     Harris-Foulkes estimate   =    -702.78319641 Ry
     estimated scf accuracy    <       6.88086575 Ry

     iteration # 10     ecut=    40.00 Ry     beta= 0.60
     Davidson diagonalization with overlap
     ethr =  7.91E-03,  avg # of iterations =  1.0

     total cpu time spent up to now is      934.0 secs

     total energy              =    -701.29977072 Ry
     Harris-Foulkes estimate   =    -702.62121708 Ry
     estimated scf accuracy    <       4.53275910 Ry

     iteration # 11     ecut=    40.00 Ry     beta= 0.60
     Davidson diagonalization with overlap
     ethr =  6.13E-03,  avg # of iterations =  6.2

     total cpu time spent up to now is      954.2 secs

     total energy              =    -700.50811607 Ry
     Harris-Foulkes estimate   =    -705.65459072 Ry
     estimated scf accuracy    <     127.30848217 Ry

     iteration # 12     ecut=    40.00 Ry     beta= 0.60
     Davidson diagonalization with overlap
     ethr =  6.13E-03,  avg # of iterations =  3.0

     total cpu time spent up to now is      966.3 secs

     total energy              =    -702.41615082 Ry
     Harris-Foulkes estimate   =    -702.41905497 Ry
     estimated scf accuracy    <       0.28584143 Ry

     iteration # 13     ecut=    40.00 Ry     beta= 0.60
     Davidson diagonalization with overlap
     ethr =  3.86E-04,  avg # of iterations =  8.5

     total cpu time spent up to now is      986.3 secs

     total energy              =    -702.44324458 Ry
     Harris-Foulkes estimate   =    -702.44539029 Ry
     estimated scf accuracy    <       0.10375972 Ry

     iteration # 14     ecut=    40.00 Ry     beta= 0.60
     Davidson diagonalization with overlap
     ethr =  1.40E-04,  avg # of iterations =  2.5

     total cpu time spent up to now is      997.5 secs

     total energy              =    -702.43656156 Ry
     Harris-Foulkes estimate   =    -702.44546025 Ry
     estimated scf accuracy    <       0.13291544 Ry

     iteration # 15     ecut=    40.00 Ry     beta= 0.60
     Davidson diagonalization with overlap
     ethr =  1.40E-04,  avg # of iterations =  1.3

     total cpu time spent up to now is     1007.7 secs

     total energy              =    -702.41216707 Ry
     Harris-Foulkes estimate   =    -702.44874800 Ry
     estimated scf accuracy    <       0.36753000 Ry

     iteration # 16     ecut=    40.00 Ry     beta= 0.60
     Davidson diagonalization with overlap
     c_bands:  1 eigenvalues not converged
     ethr =  1.40E-04,  avg # of iterations =  5.7

     total cpu time spent up to now is     1023.1 secs

     total energy              =    -702.46598905 Ry
     Harris-Foulkes estimate   =    -702.46237451 Ry
     estimated scf accuracy    <       0.58306361 Ry

     iteration # 17     ecut=    40.00 Ry     beta= 0.60
     Davidson diagonalization with overlap
     ethr =  1.40E-04,  avg # of iterations =  1.9

     total cpu time spent up to now is     1033.8 secs

     total energy              =    -702.50752880 Ry
     Harris-Foulkes estimate   =    -702.46688088 Ry
     estimated scf accuracy    <       0.56791656 Ry

     iteration # 18     ecut=    40.00 Ry     beta= 0.60
     Davidson diagonalization with overlap
     ethr =  1.40E-04,  avg # of iterations =  4.8

     total cpu time spent up to now is     1048.5 secs

     total energy              =    -702.37787744 Ry
     Harris-Foulkes estimate   =    -702.52496783 Ry
     estimated scf accuracy    <       1.36339340 Ry

     iteration # 19     ecut=    40.00 Ry     beta= 0.60
     Davidson diagonalization with overlap
     ethr =  1.40E-04,  avg # of iterations =  5.5

     total cpu time spent up to now is     1066.5 secs

     total energy              =    -702.42854468 Ry
     Harris-Foulkes estimate   =    -702.43506033 Ry
     estimated scf accuracy    <       0.18344405 Ry

     iteration # 20     ecut=    40.00 Ry     beta= 0.60
     Davidson diagonalization with overlap
     ethr =  1.40E-04,  avg # of iterations =  1.1

     total cpu time spent up to now is     1076.6 secs

     total energy              =    -702.42319229 Ry
     Harris-Foulkes estimate   =    -702.43004496 Ry
     estimated scf accuracy    <       0.26071771 Ry

     iteration # 21     ecut=    40.00 Ry     beta= 0.60
     Davidson diagonalization with overlap
     ethr =  1.40E-04,  avg # of iterations =  3.3

     total cpu time spent up to now is     1089.5 secs

     total energy              =    -702.41585220 Ry
     Harris-Foulkes estimate   =    -702.43296621 Ry
     estimated scf accuracy    <       0.58447177 Ry

     iteration # 22     ecut=    40.00 Ry     beta= 0.60
     Davidson diagonalization with overlap
     ethr =  1.40E-04,  avg # of iterations =  1.1

     total cpu time spent up to now is     1099.7 secs

     total energy              =    -702.42099203 Ry
     Harris-Foulkes estimate   =    -702.42310850 Ry
     estimated scf accuracy    <       0.04230333 Ry

     iteration # 23     ecut=    40.00 Ry     beta= 0.60
     Davidson diagonalization with overlap
     ethr =  5.72E-05,  avg # of iterations =  1.8

     total cpu time spent up to now is     1110.3 secs

     total energy              =    -702.42187016 Ry
     Harris-Foulkes estimate   =    -702.42220388 Ry
     estimated scf accuracy    <       0.01101327 Ry

     iteration # 24     ecut=    40.00 Ry     beta= 0.60
     Davidson diagonalization with overlap
     ethr =  1.49E-05,  avg # of iterations =  5.2

     total cpu time spent up to now is     1124.5 secs

     total energy              =    -702.42208277 Ry
     Harris-Foulkes estimate   =    -702.42237552 Ry
     estimated scf accuracy    <       0.00146925 Ry

     iteration # 25     ecut=    40.00 Ry     beta= 0.60
     Davidson diagonalization with overlap
     ethr =  1.99E-06,  avg # of iterations =  7.7

     total cpu time spent up to now is     1145.2 secs

     total energy              =    -702.42235723 Ry
     Harris-Foulkes estimate   =    -702.42244560 Ry
     estimated scf accuracy    <       0.00055104 Ry

     iteration # 26     ecut=    40.00 Ry     beta= 0.60
     Davidson diagonalization with overlap
     ethr =  7.45E-07,  avg # of iterations =  3.2

     total cpu time spent up to now is     1159.7 secs

     total energy              =    -702.42239087 Ry
     Harris-Foulkes estimate   =    -702.42241567 Ry
     estimated scf accuracy    <       0.00026321 Ry

     iteration # 27     ecut=    40.00 Ry     beta= 0.60
     Davidson diagonalization with overlap
     ethr =  3.56E-07,  avg # of iterations =  2.2

     total cpu time spent up to now is     1170.5 secs

     total energy              =    -702.42240736 Ry
     Harris-Foulkes estimate   =    -702.42240836 Ry
     estimated scf accuracy    <       0.00001838 Ry

     iteration # 28     ecut=    40.00 Ry     beta= 0.60
     Davidson diagonalization with overlap
     c_bands:  1 eigenvalues not converged
     c_bands:  1 eigenvalues not converged
     ethr =  2.48E-08,  avg # of iterations =  5.3

     total cpu time spent up to now is     1187.2 secs

     total energy              =    -702.42241122 Ry
     Harris-Foulkes estimate   =    -702.42241283 Ry
     estimated scf accuracy    <       0.00000758 Ry

     iteration # 29     ecut=    40.00 Ry     beta= 0.60
     Davidson diagonalization with overlap
     ethr =  1.02E-08,  avg # of iterations =  2.5

     total cpu time spent up to now is     1198.7 secs

     total energy              =    -702.42241149 Ry
     Harris-Foulkes estimate   =    -702.42241171 Ry
     estimated scf accuracy    <       0.00000167 Ry

     iteration # 30     ecut=    40.00 Ry     beta= 0.60
     Davidson diagonalization with overlap
     ethr =  2.26E-09,  avg # of iterations =  4.5

     total cpu time spent up to now is     1213.8 secs

     total energy              =    -702.42241175 Ry
     Harris-Foulkes estimate   =    -702.42241180 Ry
     estimated scf accuracy    <       0.00000053 Ry

     iteration # 31     ecut=    40.00 Ry     beta= 0.60
     Davidson diagonalization with overlap
     ethr =  7.19E-10,  avg # of iterations =  2.7

     total cpu time spent up to now is     1225.4 secs

     total energy              =    -702.42241178 Ry
     Harris-Foulkes estimate   =    -702.42241180 Ry
     estimated scf accuracy    <       0.00000008 Ry

     iteration # 32     ecut=    40.00 Ry     beta= 0.60
     Davidson diagonalization with overlap
     ethr =  1.11E-10,  avg # of iterations =  4.4

     total cpu time spent up to now is     1240.3 secs

     total energy              =    -702.42241179 Ry
     Harris-Foulkes estimate   =    -702.42241180 Ry
     estimated scf accuracy    <       0.00000002 Ry

     iteration # 33     ecut=    40.00 Ry     beta= 0.60
     Davidson diagonalization with overlap
     ethr =  2.63E-11,  avg # of iterations =  3.2

     total cpu time spent up to now is     1253.0 secs

     total energy              =    -702.42241179 Ry
     Harris-Foulkes estimate   =    -702.42241179 Ry
     estimated scf accuracy    <          3.7E-09 Ry

     iteration # 34     ecut=    40.00 Ry     beta= 0.60
     Davidson diagonalization with overlap
     ethr =  4.99E-12,  avg # of iterations =  4.2

     total cpu time spent up to now is     1267.0 secs

     total energy              =    -702.42241179 Ry
     Harris-Foulkes estimate   =    -702.42241179 Ry
     estimated scf accuracy    <          2.7E-09 Ry

     iteration # 35     ecut=    40.00 Ry     beta= 0.60
     Davidson diagonalization with overlap
     ethr =  3.67E-12,  avg # of iterations =  1.2

     total cpu time spent up to now is     1277.1 secs

     End of self-consistent calculation

     Number of k-points >= 100: set verbosity='high' to print the bands.

     the Fermi energy is    14.0497 ev

!    total energy              =    -702.42241179 Ry
     Harris-Foulkes estimate   =    -702.42241180 Ry
     estimated scf accuracy    <          9.3E-11 Ry

     The total energy is the sum of the following terms:

     one-electron contribution =    -215.29844230 Ry
     hartree contribution      =     132.99517635 Ry
     xc contribution           =     -94.65808825 Ry
     ewald contribution        =    -525.45747590 Ry
     smearing contrib. (-TS)   =      -0.00358170 Ry

     convergence has been achieved in  35 iterations

     Forces acting on atoms (cartesian axes, Ry/au):

     atom    1 type  2   force =    -0.00000000    0.00000000   -0.00998546
     atom    2 type  2   force =     0.00000000    0.00000000    0.00000000
     atom    3 type  2   force =     0.00000000    0.00000000    0.00000000
     atom    4 type  1   force =     0.00000000   -0.00000000    0.00035540
     atom    5 type  2   force =     0.00000000   -0.00000000    0.00998546
     atom    6 type  1   force =     0.00000000   -0.00000000   -0.00035540

     Total force =     0.014131     Total SCF correction =     0.000041


     Computing stress (Cartesian axis) and pressure

          total   stress  (Ry/bohr**3)                   (kbar)     P=  -63.98
  -0.00045162   0.00000000  -0.00000000        -66.44      0.00     -0.00
  -0.00000000  -0.00045162   0.00000000         -0.00    -66.44      0.00
   0.00000000  -0.00000000  -0.00040162          0.00     -0.00    -59.08


     number of scf cycles    =   2
     number of bfgs steps    =   1

     enthalpy old            =    -702.3875747592 Ry
     enthalpy new            =    -702.4224117950 Ry

     CASE: enthalpy_new < enthalpy_old

     new trust radius        =       0.1171792499 bohr
     new conv_thr            =            1.0E-10 Ry

     new unit-cell volume =    710.76442 a.u.^3 (   105.32442 Ang^3 )
     density =      5.94819 g/cm^3

CELL_PARAMETERS (alat=  1.88972599)
  -1.456871974  -2.523376469   0.000000000
   2.913743948   0.000000000  -0.000000000
  -0.000000000   0.000000000  14.325036545

ATOMIC_POSITIONS (angstrom)
Ti       1.456871974  -2.523376469   4.762232193
Ti       0.000001457  -1.682251820   2.387506091
Ti       1.456871974  -2.523376469   9.550024363
Nb       0.000001457  -1.682251820   7.163208844
Ti       1.456871974  -2.523376469  14.337816533
Nb       0.000001457  -1.682251820  11.936839883


     NEW-OLD atomic charge density approx. for the potential
     extrapolated charge   69.51078, renormalised to   74.00000

     total cpu time spent up to now is     1286.8 secs

     Self-consistent Calculation

     iteration #  1     ecut=    40.00 Ry     beta= 0.60
     Davidson diagonalization with overlap
     c_bands:  1 eigenvalues not converged
     c_bands:  1 eigenvalues not converged
     c_bands:  1 eigenvalues not converged
     c_bands:  1 eigenvalues not converged
     c_bands:  1 eigenvalues not converged
     c_bands:  2 eigenvalues not converged
     c_bands:  2 eigenvalues not converged
     c_bands:  1 eigenvalues not converged
     c_bands:  2 eigenvalues not converged
     c_bands:  1 eigenvalues not converged
     c_bands:  1 eigenvalues not converged
     c_bands:  2 eigenvalues not converged
     c_bands:  2 eigenvalues not converged
     c_bands:  1 eigenvalues not converged
     c_bands:  3 eigenvalues not converged
     c_bands:  1 eigenvalues not converged
     c_bands:  1 eigenvalues not converged
     c_bands:  1 eigenvalues not converged
     c_bands:  2 eigenvalues not converged
     c_bands:  1 eigenvalues not converged
     c_bands:  2 eigenvalues not converged
     c_bands:  1 eigenvalues not converged
     c_bands:  1 eigenvalues not converged
     c_bands:  2 eigenvalues not converged
     c_bands:  1 eigenvalues not converged
     c_bands:  1 eigenvalues not converged
     c_bands:  2 eigenvalues not converged
     c_bands:  1 eigenvalues not converged
     c_bands:  1 eigenvalues not converged
     c_bands:  1 eigenvalues not converged
     c_bands:  2 eigenvalues not converged
     c_bands:  1 eigenvalues not converged
     c_bands:  1 eigenvalues not converged
     c_bands:  1 eigenvalues not converged
     c_bands:  2 eigenvalues not converged
     c_bands:  2 eigenvalues not converged
     c_bands:  1 eigenvalues not converged
     c_bands:  1 eigenvalues not converged
     c_bands:  1 eigenvalues not converged
     c_bands:  1 eigenvalues not converged
     c_bands:  1 eigenvalues not converged
     c_bands:  1 eigenvalues not converged
     c_bands:  1 eigenvalues not converged
     c_bands:  2 eigenvalues not converged
     c_bands:  2 eigenvalues not converged
     c_bands:  2 eigenvalues not converged
     c_bands:  2 eigenvalues not converged
     c_bands:  1 eigenvalues not converged
     c_bands:  1 eigenvalues not converged
     c_bands:  2 eigenvalues not converged
     c_bands:  2 eigenvalues not converged
     c_bands:  1 eigenvalues not converged
     c_bands:  3 eigenvalues not converged
     c_bands:  1 eigenvalues not converged
     c_bands:  3 eigenvalues not converged
     c_bands:  1 eigenvalues not converged
     c_bands:  2 eigenvalues not converged
     ethr =  1.00E-06,  avg # of iterations = 19.0

     total cpu time spent up to now is     1338.5 secs

     total energy              =    -633.25590027 Ry
     Harris-Foulkes estimate   =    -712.21196972 Ry
     estimated scf accuracy    <      82.55907383 Ry

     iteration #  2     ecut=    40.00 Ry     beta= 0.60
     Davidson diagonalization with overlap
     c_bands:  1 eigenvalues not converged
     c_bands:  2 eigenvalues not converged
     c_bands:  1 eigenvalues not converged
     c_bands:  1 eigenvalues not converged
     c_bands:  1 eigenvalues not converged
     ethr =  1.00E-02,  avg # of iterations = 14.2

     total cpu time spent up to now is     1381.5 secs

     total energy              =    -612.90217139 Ry
     Harris-Foulkes estimate   =   -1114.78042905 Ry
     estimated scf accuracy    <    3502.99203097 Ry

     iteration #  3     ecut=    40.00 Ry     beta= 0.60
     Davidson diagonalization with overlap
     ethr =  1.00E-02,  avg # of iterations =  7.5

     total cpu time spent up to now is     1413.4 secs

     total energy              =    -692.75261789 Ry
     Harris-Foulkes estimate   =    -745.69013452 Ry
     estimated scf accuracy    <     510.37053762 Ry

     iteration #  4     ecut=    40.00 Ry     beta= 0.60
     Davidson diagonalization with overlap
     ethr =  1.00E-02,  avg # of iterations =  7.5

     total cpu time spent up to now is     1437.8 secs

     total energy              =    -704.10637132 Ry
     Harris-Foulkes estimate   =    -711.59471408 Ry
     estimated scf accuracy    <     125.35599375 Ry

     iteration #  5     ecut=    40.00 Ry     beta= 0.60
     Davidson diagonalization with overlap
     ethr =  1.00E-02,  avg # of iterations =  3.5

     total cpu time spent up to now is     1451.0 secs

     total energy              =    -704.52382356 Ry
     Harris-Foulkes estimate   =    -706.03008735 Ry
     estimated scf accuracy    <      38.76418799 Ry

     iteration #  6     ecut=    40.00 Ry     beta= 0.60
     Davidson diagonalization with overlap
     ethr =  1.00E-02,  avg # of iterations =  1.9

     total cpu time spent up to now is     1462.3 secs

     total energy              =    -699.93345576 Ry
     Harris-Foulkes estimate   =    -704.89227206 Ry
     estimated scf accuracy    <      68.94356652 Ry

     iteration #  7     ecut=    40.00 Ry     beta= 0.60
     Davidson diagonalization with overlap
     ethr =  1.00E-02,  avg # of iterations =  5.1

     total cpu time spent up to now is     1480.5 secs

     total energy              =    -700.50126161 Ry
     Harris-Foulkes estimate   =    -703.88513712 Ry
     estimated scf accuracy    <      52.04642652 Ry

     iteration #  8     ecut=    40.00 Ry     beta= 0.60
     Davidson diagonalization with overlap
     ethr =  1.00E-02,  avg # of iterations =  4.2

     total cpu time spent up to now is     1494.7 secs

     total energy              =    -703.24593210 Ry
     Harris-Foulkes estimate   =    -703.71654545 Ry
     estimated scf accuracy    <      31.91624760 Ry

     iteration #  9     ecut=    40.00 Ry     beta= 0.60
     Davidson diagonalization with overlap
     ethr =  1.00E-02,  avg # of iterations =  1.2

     total cpu time spent up to now is     1505.3 secs

     total energy              =    -703.09647006 Ry
     Harris-Foulkes estimate   =    -703.31157651 Ry
     estimated scf accuracy    <      27.65422303 Ry

     iteration # 10     ecut=    40.00 Ry     beta= 0.60
     Davidson diagonalization with overlap
     ethr =  1.00E-02,  avg # of iterations =  1.0

     total cpu time spent up to now is     1515.8 secs

     total energy              =    -699.61578405 Ry
     Harris-Foulkes estimate   =    -703.12606136 Ry
     estimated scf accuracy    <      23.50346036 Ry

     iteration # 11     ecut=    40.00 Ry     beta= 0.60
     Davidson diagonalization with overlap
     ethr =  1.00E-02,  avg # of iterations =  5.4

     total cpu time spent up to now is     1535.4 secs

     total energy              =    -698.51678784 Ry
     Harris-Foulkes estimate   =    -707.78697528 Ry
     estimated scf accuracy    <     181.36755789 Ry

     iteration # 12     ecut=    40.00 Ry     beta= 0.60
     Davidson diagonalization with overlap
     ethr =  1.00E-02,  avg # of iterations =  4.2

     total cpu time spent up to now is     1549.9 secs

     total energy              =    -702.66795323 Ry
     Harris-Foulkes estimate   =    -702.69592197 Ry
     estimated scf accuracy    <       2.66659278 Ry

     iteration # 13     ecut=    40.00 Ry     beta= 0.60
     Davidson diagonalization with overlap
     ethr =  3.60E-03,  avg # of iterations =  5.2

     total cpu time spent up to now is     1564.9 secs

     total energy              =    -702.70444158 Ry
     Harris-Foulkes estimate   =    -702.77517220 Ry
     estimated scf accuracy    <       5.85967687 Ry

     iteration # 14     ecut=    40.00 Ry     beta= 0.60
     Davidson diagonalization with overlap
     ethr =  3.60E-03,  avg # of iterations =  1.4

     total cpu time spent up to now is     1575.7 secs

     total energy              =    -702.69839284 Ry
     Harris-Foulkes estimate   =    -702.72630254 Ry
     estimated scf accuracy    <       5.44410972 Ry

     iteration # 15     ecut=    40.00 Ry     beta= 0.60
     Davidson diagonalization with overlap
     ethr =  3.60E-03,  avg # of iterations =  1.5

     total cpu time spent up to now is     1586.6 secs

     total energy              =    -702.72538722 Ry
     Harris-Foulkes estimate   =    -702.75073566 Ry
     estimated scf accuracy    <       3.85648197 Ry

     iteration # 16     ecut=    40.00 Ry     beta= 0.60
     Davidson diagonalization with overlap
     ethr =  3.60E-03,  avg # of iterations =  1.1

     total cpu time spent up to now is     1597.1 secs

     total energy              =    -702.79227499 Ry
     Harris-Foulkes estimate   =    -702.73827813 Ry
     estimated scf accuracy    <       4.15441297 Ry

     iteration # 17     ecut=    40.00 Ry     beta= 0.60
     Davidson diagonalization with overlap
     ethr =  3.60E-03,  avg # of iterations =  1.0

     total cpu time spent up to now is     1607.6 secs

     total energy              =    -702.75538590 Ry
     Harris-Foulkes estimate   =    -702.80568536 Ry
     estimated scf accuracy    <       4.41731777 Ry

     iteration # 18     ecut=    40.00 Ry     beta= 0.60
     Davidson diagonalization with overlap
     ethr =  3.60E-03,  avg # of iterations =  1.0

     total cpu time spent up to now is     1618.2 secs

     total energy              =    -702.55181103 Ry
     Harris-Foulkes estimate   =    -702.76261760 Ry
     estimated scf accuracy    <       4.02010139 Ry

     iteration # 19     ecut=    40.00 Ry     beta= 0.60
     Davidson diagonalization with overlap
     ethr =  3.60E-03,  avg # of iterations =  1.0

     total cpu time spent up to now is     1628.6 secs

     total energy              =    -702.47822310 Ry
     Harris-Foulkes estimate   =    -702.61209385 Ry
     estimated scf accuracy    <       2.47243060 Ry

     iteration # 20     ecut=    40.00 Ry     beta= 0.60
     Davidson diagonalization with overlap
     ethr =  3.34E-03,  avg # of iterations =  1.0

     total cpu time spent up to now is     1638.9 secs

     total energy              =    -702.73275890 Ry
     Harris-Foulkes estimate   =    -702.58819286 Ry
     estimated scf accuracy    <       2.66934854 Ry

     iteration # 21     ecut=    40.00 Ry     beta= 0.60
     Davidson diagonalization with overlap
     ethr =  3.34E-03,  avg # of iterations =  5.9

     total cpu time spent up to now is     1658.4 secs

     total energy              =    -701.41717079 Ry
     Harris-Foulkes estimate   =    -704.26923880 Ry
     estimated scf accuracy    <      48.88251352 Ry

     iteration # 22     ecut=    40.00 Ry     beta= 0.60
     Davidson diagonalization with overlap
     ethr =  3.34E-03,  avg # of iterations =  5.1

     total cpu time spent up to now is     1674.2 secs

     total energy              =    -702.90266572 Ry
     Harris-Foulkes estimate   =    -702.75825087 Ry
     estimated scf accuracy    <       5.47040246 Ry

     iteration # 23     ecut=    40.00 Ry     beta= 0.60
     Davidson diagonalization with overlap
     ethr =  3.34E-03,  avg # of iterations =  1.1

     total cpu time spent up to now is     1684.5 secs

     total energy              =    -702.65145361 Ry
     Harris-Foulkes estimate   =    -702.92602723 Ry
     estimated scf accuracy    <       6.89899676 Ry

     iteration # 24     ecut=    40.00 Ry     beta= 0.60
     Davidson diagonalization with overlap
     ethr =  3.34E-03,  avg # of iterations =  1.0

     total cpu time spent up to now is     1694.9 secs

     total energy              =    -701.86899134 Ry
     Harris-Foulkes estimate   =    -702.68154090 Ry
     estimated scf accuracy    <       4.78564147 Ry

     iteration # 25     ecut=    40.00 Ry     beta= 0.60
     Davidson diagonalization with overlap
     ethr =  3.34E-03,  avg # of iterations =  5.6

     total cpu time spent up to now is     1714.2 secs

     total energy              =    -701.94437844 Ry
     Harris-Foulkes estimate   =    -703.18324226 Ry
     estimated scf accuracy    <      27.23493151 Ry

     iteration # 26     ecut=    40.00 Ry     beta= 0.60
     Davidson diagonalization with overlap
     ethr =  3.34E-03,  avg # of iterations =  3.5

     total cpu time spent up to now is     1727.1 secs

     total energy              =    -702.35345144 Ry
     Harris-Foulkes estimate   =    -702.47492633 Ry
     estimated scf accuracy    <       2.21626272 Ry

     iteration # 27     ecut=    40.00 Ry     beta= 0.60
     Davidson diagonalization with overlap
     ethr =  2.99E-03,  avg # of iterations =  2.9

     total cpu time spent up to now is     1739.3 secs

     total energy              =    -702.42044393 Ry
     Harris-Foulkes estimate   =    -702.46452992 Ry
     estimated scf accuracy    <       0.82878052 Ry

     iteration # 28     ecut=    40.00 Ry     beta= 0.60
     Davidson diagonalization with overlap
     ethr =  1.12E-03,  avg # of iterations =  4.8

     total cpu time spent up to now is     1754.1 secs

     total energy              =    -702.43730194 Ry
     Harris-Foulkes estimate   =    -702.45830090 Ry
     estimated scf accuracy    <       0.42211889 Ry

     iteration # 29     ecut=    40.00 Ry     beta= 0.60
     Davidson diagonalization with overlap
     ethr =  5.70E-04,  avg # of iterations =  1.8

     total cpu time spent up to now is     1764.9 secs

     total energy              =    -702.43471950 Ry
     Harris-Foulkes estimate   =    -702.44316802 Ry
     estimated scf accuracy    <       0.24885477 Ry

     iteration # 30     ecut=    40.00 Ry     beta= 0.60
     Davidson diagonalization with overlap
     ethr =  3.36E-04,  avg # of iterations =  3.9

     total cpu time spent up to now is     1776.4 secs

     total energy              =    -702.42054458 Ry
     Harris-Foulkes estimate   =    -702.44322172 Ry
     estimated scf accuracy    <       0.26872394 Ry

     iteration # 31     ecut=    40.00 Ry     beta= 0.60
     Davidson diagonalization with overlap
     ethr =  3.36E-04,  avg # of iterations =  1.1

     total cpu time spent up to now is     1785.1 secs

     total energy              =    -702.42389220 Ry
     Harris-Foulkes estimate   =    -702.42755222 Ry
     estimated scf accuracy    <       0.04200041 Ry

     iteration # 32     ecut=    40.00 Ry     beta= 0.60
     Davidson diagonalization with overlap
     ethr =  5.68E-05,  avg # of iterations =  6.4

     total cpu time spent up to now is     1800.5 secs

     total energy              =    -702.43139386 Ry
     Harris-Foulkes estimate   =    -702.43153533 Ry
     estimated scf accuracy    <       0.00367762 Ry

     iteration # 33     ecut=    40.00 Ry     beta= 0.60
     Davidson diagonalization with overlap
     c_bands:  1 eigenvalues not converged
     c_bands:  1 eigenvalues not converged
     c_bands:  1 eigenvalues not converged
     c_bands:  2 eigenvalues not converged
     c_bands:  1 eigenvalues not converged
     ethr =  4.97E-06,  avg # of iterations =  5.8

     total cpu time spent up to now is     1813.3 secs

     total energy              =    -702.43127250 Ry
     Harris-Foulkes estimate   =    -702.43150154 Ry
     estimated scf accuracy    <       0.00306964 Ry

     iteration # 34     ecut=    40.00 Ry     beta= 0.60
     Davidson diagonalization with overlap
     ethr =  4.15E-06,  avg # of iterations =  1.7

     total cpu time spent up to now is     1822.5 secs

     total energy              =    -702.43129144 Ry
     Harris-Foulkes estimate   =    -702.43137163 Ry
     estimated scf accuracy    <       0.00230156 Ry

     iteration # 35     ecut=    40.00 Ry     beta= 0.60
     Davidson diagonalization with overlap
     ethr =  3.11E-06,  avg # of iterations =  1.1

     total cpu time spent up to now is     1831.3 secs

     total energy              =    -702.43132976 Ry
     Harris-Foulkes estimate   =    -702.43133681 Ry
     estimated scf accuracy    <       0.00010874 Ry

     iteration # 36     ecut=    40.00 Ry     beta= 0.60
     Davidson diagonalization with overlap
     ethr =  1.47E-07,  avg # of iterations =  5.7

     total cpu time spent up to now is     1846.1 secs

     total energy              =    -702.43136178 Ry
     Harris-Foulkes estimate   =    -702.43136910 Ry
     estimated scf accuracy    <       0.00008862 Ry

     iteration # 37     ecut=    40.00 Ry     beta= 0.60
     Davidson diagonalization with overlap
     ethr =  1.20E-07,  avg # of iterations =  1.0

     total cpu time spent up to now is     1854.9 secs

     total energy              =    -702.43136196 Ry
     Harris-Foulkes estimate   =    -702.43136395 Ry
     estimated scf accuracy    <       0.00001200 Ry

     iteration # 38     ecut=    40.00 Ry     beta= 0.60
     Davidson diagonalization with overlap
     ethr =  1.62E-08,  avg # of iterations =  4.6

     total cpu time spent up to now is     1867.9 secs

     total energy              =    -702.43136424 Ry
     Harris-Foulkes estimate   =    -702.43136467 Ry
     estimated scf accuracy    <       0.00000563 Ry

     iteration # 39     ecut=    40.00 Ry     beta= 0.60
     Davidson diagonalization with overlap
     ethr =  7.61E-09,  avg # of iterations =  1.1

     total cpu time spent up to now is     1876.7 secs

     total energy              =    -702.43136440 Ry
     Harris-Foulkes estimate   =    -702.43136445 Ry
     estimated scf accuracy    <       0.00000142 Ry

     iteration # 40     ecut=    40.00 Ry     beta= 0.60
     Davidson diagonalization with overlap
     ethr =  1.92E-09,  avg # of iterations =  2.8

     total cpu time spent up to now is     1886.7 secs

     total energy              =    -702.43136441 Ry
     Harris-Foulkes estimate   =    -702.43136445 Ry
     estimated scf accuracy    <       0.00000059 Ry

     iteration # 41     ecut=    40.00 Ry     beta= 0.60
     Davidson diagonalization with overlap
     ethr =  8.02E-10,  avg # of iterations =  3.4

     total cpu time spent up to now is     1897.5 secs

     total energy              =    -702.43136444 Ry
     Harris-Foulkes estimate   =    -702.43136445 Ry
     estimated scf accuracy    <       0.00000011 Ry

     iteration # 42     ecut=    40.00 Ry     beta= 0.60
     Davidson diagonalization with overlap
     ethr =  1.46E-10,  avg # of iterations =  4.5

     total cpu time spent up to now is     1921.0 secs

     total energy              =    -702.43136445 Ry
     Harris-Foulkes estimate   =    -702.43136445 Ry
     estimated scf accuracy    <          3.0E-09 Ry

     iteration # 43     ecut=    40.00 Ry     beta= 0.60
     Davidson diagonalization with overlap
     ethr =  4.04E-12,  avg # of iterations =  5.8

     total cpu time spent up to now is     1943.5 secs

     total energy              =    -702.43136446 Ry
     Harris-Foulkes estimate   =    -702.43136446 Ry
     estimated scf accuracy    <          2.4E-10 Ry

     iteration # 44     ecut=    40.00 Ry     beta= 0.60
     Davidson diagonalization with overlap
     ethr =  3.27E-13,  avg # of iterations =  4.3

     total cpu time spent up to now is     1957.2 secs

     total energy              =    -702.43136446 Ry
     Harris-Foulkes estimate   =    -702.43136446 Ry
     estimated scf accuracy    <          1.0E-10 Ry

     iteration # 45     ecut=    40.00 Ry     beta= 0.60
     Davidson diagonalization with overlap
     ethr =  1.37E-13,  avg # of iterations =  3.0

     total cpu time spent up to now is     1967.6 secs

     End of self-consistent calculation

     Number of k-points >= 100: set verbosity='high' to print the bands.

     the Fermi energy is    15.1084 ev

!    total energy              =    -702.43136446 Ry
     Harris-Foulkes estimate   =    -702.43136446 Ry
     estimated scf accuracy    <          3.7E-11 Ry

     The total energy is the sum of the following terms:

     one-electron contribution =    -198.92092404 Ry
     hartree contribution      =     128.04733447 Ry
     xc contribution           =     -94.98155830 Ry
     ewald contribution        =    -536.57286796 Ry
     smearing contrib. (-TS)   =      -0.00334862 Ry

     convergence has been achieved in  45 iterations

     Forces acting on atoms (cartesian axes, Ry/au):

     atom    1 type  2   force =    -0.00000000   -0.00000000   -0.01204353
     atom    2 type  2   force =     0.00000000   -0.00000000    0.00000000
     atom    3 type  2   force =     0.00000000    0.00000000    0.00000000
     atom    4 type  1   force =     0.00000000   -0.00000000   -0.00115243
     atom    5 type  2   force =     0.00000000    0.00000000    0.01204353
     atom    6 type  1   force =     0.00000000   -0.00000000    0.00115243

     Total force =     0.017110     Total SCF correction =     0.000028


     Computing stress (Cartesian axis) and pressure

          total   stress  (Ry/bohr**3)                   (kbar)     P=   12.81
   0.00006984   0.00000000   0.00000000         10.27      0.00      0.00
   0.00000000   0.00006984  -0.00000000          0.00     10.27     -0.00
   0.00000000  -0.00000000   0.00012160          0.00     -0.00     17.89


     number of scf cycles    =   3
     number of bfgs steps    =   2

     enthalpy old            =    -702.4224117950 Ry
     enthalpy new            =    -702.4313644554 Ry

     CASE: enthalpy_new < enthalpy_old

     new trust radius        =       0.0187711605 bohr
     new conv_thr            =            1.0E-10 Ry

     new unit-cell volume =    717.00114 a.u.^3 (   106.24861 Ang^3 )
     density =      5.89645 g/cm^3

CELL_PARAMETERS (alat=  1.88972599)
  -1.460680924  -2.529973762   0.000000000
   2.921361847   0.000000000  -0.000000000
  -0.000000000   0.000000000  14.375467133

ATOMIC_POSITIONS (angstrom)
Ti       1.460680924  -2.529973762   4.774491783
Ti       0.000001461  -1.686650018   2.395911189
Ti       1.460680924  -2.529973762   9.583644755
Nb       0.000001461  -1.686650018   7.187923324
Ti       1.460680924  -2.529973762  14.392797727
Nb       0.000001461  -1.686650018  11.979366186


     NEW-OLD atomic charge density approx. for the potential
     extrapolated charge   74.60883, renormalised to   74.00000

     total cpu time spent up to now is     1976.5 secs

     Self-consistent Calculation

     iteration #  1     ecut=    40.00 Ry     beta= 0.60
     Davidson diagonalization with overlap
     c_bands:  1 eigenvalues not converged
     c_bands:  3 eigenvalues not converged
     c_bands:  2 eigenvalues not converged
     c_bands:  2 eigenvalues not converged
     c_bands:  1 eigenvalues not converged
     c_bands:  2 eigenvalues not converged
     c_bands:  1 eigenvalues not converged
     c_bands:  1 eigenvalues not converged
     c_bands:  1 eigenvalues not converged
     c_bands:  2 eigenvalues not converged
     c_bands:  1 eigenvalues not converged
     c_bands:  1 eigenvalues not converged
     c_bands:  2 eigenvalues not converged
     c_bands:  1 eigenvalues not converged
     c_bands:  1 eigenvalues not converged
     c_bands:  1 eigenvalues not converged
     c_bands:  1 eigenvalues not converged
     c_bands:  1 eigenvalues not converged
     c_bands:  1 eigenvalues not converged
     c_bands:  1 eigenvalues not converged
     ethr =  1.00E-06,  avg # of iterations = 15.4

     total cpu time spent up to now is     2008.2 secs

     total energy              =    -701.69117784 Ry
     Harris-Foulkes estimate   =    -701.26247169 Ry
     estimated scf accuracy    <       0.88681174 Ry

     iteration #  2     ecut=    40.00 Ry     beta= 0.60
     Davidson diagonalization with overlap
     ethr =  1.20E-03,  avg # of iterations =  7.1

     total cpu time spent up to now is     2029.2 secs

     total energy              =    -699.18088976 Ry
     Harris-Foulkes estimate   =    -715.47164482 Ry
     estimated scf accuracy    <     261.89320436 Ry

     iteration #  3     ecut=    40.00 Ry     beta= 0.60
     Davidson diagonalization with overlap
     ethr =  1.20E-03,  avg # of iterations =  7.0

     total cpu time spent up to now is     2050.2 secs

     total energy              =    -702.18804401 Ry
     Harris-Foulkes estimate   =    -702.85424200 Ry
     estimated scf accuracy    <       9.57522429 Ry

     iteration #  4     ecut=    40.00 Ry     beta= 0.60
     Davidson diagonalization with overlap
     ethr =  1.20E-03,  avg # of iterations =  5.2

     total cpu time spent up to now is     2063.8 secs

     total energy              =    -702.42593872 Ry
     Harris-Foulkes estimate   =    -702.45008248 Ry
     estimated scf accuracy    <       1.25055884 Ry

     iteration #  5     ecut=    40.00 Ry     beta= 0.60
     Davidson diagonalization with overlap
     ethr =  1.20E-03,  avg # of iterations =  1.0

     total cpu time spent up to now is     2072.6 secs

     total energy              =    -702.42294295 Ry
     Harris-Foulkes estimate   =    -702.43628887 Ry
     estimated scf accuracy    <       0.38118446 Ry

     iteration #  6     ecut=    40.00 Ry     beta= 0.60
     Davidson diagonalization with overlap
     ethr =  5.15E-04,  avg # of iterations =  1.3

     total cpu time spent up to now is     2081.7 secs

     total energy              =    -702.42970723 Ry
     Harris-Foulkes estimate   =    -702.43064252 Ry
     estimated scf accuracy    <       0.00989775 Ry

     iteration #  7     ecut=    40.00 Ry     beta= 0.60
     Davidson diagonalization with overlap
     ethr =  1.34E-05,  avg # of iterations =  7.5

     total cpu time spent up to now is     2100.1 secs

     total energy              =    -702.43296912 Ry
     Harris-Foulkes estimate   =    -702.43337959 Ry
     estimated scf accuracy    <       0.05753534 Ry

     iteration #  8     ecut=    40.00 Ry     beta= 0.60
     Davidson diagonalization with overlap
     ethr =  1.34E-05,  avg # of iterations =  1.0

     total cpu time spent up to now is     2108.9 secs

     total energy              =    -702.43226639 Ry
     Harris-Foulkes estimate   =    -702.43302116 Ry
     estimated scf accuracy    <       0.04728864 Ry

     iteration #  9     ecut=    40.00 Ry     beta= 0.60
     Davidson diagonalization with overlap
     ethr =  1.34E-05,  avg # of iterations =  1.0

     total cpu time spent up to now is     2117.8 secs

     total energy              =    -702.43202945 Ry
     Harris-Foulkes estimate   =    -702.43238988 Ry
     estimated scf accuracy    <       0.02144762 Ry

     iteration # 10     ecut=    40.00 Ry     beta= 0.60
     Davidson diagonalization with overlap
     ethr =  1.34E-05,  avg # of iterations =  1.0

     total cpu time spent up to now is     2126.6 secs

     total energy              =    -702.43161772 Ry
     Harris-Foulkes estimate   =    -702.43209209 Ry
     estimated scf accuracy    <       0.00999128 Ry

     iteration # 11     ecut=    40.00 Ry     beta= 0.60
     Davidson diagonalization with overlap
     ethr =  1.34E-05,  avg # of iterations =  1.0

     total cpu time spent up to now is     2135.4 secs

     total energy              =    -702.43179373 Ry
     Harris-Foulkes estimate   =    -702.43180568 Ry
     estimated scf accuracy    <       0.00050990 Ry

     iteration # 12     ecut=    40.00 Ry     beta= 0.60
     Davidson diagonalization with overlap
     ethr =  6.89E-07,  avg # of iterations =  6.8

     total cpu time spent up to now is     2150.7 secs

     total energy              =    -702.43187851 Ry
     Harris-Foulkes estimate   =    -702.43188575 Ry
     estimated scf accuracy    <       0.00047573 Ry

     iteration # 13     ecut=    40.00 Ry     beta= 0.60
     Davidson diagonalization with overlap
     ethr =  6.43E-07,  avg # of iterations =  1.2

     total cpu time spent up to now is     2159.6 secs

     total energy              =    -702.43181279 Ry
     Harris-Foulkes estimate   =    -702.43188036 Ry
     estimated scf accuracy    <       0.00038247 Ry

     iteration # 14     ecut=    40.00 Ry     beta= 0.60
     Davidson diagonalization with overlap
     ethr =  5.17E-07,  avg # of iterations =  4.0

     total cpu time spent up to now is     2171.1 secs

     total energy              =    -702.43185102 Ry
     Harris-Foulkes estimate   =    -702.43187651 Ry
     estimated scf accuracy    <       0.00032495 Ry

     iteration # 15     ecut=    40.00 Ry     beta= 0.60
     Davidson diagonalization with overlap
     ethr =  4.39E-07,  avg # of iterations =  1.0

     total cpu time spent up to now is     2179.9 secs

     total energy              =    -702.43185470 Ry
     Harris-Foulkes estimate   =    -702.43185942 Ry
     estimated scf accuracy    <       0.00004752 Ry

     iteration # 16     ecut=    40.00 Ry     beta= 0.60
     Davidson diagonalization with overlap
     c_bands:  1 eigenvalues not converged
     ethr =  6.42E-08,  avg # of iterations =  4.3

     total cpu time spent up to now is     2192.0 secs

     total energy              =    -702.43186207 Ry
     Harris-Foulkes estimate   =    -702.43186307 Ry
     estimated scf accuracy    <       0.00001951 Ry

     iteration # 17     ecut=    40.00 Ry     beta= 0.60
     Davidson diagonalization with overlap
     ethr =  2.64E-08,  avg # of iterations =  1.3

     total cpu time spent up to now is     2201.0 secs

     total energy              =    -702.43186212 Ry
     Harris-Foulkes estimate   =    -702.43186232 Ry
     estimated scf accuracy    <       0.00000912 Ry

     iteration # 18     ecut=    40.00 Ry     beta= 0.60
     Davidson diagonalization with overlap
     ethr =  1.23E-08,  avg # of iterations =  1.3

     total cpu time spent up to now is     2210.1 secs

     total energy              =    -702.43186156 Ry
     Harris-Foulkes estimate   =    -702.43186220 Ry
     estimated scf accuracy    <       0.00000673 Ry

     iteration # 19     ecut=    40.00 Ry     beta= 0.60
     Davidson diagonalization with overlap
     ethr =  9.09E-09,  avg # of iterations =  3.2

     total cpu time spent up to now is     2220.4 secs

     total energy              =    -702.43186181 Ry
     Harris-Foulkes estimate   =    -702.43186189 Ry
     estimated scf accuracy    <       0.00000115 Ry

     iteration # 20     ecut=    40.00 Ry     beta= 0.60
     Davidson diagonalization with overlap
     ethr =  1.55E-09,  avg # of iterations =  4.8

     total cpu time spent up to now is     2233.0 secs

     total energy              =    -702.43186211 Ry
     Harris-Foulkes estimate   =    -702.43186200 Ry
     estimated scf accuracy    <       0.00000049 Ry

     iteration # 21     ecut=    40.00 Ry     beta= 0.60
     Davidson diagonalization with overlap
     ethr =  6.66E-10,  avg # of iterations =  5.3

     total cpu time spent up to now is     2247.9 secs

     total energy              =    -702.43186159 Ry
     Harris-Foulkes estimate   =    -702.43186243 Ry
     estimated scf accuracy    <       0.00000794 Ry

     iteration # 22     ecut=    40.00 Ry     beta= 0.60
     Davidson diagonalization with overlap
     ethr =  6.66E-10,  avg # of iterations =  5.0

     total cpu time spent up to now is     2262.1 secs

     total energy              =    -702.43186196 Ry
     Harris-Foulkes estimate   =    -702.43186196 Ry
     estimated scf accuracy    <       0.00000001 Ry

     iteration # 23     ecut=    40.00 Ry     beta= 0.60
     Davidson diagonalization with overlap
     ethr =  1.37E-11,  avg # of iterations =  5.9

     total cpu time spent up to now is     2278.3 secs

     total energy              =    -702.43186196 Ry
     Harris-Foulkes estimate   =    -702.43186197 Ry
     estimated scf accuracy    <       0.00000003 Ry

     iteration # 24     ecut=    40.00 Ry     beta= 0.60
     Davidson diagonalization with overlap
     ethr =  1.37E-11,  avg # of iterations =  4.0

     total cpu time spent up to now is     2289.9 secs

     total energy              =    -702.43186196 Ry
     Harris-Foulkes estimate   =    -702.43186196 Ry
     estimated scf accuracy    <          7.9E-10 Ry

     iteration # 25     ecut=    40.00 Ry     beta= 0.60
     Davidson diagonalization with overlap
     ethr =  1.07E-12,  avg # of iterations =  4.4

     total cpu time spent up to now is     2302.4 secs

     End of self-consistent calculation

     Number of k-points >= 100: set verbosity='high' to print the bands.

     the Fermi energy is    14.9551 ev

!    total energy              =    -702.43186196 Ry
     Harris-Foulkes estimate   =    -702.43186196 Ry
     estimated scf accuracy    <          4.4E-11 Ry

     The total energy is the sum of the following terms:

     one-electron contribution =    -201.10238316 Ry
     hartree contribution      =     128.67291816 Ry
     xc contribution           =     -94.93419515 Ry
     ewald contribution        =    -535.06481628 Ry
     smearing contrib. (-TS)   =      -0.00338554 Ry

     convergence has been achieved in  25 iterations

     Forces acting on atoms (cartesian axes, Ry/au):

     atom    1 type  2   force =     0.00000000   -0.00000000   -0.01047462
     atom    2 type  2   force =     0.00000000    0.00000000    0.00000000
     atom    3 type  2   force =     0.00000000    0.00000000    0.00000000
     atom    4 type  1   force =     0.00000000   -0.00000000   -0.00155225
     atom    5 type  2   force =     0.00000000    0.00000000    0.01047462
     atom    6 type  1   force =     0.00000000   -0.00000000    0.00155225

     Total force =     0.014975     Total SCF correction =     0.000029


     Computing stress (Cartesian axis) and pressure

          total   stress  (Ry/bohr**3)                   (kbar)     P=    0.65
  -0.00000976  -0.00000000   0.00000000         -1.44     -0.00      0.00
  -0.00000000  -0.00000976  -0.00000000         -0.00     -1.44     -0.00
   0.00000000   0.00000000   0.00003279          0.00      0.00      4.82


     number of scf cycles    =   4
     number of bfgs steps    =   3

     enthalpy old            =    -702.4313644554 Ry
     enthalpy new            =    -702.4318619637 Ry

     CASE: enthalpy_new < enthalpy_old

     new trust radius        =       0.0179937477 bohr
     new conv_thr            =            1.0E-10 Ry

     new unit-cell volume =    719.02396 a.u.^3 (   106.54836 Ang^3 )
     density =      5.87986 g/cm^3

CELL_PARAMETERS (alat=  1.88972599)
  -1.461127675  -2.530747559   0.000000000
   2.922255350   0.000000000   0.000000000
   0.000000000  -0.000000000  14.407209228

ATOMIC_POSITIONS (angstrom)
Ti       1.461127675  -2.530747559   4.775491308
Ti       0.000001462  -1.687165883   2.401201538
Ti       1.461127675  -2.530747559   9.604806152
Nb       0.000001462  -1.687165883   7.202490177
Ti       1.461127675  -2.530747559  14.434120996
Nb       0.000001462  -1.687165883  12.007122127


     NEW-OLD atomic charge density approx. for the potential
     extrapolated charge   74.19691, renormalised to   74.00000

     total cpu time spent up to now is     2311.3 secs

     Self-consistent Calculation

     iteration #  1     ecut=    40.00 Ry     beta= 0.60
     Davidson diagonalization with overlap
     c_bands:  1 eigenvalues not converged
     c_bands:  1 eigenvalues not converged
     c_bands:  1 eigenvalues not converged
     c_bands:  2 eigenvalues not converged
     c_bands:  1 eigenvalues not converged
     c_bands:  2 eigenvalues not converged
     c_bands:  1 eigenvalues not converged
     c_bands:  1 eigenvalues not converged
     c_bands:  2 eigenvalues not converged
     c_bands:  1 eigenvalues not converged
     c_bands:  1 eigenvalues not converged
     c_bands:  1 eigenvalues not converged
     c_bands:  1 eigenvalues not converged
     c_bands:  2 eigenvalues not converged
     c_bands:  1 eigenvalues not converged
     c_bands:  1 eigenvalues not converged
     c_bands:  1 eigenvalues not converged
     c_bands:  1 eigenvalues not converged
     c_bands:  1 eigenvalues not converged
     c_bands:  1 eigenvalues not converged
     c_bands:  1 eigenvalues not converged
     c_bands:  1 eigenvalues not converged
     ethr =  1.00E-06,  avg # of iterations = 15.1

     total cpu time spent up to now is     2341.0 secs

     total energy              =    -702.03941562 Ry
     Harris-Foulkes estimate   =    -702.05477292 Ry
     estimated scf accuracy    <       0.47780089 Ry

     iteration #  2     ecut=    40.00 Ry     beta= 0.60
     Davidson diagonalization with overlap
     ethr =  6.46E-04,  avg # of iterations =  7.8

     total cpu time spent up to now is     2362.4 secs

     total energy              =    -699.65862690 Ry
     Harris-Foulkes estimate   =    -710.88549199 Ry
     estimated scf accuracy    <     227.21837751 Ry

     iteration #  3     ecut=    40.00 Ry     beta= 0.60
     Davidson diagonalization with overlap
     ethr =  6.46E-04,  avg # of iterations =  7.0

     total cpu time spent up to now is     2383.5 secs

     total energy              =    -702.23131433 Ry
     Harris-Foulkes estimate   =    -702.71858711 Ry
     estimated scf accuracy    <       6.61419251 Ry

     iteration #  4     ecut=    40.00 Ry     beta= 0.60
     Davidson diagonalization with overlap
     ethr =  6.46E-04,  avg # of iterations =  5.3

     total cpu time spent up to now is     2397.9 secs

     total energy              =    -702.43066073 Ry
     Harris-Foulkes estimate   =    -702.43671376 Ry
     estimated scf accuracy    <       0.38755875 Ry

     iteration #  5     ecut=    40.00 Ry     beta= 0.60
     Davidson diagonalization with overlap
     ethr =  5.24E-04,  avg # of iterations =  1.1

     total cpu time spent up to now is     2406.8 secs

     total energy              =    -702.43115347 Ry
     Harris-Foulkes estimate   =    -702.43289313 Ry
     estimated scf accuracy    <       0.10759858 Ry

     iteration #  6     ecut=    40.00 Ry     beta= 0.60
     Davidson diagonalization with overlap
     ethr =  1.45E-04,  avg # of iterations =  2.0

     total cpu time spent up to now is     2416.3 secs

     total energy              =    -702.43147230 Ry
     Harris-Foulkes estimate   =    -702.43185950 Ry
     estimated scf accuracy    <       0.03557304 Ry

     iteration #  7     ecut=    40.00 Ry     beta= 0.60
     Davidson diagonalization with overlap
     ethr =  4.81E-05,  avg # of iterations =  3.7

     total cpu time spent up to now is     2427.1 secs

     total energy              =    -702.43147205 Ry
     Harris-Foulkes estimate   =    -702.43185235 Ry
     estimated scf accuracy    <       0.01428005 Ry

[...]
     c_bands:  1 eigenvalues not converged
     c_bands:  1 eigenvalues not converged
     c_bands:  1 eigenvalues not converged
     c_bands:  1 eigenvalues not converged
     c_bands:  1 eigenvalues not converged
     c_bands:  1 eigenvalues not converged
     c_bands:  1 eigenvalues not converged
     c_bands:  1 eigenvalues not converged
     ethr =  1.00E-06,  avg # of iterations = 16.5

     total cpu time spent up to now is     5270.0 secs

     total energy              =    -408.78049936 Ry
     Harris-Foulkes estimate   =    -729.30236762 Ry
     estimated scf accuracy    <     385.36692502 Ry

     iteration #  2     ecut=    40.00 Ry     beta= 0.60
     Davidson diagonalization with overlap
     c_bands:  2 eigenvalues not converged
     c_bands:  1 eigenvalues not converged
     c_bands:  2 eigenvalues not converged
     c_bands:  1 eigenvalues not converged
     c_bands:  1 eigenvalues not converged
     c_bands:  1 eigenvalues not converged
     c_bands:  1 eigenvalues not converged
     c_bands:  1 eigenvalues not converged
     c_bands:  1 eigenvalues not converged
     c_bands:  3 eigenvalues not converged
     c_bands:  1 eigenvalues not converged
     c_bands:  1 eigenvalues not converged
     c_bands:  1 eigenvalues not converged
     c_bands:  2 eigenvalues not converged
     c_bands:  2 eigenvalues not converged
     c_bands:  1 eigenvalues not converged
     c_bands:  2 eigenvalues not converged
     c_bands:  3 eigenvalues not converged
     c_bands:  2 eigenvalues not converged
     c_bands:  1 eigenvalues not converged
     c_bands:  3 eigenvalues not converged
     c_bands:  3 eigenvalues not converged
     c_bands:  1 eigenvalues not converged
     ethr =  1.00E-02,  avg # of iterations = 18.3

     total cpu time spent up to now is     5324.1 secs

     total energy              =    -638.05084902 Ry
     Harris-Foulkes estimate   =   -1689.45519026 Ry
     estimated scf accuracy    <    4413.98344763 Ry

     iteration #  3     ecut=    40.00 Ry     beta= 0.60
     Davidson diagonalization with overlap
     ethr =  1.00E-02,  avg # of iterations =  9.4

     total cpu time spent up to now is     5356.0 secs

     total energy              =    -710.29385990 Ry
     Harris-Foulkes estimate   =    -884.53301373 Ry
     estimated scf accuracy    <     857.66025751 Ry

     iteration #  4     ecut=    40.00 Ry     beta= 0.60
     Davidson diagonalization with overlap
     ethr =  1.00E-02,  avg # of iterations =  7.9

     total cpu time spent up to now is     5377.7 secs

     total energy              =    -700.06317088 Ry
     Harris-Foulkes estimate   =    -751.02133032 Ry
     estimated scf accuracy    <     700.42722804 Ry

     iteration #  5     ecut=    40.00 Ry     beta= 0.60
     Davidson diagonalization with overlap
     ethr =  1.00E-02,  avg # of iterations =  9.6

     total cpu time spent up to now is     5399.6 secs

     total energy              =    -704.76674510 Ry
     Harris-Foulkes estimate   =    -711.47645978 Ry
     estimated scf accuracy    <     115.18006824 Ry

     iteration #  6     ecut=    40.00 Ry     beta= 0.60
     Davidson diagonalization with overlap
     ethr =  1.00E-02,  avg # of iterations =  3.2

     total cpu time spent up to now is     5410.1 secs

     total energy              =    -706.86951531 Ry
     Harris-Foulkes estimate   =    -706.70616026 Ry
     estimated scf accuracy    <      49.52935352 Ry

     iteration #  7     ecut=    40.00 Ry     beta= 0.60
     Davidson diagonalization with overlap
     ethr =  1.00E-02,  avg # of iterations =  1.3

     total cpu time spent up to now is     5418.8 secs

     total energy              =    -704.28444557 Ry
     Harris-Foulkes estimate   =    -707.08549907 Ry
     estimated scf accuracy    <      54.41689444 Ry

     iteration #  8     ecut=    40.00 Ry     beta= 0.60
     Davidson diagonalization with overlap
     ethr =  1.00E-02,  avg # of iterations =  4.3

     total cpu time spent up to now is     5430.0 secs

     total energy              =    -705.45961224 Ry
     Harris-Foulkes estimate   =    -705.59470680 Ry
     estimated scf accuracy    <      29.52093952 Ry

     iteration #  9     ecut=    40.00 Ry     beta= 0.60
     Davidson diagonalization with overlap
     ethr =  1.00E-02,  avg # of iterations =  1.1

     total cpu time spent up to now is     5438.6 secs

     total energy              =    -704.76989093 Ry
     Harris-Foulkes estimate   =    -706.03374146 Ry
     estimated scf accuracy    <      28.97117478 Ry

     iteration # 10     ecut=    40.00 Ry     beta= 0.60
     Davidson diagonalization with overlap
     ethr =  1.00E-02,  avg # of iterations =  1.3

     total cpu time spent up to now is     5447.2 secs

     total energy              =    -698.25144785 Ry
     Harris-Foulkes estimate   =    -704.98563312 Ry
     estimated scf accuracy    <      43.15837547 Ry

     iteration # 11     ecut=    40.00 Ry     beta= 0.60
     Davidson diagonalization with overlap
     ethr =  1.00E-02,  avg # of iterations =  6.4

     total cpu time spent up to now is     5464.6 secs

     total energy              =    -699.77656933 Ry
     Harris-Foulkes estimate   =    -707.75091915 Ry
     estimated scf accuracy    <     191.61213143 Ry

     iteration # 12     ecut=    40.00 Ry     beta= 0.60
     Davidson diagonalization with overlap
     ethr =  1.00E-02,  avg # of iterations =  5.0

     total cpu time spent up to now is     5477.0 secs

     total energy              =    -703.01176347 Ry
     Harris-Foulkes estimate   =    -703.09875780 Ry
     estimated scf accuracy    <       6.85266830 Ry

     iteration # 13     ecut=    40.00 Ry     beta= 0.60
     Davidson diagonalization with overlap
     ethr =  9.26E-03,  avg # of iterations =  1.2

     total cpu time spent up to now is     5485.6 secs

     total energy              =    -702.54800658 Ry
     Harris-Foulkes estimate   =    -703.05135053 Ry
     estimated scf accuracy    <       4.96654444 Ry

     iteration # 14     ecut=    40.00 Ry     beta= 0.60
     Davidson diagonalization with overlap
     ethr =  6.71E-03,  avg # of iterations =  3.2

     total cpu time spent up to now is     5495.6 secs

     total energy              =    -702.94810568 Ry
     Harris-Foulkes estimate   =    -702.96531070 Ry
     estimated scf accuracy    <       6.85210752 Ry

     iteration # 15     ecut=    40.00 Ry     beta= 0.60
     Davidson diagonalization with overlap
     ethr =  6.71E-03,  avg # of iterations =  1.5

     total cpu time spent up to now is     5504.4 secs

     total energy              =    -702.67287228 Ry
     Harris-Foulkes estimate   =    -703.07547300 Ry
     estimated scf accuracy    <      11.10160003 Ry

     iteration # 16     ecut=    40.00 Ry     beta= 0.60
     Davidson diagonalization with overlap
     ethr =  6.71E-03,  avg # of iterations =  1.1

     total cpu time spent up to now is     5512.8 secs

     total energy              =    -701.69207587 Ry
     Harris-Foulkes estimate   =    -702.72269300 Ry
     estimated scf accuracy    <       7.47988711 Ry

     iteration # 17     ecut=    40.00 Ry     beta= 0.60
     Davidson diagonalization with overlap
     ethr =  6.71E-03,  avg # of iterations =  4.5

     total cpu time spent up to now is     5524.6 secs

     total energy              =    -702.15154609 Ry
     Harris-Foulkes estimate   =    -702.63339198 Ry
     estimated scf accuracy    <       6.35296952 Ry

     iteration # 18     ecut=    40.00 Ry     beta= 0.60
     Davidson diagonalization with overlap
     ethr =  6.71E-03,  avg # of iterations =  1.1

     total cpu time spent up to now is     5533.0 secs

     total energy              =    -702.40185806 Ry
     Harris-Foulkes estimate   =    -702.41471673 Ry
     estimated scf accuracy    <       0.26452255 Ry

     iteration # 19     ecut=    40.00 Ry     beta= 0.60
     Davidson diagonalization with overlap
     ethr =  3.57E-04,  avg # of iterations =  6.7

     total cpu time spent up to now is     5548.5 secs

     total energy              =    -702.45649221 Ry
     Harris-Foulkes estimate   =    -702.46348710 Ry
     estimated scf accuracy    <       0.55620688 Ry

     iteration # 20     ecut=    40.00 Ry     beta= 0.60
     Davidson diagonalization with overlap
     ethr =  3.57E-04,  avg # of iterations =  1.1

     total cpu time spent up to now is     5557.0 secs

     total energy              =    -702.43144338 Ry
     Harris-Foulkes estimate   =    -702.45864313 Ry
     estimated scf accuracy    <       0.45049235 Ry

     iteration # 21     ecut=    40.00 Ry     beta= 0.60
     Davidson diagonalization with overlap
     ethr =  3.57E-04,  avg # of iterations =  1.0

     total cpu time spent up to now is     5565.5 secs

     total energy              =    -702.43498130 Ry
     Harris-Foulkes estimate   =    -702.43594298 Ry
     estimated scf accuracy    <       0.25735051 Ry

     iteration # 22     ecut=    40.00 Ry     beta= 0.60
     Davidson diagonalization with overlap
     ethr =  3.48E-04,  avg # of iterations =  1.0

     total cpu time spent up to now is     5573.9 secs

     total energy              =    -702.42250014 Ry
     Harris-Foulkes estimate   =    -702.43680926 Ry
     estimated scf accuracy    <       0.33712177 Ry

     iteration # 23     ecut=    40.00 Ry     beta= 0.60
     Davidson diagonalization with overlap
     ethr =  3.48E-04,  avg # of iterations =  1.0

     total cpu time spent up to now is     5582.3 secs

     total energy              =    -702.41556679 Ry
     Harris-Foulkes estimate   =    -702.42645617 Ry
     estimated scf accuracy    <       0.25112151 Ry

     iteration # 24     ecut=    40.00 Ry     beta= 0.60
     Davidson diagonalization with overlap
     ethr =  3.39E-04,  avg # of iterations =  3.2

     total cpu time spent up to now is     5592.4 secs

     total energy              =    -702.42682086 Ry
     Harris-Foulkes estimate   =    -702.42793207 Ry
     estimated scf accuracy    <       0.02842638 Ry

     iteration # 25     ecut=    40.00 Ry     beta= 0.60
     Davidson diagonalization with overlap
     c_bands:  1 eigenvalues not converged
     ethr =  3.84E-05,  avg # of iterations =  6.2

     total cpu time spent up to now is     5605.4 secs

     total energy              =    -702.42836371 Ry
     Harris-Foulkes estimate   =    -702.42881740 Ry
     estimated scf accuracy    <       0.01213083 Ry

     iteration # 26     ecut=    40.00 Ry     beta= 0.60
     Davidson diagonalization with overlap
     c_bands:  1 eigenvalues not converged
     ethr =  1.64E-05,  avg # of iterations =  2.1

     total cpu time spent up to now is     5614.5 secs

     total energy              =    -702.42807352 Ry
     Harris-Foulkes estimate   =    -702.42850079 Ry
     estimated scf accuracy    <       0.00482123 Ry

     iteration # 27     ecut=    40.00 Ry     beta= 0.60
     Davidson diagonalization with overlap
     ethr =  6.52E-06,  avg # of iterations =  5.2

     total cpu time spent up to now is     5626.4 secs

     total energy              =    -702.42840142 Ry
     Harris-Foulkes estimate   =    -702.42843353 Ry
     estimated scf accuracy    <       0.00027322 Ry

     iteration # 28     ecut=    40.00 Ry     beta= 0.60
     Davidson diagonalization with overlap
     c_bands:  1 eigenvalues not converged
     c_bands:  1 eigenvalues not converged
     ethr =  3.69E-07,  avg # of iterations =  5.8

     total cpu time spent up to now is     5639.4 secs

     total energy              =    -702.42843390 Ry
     Harris-Foulkes estimate   =    -702.42843564 Ry
     estimated scf accuracy    <       0.00001821 Ry

     iteration # 29     ecut=    40.00 Ry     beta= 0.60
     Davidson diagonalization with overlap
     c_bands:  1 eigenvalues not converged
     ethr =  2.46E-08,  avg # of iterations =  4.7

     total cpu time spent up to now is     5651.9 secs

     total energy              =    -702.42843684 Ry
     Harris-Foulkes estimate   =    -702.42843697 Ry
     estimated scf accuracy    <       0.00000047 Ry

     iteration # 30     ecut=    40.00 Ry     beta= 0.60
     Davidson diagonalization with overlap
     ethr =  6.40E-10,  avg # of iterations =  6.0

     total cpu time spent up to now is     5668.6 secs

     total energy              =    -702.42843700 Ry
     Harris-Foulkes estimate   =    -702.42843721 Ry
     estimated scf accuracy    <       0.00000174 Ry

     iteration # 31     ecut=    40.00 Ry     beta= 0.60
     Davidson diagonalization with overlap
     ethr =  6.40E-10,  avg # of iterations =  3.9

     total cpu time spent up to now is     5680.0 secs

     total energy              =    -702.42843711 Ry
     Harris-Foulkes estimate   =    -702.42843712 Ry
     estimated scf accuracy    <       0.00000006 Ry

     iteration # 32     ecut=    40.00 Ry     beta= 0.60
     Davidson diagonalization with overlap
     ethr =  7.58E-11,  avg # of iterations =  4.1

     total cpu time spent up to now is     5691.7 secs

     total energy              =    -702.42843712 Ry
     Harris-Foulkes estimate   =    -702.42843712 Ry
     estimated scf accuracy    <       0.00000002 Ry

     iteration # 33     ecut=    40.00 Ry     beta= 0.60
     Davidson diagonalization with overlap
     ethr =  3.36E-11,  avg # of iterations =  2.8

     total cpu time spent up to now is     5701.3 secs

     total energy              =    -702.42843712 Ry
     Harris-Foulkes estimate   =    -702.42843712 Ry
     estimated scf accuracy    <          1.2E-09 Ry

     iteration # 34     ecut=    40.00 Ry     beta= 0.60
     Davidson diagonalization with overlap
     ethr =  1.57E-12,  avg # of iterations =  5.2

     total cpu time spent up to now is     5715.5 secs

     total energy              =    -702.42843712 Ry
     Harris-Foulkes estimate   =    -702.42843712 Ry
     estimated scf accuracy    <          9.5E-10 Ry

     iteration # 35     ecut=    40.00 Ry     beta= 0.60
     Davidson diagonalization with overlap
     ethr =  1.28E-12,  avg # of iterations =  1.0

     total cpu time spent up to now is     5724.0 secs

     total energy              =    -702.42843712 Ry
     Harris-Foulkes estimate   =    -702.42843712 Ry
     estimated scf accuracy    <          2.2E-10 Ry

     iteration # 36     ecut=    40.00 Ry     beta= 0.60
     Davidson diagonalization with overlap
     ethr =  2.97E-13,  avg # of iterations =  4.0

     total cpu time spent up to now is     5735.6 secs

     total energy              =    -702.42843712 Ry
     Harris-Foulkes estimate   =    -702.42843712 Ry
     estimated scf accuracy    <          9.0E-11 Ry

     iteration # 37     ecut=    40.00 Ry     beta= 0.60
     Davidson diagonalization with overlap
     ethr =  1.22E-13,  avg # of iterations =  1.2

     total cpu time spent up to now is     5744.2 secs

     total energy              =    -702.42843712 Ry
     Harris-Foulkes estimate   =    -702.42843712 Ry
     estimated scf accuracy    <          1.3E-11 Ry

     iteration # 38     ecut=    40.00 Ry     beta= 0.60
     Davidson diagonalization with overlap
     ethr =  1.00E-13,  avg # of iterations =  2.7

     total cpu time spent up to now is     5753.8 secs

     total energy              =    -702.42843712 Ry
     Harris-Foulkes estimate   =    -702.42843712 Ry
     estimated scf accuracy    <          5.0E-12 Ry

     iteration # 39     ecut=    40.00 Ry     beta= 0.60
     Davidson diagonalization with overlap
     ethr =  1.00E-13,  avg # of iterations =  1.0

     total cpu time spent up to now is     5762.2 secs

     End of self-consistent calculation

     Number of k-points >= 100: set verbosity='high' to print the bands.

     the Fermi energy is    14.9709 ev

!    total energy              =    -702.42843712 Ry
     Harris-Foulkes estimate   =    -702.42843712 Ry
     estimated scf accuracy    <          1.5E-12 Ry

     The total energy is the sum of the following terms:

     one-electron contribution =    -200.05054411 Ry
     hartree contribution      =     128.21800377 Ry
     xc contribution           =     -94.93475506 Ry
     ewald contribution        =    -535.65757285 Ry
     smearing contrib. (-TS)   =      -0.00356886 Ry

     convergence has been achieved in  39 iterations

     Forces acting on atoms (cartesian axes, Ry/au):

     atom    1 type  2   force =    -0.00000000    0.00000000    0.00004639
     atom    2 type  2   force =     0.00000000   -0.00000000   -0.00000000
     atom    3 type  2   force =     0.00000000   -0.00000000   -0.00000000
     atom    4 type  1   force =    -0.00000000   -0.00000000    0.00001527
     atom    5 type  2   force =     0.00000000   -0.00000000   -0.00004639
     atom    6 type  1   force =    -0.00000000    0.00000000   -0.00001527

     Total force =     0.000069     Total SCF correction =     0.000003


     Computing stress (Cartesian axis) and pressure

          total   stress  (Ry/bohr**3)                   (kbar)     P=   -4.78
  -0.00003345   0.00000000   0.00000000         -4.92      0.00      0.00
   0.00000000  -0.00003345  -0.00000000          0.00     -4.92     -0.00
   0.00000000  -0.00000000  -0.00003061          0.00     -0.00     -4.50

 
     init_run     :     11.81s CPU     12.28s WALL (       2 calls)
     electrons    :   5395.48s CPU   5613.63s WALL (      16 calls)
     update_pot   :     20.58s CPU     20.66s WALL (      14 calls)
     forces       :     31.85s CPU     33.24s WALL (      16 calls)
     stress       :     76.81s CPU     81.09s WALL (      16 calls)

     Called by init_run:
     wfcinit      :      9.62s CPU      9.87s WALL (       2 calls)
     potinit      :      0.63s CPU      0.64s WALL (       2 calls)
     hinit0       :      1.22s CPU      1.25s WALL (       2 calls)

     Called by electrons:
     c_bands      :   4685.94s CPU   4805.55s WALL (     406 calls)
     sum_band     :    631.22s CPU    675.70s WALL (     406 calls)
     v_of_rho     :     16.73s CPU     16.83s WALL (     419 calls)
     newd         :     61.01s CPU     97.06s WALL (     419 calls)
     mix_rho      :      2.23s CPU      2.24s WALL (     406 calls)

     Called by c_bands:
     init_us_2    :     75.13s CPU     76.28s WALL (  101520 calls)
     cegterg      :   4255.86s CPU   4320.90s WALL (   48720 calls)

     Called by sum_band:
     sum_band:bec :      2.23s CPU      2.38s WALL (   48720 calls)
     addusdens    :     73.06s CPU    105.27s WALL (     406 calls)

     Called by *egterg:
     h_psi        :   2428.80s CPU   2488.20s WALL (  239002 calls)
     s_psi        :    174.47s CPU    175.13s WALL (  239002 calls)
     g_psi        :     24.15s CPU     25.43s WALL (  190042 calls)
     cdiaghg      :    964.32s CPU    966.43s WALL (  236722 calls)

     Called by h_psi:
     h_psi:pot    :   2413.97s CPU   2472.79s WALL (  239002 calls)
     h_psi:calbec :    183.92s CPU    185.30s WALL (  239002 calls)
     vloc_psi     :   2050.89s CPU   2107.29s WALL (  239002 calls)
     add_vuspsi   :    177.99s CPU    178.72s WALL (  239002 calls)

     General routines
     calbec       :    254.12s CPU    255.72s WALL (  297322 calls)
     fft          :      9.66s CPU      9.77s WALL (    5848 calls)
     ffts         :      0.24s CPU      0.28s WALL (     825 calls)
     fftw         :   2163.54s CPU   2215.90s WALL (13501366 calls)
     interpolate  :      0.85s CPU      0.86s WALL (     419 calls)
 
     Parallel routines
     fft_scatt_xy :    417.28s CPU    433.95s WALL (13508039 calls)
     fft_scatt_yz :    560.24s CPU    554.29s WALL (13508039 calls)
 
     PWSCF        :     1h32m CPU       32h 1m WALL

      36h
 
   This run was terminated on:   9:57: 8  11Feb2020            

=------------------------------------------------------------------------------=
   JOB DONE.
=------------------------------------------------------------------------------=
