
     Program PWSCF v.6.3MaX starts on 25Feb2020 at 15: 2:53 

     This program is part of the open-source Quantum ESPRESSO suite
     for quantum simulation of materials; please cite
         "P. Giannozzi et al., J. Phys.:Condens. Matter 21 395502 (2009);
         "P. Giannozzi et al., J. Phys.:Condens. Matter 29 465901 (2017);
          URL http://www.quantum-espresso.org", 
     in publications or presentations arising from this work. More details at
     http://www.quantum-espresso.org/quote

     Parallel version (MPI), running on     6 processors

     MPI processes distributed on     1 nodes
     R & G space division:  proc/nbgrp/npool/nimage =       6
     Waiting for input...
     Reading input from standard input

     Current dimensions of program PWSCF are:
     Max number of different atomic species (ntypx) = 10
     Max number of k-points (npk) =  40000
     Max angular momentum in pseudopotentials (lmaxx) =  3
     Message from routine iosys:
     minimal I/O required, wf_collect reset to FALSE

     Subspace diagonalization in iterative solution of the eigenvalue problem:
     a serial algorithm will be used

 
     Parallelization info
     --------------------
     sticks:   dense  smooth     PW     G-vecs:    dense   smooth      PW
     Min         520     208     62                24276     6137    1017
     Max         521     210     63                24278     6138    1019
     Sum        3121    1251    375               145661    36823    6107
 


     bravais-lattice index     =            0
     lattice parameter (alat)  =       1.8897  a.u.
     unit-cell volume          =    1077.7903 (a.u.)^3
     number of atoms/cell      =            8
     number of atomic types    =            2
     number of electrons       =       100.00
     number of Kohn-Sham states=           60
     kinetic-energy cutoff     =      40.0000  Ry
     charge density cutoff     =     400.0000  Ry
     convergence threshold     =      1.0E-10
     mixing beta               =       0.6000
     number of iterations used =            8  plain     mixing
     Exchange-correlation      = SLA PW PBE PBE ( 1  4  3  4 0 0)
     nstep                     =           50


     celldm(1)=   1.889726  celldm(2)=   0.000000  celldm(3)=   0.000000
     celldm(4)=   0.000000  celldm(5)=   0.000000  celldm(6)=   0.000000

     crystal axes: (cart. coord. in units of alat)
               a(1) = (   1.522502   2.637051  -4.972461 )  
               a(2) = (   1.522502  -2.637051  -4.972461 )  
               a(3) = (  -6.090008   0.000000   0.000000 )  

     reciprocal axes: (cart. coord. in units 2 pi/alat)
               b(1) = (  0.000000  0.189606 -0.100554 )  
               b(2) = (  0.000000 -0.189606 -0.100554 )  
               b(3) = ( -0.164203  0.000000 -0.050277 )  


     PseudoPot. # 1 for Nb read from file:
     ./Nb.pbe-nsp-van.UPF
     MD5 check sum: 0a22fc7fb0ba19a08ca5db297a5d2854
     Pseudo is Ultrasoft + core correction, Zval = 13.0
     Generated by new atomic code, or converted to UPF format
     Using radial grid of  887 points,  6 beta functions with: 
                l(1) =   0
                l(2) =   0
                l(3) =   1
                l(4) =   1
                l(5) =   2
                l(6) =   2
     Q(r) pseudized with  6 coefficients,  rinner =    1.000   1.000   1.000
                                                       1.000   1.000

     PseudoPot. # 2 for Ti read from file:
     ./Ti.pbe-sp-van_ak.UPF
     MD5 check sum: f98fea3e8887528921fefa5636a534ca
     Pseudo is Ultrasoft, Zval = 12.0
     Generated by new atomic code, or converted to UPF format
     Using radial grid of  851 points,  6 beta functions with: 
                l(1) =   0
                l(2) =   0
                l(3) =   1
                l(4) =   1
                l(5) =   2
                l(6) =   2
     Q(r) pseudized with  8 coefficients,  rinner =    1.000   1.000   1.000
                                                       1.000   1.000

     atomic species   valence    mass     pseudopotential
        Nb            13.00    92.90638     Nb( 1.00)
        Ti            12.00    47.86700     Ti( 1.00)

     No symmetry found



   Cartesian axes

     site n.     atom                  positions (alat units)
         1           Nb  tau(   1) = (   0.0000000   0.0000000  -4.9724614  )
         2           Ti  tau(   2) = (  -1.5225006   0.8790162  -2.4862307  )
         3           Ti  tau(   3) = (  -3.0450042   0.0000000  -4.9724614  )
         4           Nb  tau(   4) = (  -4.5675048   0.8790162  -2.4862307  )
         5           Ti  tau(   5) = (  -3.0450042   0.0000000  -9.9449228  )
         6           Ti  tau(   6) = (   1.5225036   0.8790162  -7.4586921  )
         7           Nb  tau(   7) = (   0.0000000   0.0000000  -9.9449228  )
         8           Nb  tau(   8) = (  -1.5225006   0.8790162  -7.4586921  )

     number of k points=   504  Marzari-Vanderbilt smearing, width (Ry)=  0.0200

     Number of k-points >= 100: set verbosity='high' to print them.

     Dense  grid:   145661 G-vectors     FFT dimensions: (  72,  72,  75)

     Smooth grid:    36823 G-vectors     FFT dimensions: (  45,  45,  48)

     Estimated max dynamical RAM per process >     450.84 MB

     Estimated total dynamical RAM >       2.64 GB

     Initial potential from superposition of free atoms

     starting charge   95.98889, renormalised to  100.00000
     Starting wfcs are   92 randomized atomic wfcs

     total cpu time spent up to now is       33.6 secs

     Self-consistent Calculation

     iteration #  1     ecut=    40.00 Ry     beta= 0.60
     Davidson diagonalization with overlap
     ethr =  1.00E-02,  avg # of iterations =  3.0

     total cpu time spent up to now is      110.2 secs

     total energy              =    -921.32840230 Ry
     Harris-Foulkes estimate   =    -941.43769912 Ry
     estimated scf accuracy    <      25.46335686 Ry

     iteration #  2     ecut=    40.00 Ry     beta= 0.60
     Davidson diagonalization with overlap
     ethr =  1.00E-02,  avg # of iterations =  5.0

     total cpu time spent up to now is      239.7 secs

     total energy              =    -933.64109660 Ry
     Harris-Foulkes estimate   =    -966.41809315 Ry
     estimated scf accuracy    <      95.07690799 Ry

     iteration #  3     ecut=    40.00 Ry     beta= 0.60
     Davidson diagonalization with overlap
     ethr =  1.00E-02,  avg # of iterations =  4.2

     total cpu time spent up to now is      334.7 secs

     total energy              =    -938.56371506 Ry
     Harris-Foulkes estimate   =    -942.73852967 Ry
     estimated scf accuracy    <      28.86635690 Ry

     iteration #  4     ecut=    40.00 Ry     beta= 0.60
     Davidson diagonalization with overlap
     ethr =  1.00E-02,  avg # of iterations =  2.0

     total cpu time spent up to now is      395.4 secs

     total energy              =    -939.62372337 Ry
     Harris-Foulkes estimate   =    -939.93338807 Ry
     estimated scf accuracy    <      10.32551154 Ry

     iteration #  5     ecut=    40.00 Ry     beta= 0.60
     Davidson diagonalization with overlap
     ethr =  1.00E-02,  avg # of iterations =  1.0

     total cpu time spent up to now is      449.0 secs

     total energy              =    -938.24521052 Ry
     Harris-Foulkes estimate   =    -939.69058303 Ry
     estimated scf accuracy    <       9.39500805 Ry

     iteration #  6     ecut=    40.00 Ry     beta= 0.60
     Davidson diagonalization with overlap
     ethr =  9.40E-03,  avg # of iterations =  1.1

     total cpu time spent up to now is      503.6 secs

     total energy              =    -937.49411612 Ry
     Harris-Foulkes estimate   =    -938.41914078 Ry
     estimated scf accuracy    <       4.84779765 Ry

     iteration #  7     ecut=    40.00 Ry     beta= 0.60
     Davidson diagonalization with overlap
     ethr =  4.85E-03,  avg # of iterations =  4.7

     total cpu time spent up to now is      593.4 secs

     total energy              =    -938.30769582 Ry
     Harris-Foulkes estimate   =    -938.36780694 Ry
     estimated scf accuracy    <       2.70444323 Ry

     iteration #  8     ecut=    40.00 Ry     beta= 0.60
     Davidson diagonalization with overlap
     ethr =  2.70E-03,  avg # of iterations =  1.2

     total cpu time spent up to now is      647.3 secs

     total energy              =    -938.08600422 Ry
     Harris-Foulkes estimate   =    -938.32320776 Ry
     estimated scf accuracy    <       2.05144832 Ry

     iteration #  9     ecut=    40.00 Ry     beta= 0.60
     Davidson diagonalization with overlap
     ethr =  2.05E-03,  avg # of iterations =  1.5

     total cpu time spent up to now is      702.6 secs

     total energy              =    -938.11288441 Ry
     Harris-Foulkes estimate   =    -938.17193915 Ry
     estimated scf accuracy    <       0.13439862 Ry

     iteration # 10     ecut=    40.00 Ry     beta= 0.60
     Davidson diagonalization with overlap
     ethr =  1.34E-04,  avg # of iterations =  6.7

     total cpu time spent up to now is      828.6 secs

     total energy              =    -938.26920769 Ry
     Harris-Foulkes estimate   =    -938.32465636 Ry
     estimated scf accuracy    <       1.49717171 Ry

     iteration # 11     ecut=    40.00 Ry     beta= 0.60
     Davidson diagonalization with overlap
     ethr =  1.34E-04,  avg # of iterations =  1.0

     total cpu time spent up to now is      885.5 secs

     total energy              =    -938.13010436 Ry
     Harris-Foulkes estimate   =    -938.27371879 Ry
     estimated scf accuracy    <       1.16414114 Ry

     iteration # 12     ecut=    40.00 Ry     beta= 0.60
     Davidson diagonalization with overlap
     ethr =  1.34E-04,  avg # of iterations =  5.0

     total cpu time spent up to now is      992.8 secs

     total energy              =    -938.19480223 Ry
     Harris-Foulkes estimate   =    -938.19677248 Ry
     estimated scf accuracy    <       0.05555188 Ry

     iteration # 13     ecut=    40.00 Ry     beta= 0.60
     Davidson diagonalization with overlap
     ethr =  5.56E-05,  avg # of iterations =  3.1

     total cpu time spent up to now is     1058.9 secs

     total energy              =    -938.19710080 Ry
     Harris-Foulkes estimate   =    -938.20168432 Ry
     estimated scf accuracy    <       0.11314782 Ry

     iteration # 14     ecut=    40.00 Ry     beta= 0.60
     Davidson diagonalization with overlap
     ethr =  5.56E-05,  avg # of iterations =  3.1

     total cpu time spent up to now is     1123.1 secs

     total energy              =    -938.18623682 Ry
     Harris-Foulkes estimate   =    -938.20163855 Ry
     estimated scf accuracy    <       0.12981589 Ry

     iteration # 15     ecut=    40.00 Ry     beta= 0.60
     Davidson diagonalization with overlap
     ethr =  5.56E-05,  avg # of iterations =  3.7

     total cpu time spent up to now is     1189.9 secs

     total energy              =    -938.18898125 Ry
     Harris-Foulkes estimate   =    -938.19202147 Ry
     estimated scf accuracy    <       0.01972186 Ry

     iteration # 16     ecut=    40.00 Ry     beta= 0.60
     Davidson diagonalization with overlap
     ethr =  1.97E-05,  avg # of iterations =  4.4

     total cpu time spent up to now is     1273.3 secs

     total energy              =    -938.19090375 Ry
     Harris-Foulkes estimate   =    -938.19324330 Ry
     estimated scf accuracy    <       0.01719790 Ry

     iteration # 17     ecut=    40.00 Ry     beta= 0.60
     Davidson diagonalization with overlap
     ethr =  1.72E-05,  avg # of iterations =  1.2

     total cpu time spent up to now is     1327.3 secs

     total energy              =    -938.19144867 Ry
     Harris-Foulkes estimate   =    -938.19186494 Ry
     estimated scf accuracy    <       0.00341524 Ry

     iteration # 18     ecut=    40.00 Ry     beta= 0.60
     Davidson diagonalization with overlap
     ethr =  3.42E-06,  avg # of iterations =  5.3

     total cpu time spent up to now is     1423.0 secs

     total energy              =    -938.19195050 Ry
     Harris-Foulkes estimate   =    -938.19202965 Ry
     estimated scf accuracy    <       0.00087422 Ry

     iteration # 19     ecut=    40.00 Ry     beta= 0.60
     Davidson diagonalization with overlap
     ethr =  8.74E-07,  avg # of iterations =  1.1

     total cpu time spent up to now is     1476.9 secs

     total energy              =    -938.19193675 Ry
     Harris-Foulkes estimate   =    -938.19198734 Ry
     estimated scf accuracy    <       0.00036459 Ry

     iteration # 20     ecut=    40.00 Ry     beta= 0.60
     Davidson diagonalization with overlap
     ethr =  3.65E-07,  avg # of iterations =  3.9

     total cpu time spent up to now is     1549.3 secs

     total energy              =    -938.19196758 Ry
     Harris-Foulkes estimate   =    -938.19197234 Ry
     estimated scf accuracy    <       0.00001695 Ry

     iteration # 21     ecut=    40.00 Ry     beta= 0.60
     Davidson diagonalization with overlap
     ethr =  1.70E-08,  avg # of iterations =  5.2

     total cpu time spent up to now is     1648.7 secs

     total energy              =    -938.19197188 Ry
     Harris-Foulkes estimate   =    -938.19197869 Ry
     estimated scf accuracy    <       0.00006347 Ry

     iteration # 22     ecut=    40.00 Ry     beta= 0.60
     Davidson diagonalization with overlap
     ethr =  1.70E-08,  avg # of iterations =  4.0

     total cpu time spent up to now is     1725.6 secs

     total energy              =    -938.19197343 Ry
     Harris-Foulkes estimate   =    -938.19197545 Ry
     estimated scf accuracy    <       0.00001613 Ry

     iteration # 23     ecut=    40.00 Ry     beta= 0.60
     Davidson diagonalization with overlap
     ethr =  1.61E-08,  avg # of iterations =  1.2

     total cpu time spent up to now is     1780.0 secs

     total energy              =    -938.19197414 Ry
     Harris-Foulkes estimate   =    -938.19197431 Ry
     estimated scf accuracy    <       0.00000133 Ry

     iteration # 24     ecut=    40.00 Ry     beta= 0.60
     Davidson diagonalization with overlap
     ethr =  1.33E-09,  avg # of iterations =  5.0

     total cpu time spent up to now is     1875.2 secs

     total energy              =    -938.19197435 Ry
     Harris-Foulkes estimate   =    -938.19197489 Ry
     estimated scf accuracy    <       0.00000525 Ry

     iteration # 25     ecut=    40.00 Ry     beta= 0.60
     Davidson diagonalization with overlap
     ethr =  1.33E-09,  avg # of iterations =  4.4

     total cpu time spent up to now is     1957.7 secs

     total energy              =    -938.19197460 Ry
     Harris-Foulkes estimate   =    -938.19197479 Ry
     estimated scf accuracy    <       0.00000264 Ry

     iteration # 26     ecut=    40.00 Ry     beta= 0.60
     Davidson diagonalization with overlap
     ethr =  1.33E-09,  avg # of iterations =  1.0

     total cpu time spent up to now is     2010.9 secs

     total energy              =    -938.19197459 Ry
     Harris-Foulkes estimate   =    -938.19197465 Ry
     estimated scf accuracy    <       0.00000090 Ry

     iteration # 27     ecut=    40.00 Ry     beta= 0.60
     Davidson diagonalization with overlap
     ethr =  9.04E-10,  avg # of iterations =  3.5

     total cpu time spent up to now is     2077.2 secs

     total energy              =    -938.19197461 Ry
     Harris-Foulkes estimate   =    -938.19197463 Ry
     estimated scf accuracy    <       0.00000021 Ry

     iteration # 28     ecut=    40.00 Ry     beta= 0.60
     Davidson diagonalization with overlap
     ethr =  2.11E-10,  avg # of iterations =  3.9

     total cpu time spent up to now is     2150.0 secs

     total energy              =    -938.19197463 Ry
     Harris-Foulkes estimate   =    -938.19197464 Ry
     estimated scf accuracy    <       0.00000008 Ry

     iteration # 29     ecut=    40.00 Ry     beta= 0.60
     Davidson diagonalization with overlap
     ethr =  7.73E-11,  avg # of iterations =  2.8

     total cpu time spent up to now is     2214.9 secs

     total energy              =    -938.19197463 Ry
     Harris-Foulkes estimate   =    -938.19197464 Ry
     estimated scf accuracy    <       0.00000007 Ry

     iteration # 30     ecut=    40.00 Ry     beta= 0.60
     Davidson diagonalization with overlap
     ethr =  7.42E-11,  avg # of iterations =  2.0

     total cpu time spent up to now is     2272.9 secs

     total energy              =    -938.19197463 Ry
     Harris-Foulkes estimate   =    -938.19197464 Ry
     estimated scf accuracy    <       0.00000001 Ry

     iteration # 31     ecut=    40.00 Ry     beta= 0.60
     Davidson diagonalization with overlap
     ethr =  1.42E-11,  avg # of iterations =  5.0

     total cpu time spent up to now is     2365.9 secs

     total energy              =    -938.19197464 Ry
     Harris-Foulkes estimate   =    -938.19197464 Ry
     estimated scf accuracy    <       0.00000004 Ry

     iteration # 32     ecut=    40.00 Ry     beta= 0.60
     Davidson diagonalization with overlap
     ethr =  1.42E-11,  avg # of iterations =  1.4

     total cpu time spent up to now is     2420.6 secs

     total energy              =    -938.19197463 Ry
     Harris-Foulkes estimate   =    -938.19197464 Ry
     estimated scf accuracy    <       0.00000002 Ry

     iteration # 33     ecut=    40.00 Ry     beta= 0.60
     Davidson diagonalization with overlap
     ethr =  1.42E-11,  avg # of iterations =  3.0

     total cpu time spent up to now is     2484.4 secs

     total energy              =    -938.19197464 Ry
     Harris-Foulkes estimate   =    -938.19197464 Ry
     estimated scf accuracy    <          2.0E-09 Ry

     iteration # 34     ecut=    40.00 Ry     beta= 0.60
     Davidson diagonalization with overlap
     ethr =  2.02E-12,  avg # of iterations =  4.5

     total cpu time spent up to now is     2568.7 secs

     total energy              =    -938.19197464 Ry
     Harris-Foulkes estimate   =    -938.19197464 Ry
     estimated scf accuracy    <          5.2E-10 Ry

     iteration # 35     ecut=    40.00 Ry     beta= 0.60
     Davidson diagonalization with overlap
     ethr =  5.20E-13,  avg # of iterations =  3.6

     total cpu time spent up to now is     2635.8 secs

     total energy              =    -938.19197464 Ry
     Harris-Foulkes estimate   =    -938.19197464 Ry
     estimated scf accuracy    <          6.3E-10 Ry

     iteration # 36     ecut=    40.00 Ry     beta= 0.60
     Davidson diagonalization with overlap
     ethr =  5.20E-13,  avg # of iterations =  1.3

     total cpu time spent up to now is     2690.7 secs

     End of self-consistent calculation

     Number of k-points >= 100: set verbosity='high' to print the bands.

     the Fermi energy is    13.8339 ev

!    total energy              =    -938.19197464 Ry
     Harris-Foulkes estimate   =    -938.19197464 Ry
     estimated scf accuracy    <          7.8E-11 Ry

     The total energy is the sum of the following terms:

     one-electron contribution =    -272.53086099 Ry
     hartree contribution      =     170.09938096 Ry
     xc contribution           =    -130.99059390 Ry
     ewald contribution        =    -704.76112497 Ry
     smearing contrib. (-TS)   =      -0.00877573 Ry

     convergence has been achieved in  36 iterations

     Forces acting on atoms (cartesian axes, Ry/au):

     atom    1 type  1   force =     0.00064488    0.00009816   -0.00244299
     atom    2 type  2   force =     0.00069720    0.00124622   -0.00110005
     atom    3 type  2   force =    -0.00070094   -0.00124530    0.00109805
     atom    4 type  1   force =    -0.00064025   -0.00009818    0.00244497
     atom    5 type  2   force =     0.00074492    0.00096236   -0.00437984
     atom    6 type  2   force =    -0.00074915   -0.00096352    0.00437874
     atom    7 type  1   force =    -0.00123960    0.00211272    0.00796752
     atom    8 type  1   force =     0.00124295   -0.00211246   -0.00796640

     Total force =     0.014127     Total SCF correction =     0.000019


     Computing stress (Cartesian axis) and pressure

          total   stress  (Ry/bohr**3)                   (kbar)     P= -126.17
  -0.00088744  -0.00000373  -0.00001029       -130.55     -0.55     -1.51
  -0.00000373  -0.00092877   0.00000006         -0.55   -136.63      0.01
  -0.00001029   0.00000006  -0.00075684         -1.51      0.01   -111.34


     BFGS Geometry Optimization

     number of scf cycles    =   1
     number of bfgs steps    =   0

     enthalpy new            =    -938.1919746352 Ry

     new trust radius        =       0.1524575875 bohr
     new conv_thr            =            1.0E-10 Ry

     new unit-cell volume =   1009.93050 a.u.^3 (   149.65626 Ang^3 )
     density =      6.24791 g/cm^3

CELL_PARAMETERS (alat=  1.88972599)
   1.489756849   2.575670937  -4.878764408
   1.490248614  -2.575970308  -4.878772602
  -5.954894328   0.000567842   0.001566635

ATOMIC_POSITIONS (angstrom)
Nb       0.001613160   0.000042980  -4.879645248
Ti      -1.487803635   0.859388236  -2.439366600
Ti      -2.976530794  -0.000367450  -4.877023364
Nb      -4.465943260   0.858977318  -2.436742655
Ti      -2.974502869   0.000765865  -9.758244336
Ti       1.490173651   0.857954473  -7.315682174
Nb       0.001915695   0.001076664  -9.752617065
Nb      -1.486240992   0.857644408  -7.321308288


     NEW-OLD atomic charge density approx. for the potential

     Check: negative/imaginary core charge=   -0.000001    0.000000
     extrapolated charge   93.55026, renormalised to  100.00000

     total cpu time spent up to now is     2719.0 secs

     Self-consistent Calculation

     iteration #  1     ecut=    40.00 Ry     beta= 0.60
     Davidson diagonalization with overlap
     c_bands:  1 eigenvalues not converged
     c_bands:  2 eigenvalues not converged
     c_bands:  1 eigenvalues not converged
     c_bands:  1 eigenvalues not converged
     c_bands:  1 eigenvalues not converged
     c_bands:  1 eigenvalues not converged
     c_bands:  1 eigenvalues not converged
     c_bands:  1 eigenvalues not converged
     c_bands:  1 eigenvalues not converged
     c_bands:  2 eigenvalues not converged
     c_bands:  1 eigenvalues not converged
     c_bands:  2 eigenvalues not converged
     c_bands:  1 eigenvalues not converged
     c_bands:  2 eigenvalues not converged
     c_bands:  1 eigenvalues not converged
     c_bands:  1 eigenvalues not converged
     c_bands:  2 eigenvalues not converged
     c_bands:  1 eigenvalues not converged
     c_bands:  2 eigenvalues not converged
     c_bands:  2 eigenvalues not converged
     c_bands:  2 eigenvalues not converged
     c_bands:  2 eigenvalues not converged
     c_bands:  1 eigenvalues not converged
     c_bands:  1 eigenvalues not converged
     c_bands:  1 eigenvalues not converged
     c_bands:  1 eigenvalues not converged
     c_bands:  1 eigenvalues not converged
     c_bands:  1 eigenvalues not converged
     c_bands:  1 eigenvalues not converged
     c_bands:  1 eigenvalues not converged
     c_bands:  3 eigenvalues not converged
     c_bands:  1 eigenvalues not converged
     c_bands:  1 eigenvalues not converged
     c_bands:  1 eigenvalues not converged
     c_bands:  2 eigenvalues not converged
     c_bands:  2 eigenvalues not converged
     c_bands:  1 eigenvalues not converged
     c_bands:  1 eigenvalues not converged
     c_bands:  1 eigenvalues not converged
     c_bands:  1 eigenvalues not converged
     c_bands:  1 eigenvalues not converged
     c_bands:  1 eigenvalues not converged
     c_bands:  2 eigenvalues not converged
     c_bands:  1 eigenvalues not converged
     c_bands:  1 eigenvalues not converged
     c_bands:  1 eigenvalues not converged
     c_bands:  1 eigenvalues not converged
     c_bands:  2 eigenvalues not converged
     c_bands:  1 eigenvalues not converged
     c_bands:  1 eigenvalues not converged
     c_bands:  1 eigenvalues not converged
     c_bands:  1 eigenvalues not converged
     c_bands:  1 eigenvalues not converged
     c_bands:  3 eigenvalues not converged
     c_bands:  1 eigenvalues not converged
     c_bands:  2 eigenvalues not converged
     c_bands:  3 eigenvalues not converged
     c_bands:  3 eigenvalues not converged
     c_bands:  2 eigenvalues not converged
     c_bands:  1 eigenvalues not converged
     c_bands:  1 eigenvalues not converged
     c_bands:  2 eigenvalues not converged
     c_bands:  2 eigenvalues not converged
     c_bands:  2 eigenvalues not converged
     c_bands:  2 eigenvalues not converged
     c_bands:  2 eigenvalues not converged
     c_bands:  1 eigenvalues not converged
     c_bands:  1 eigenvalues not converged
     c_bands:  1 eigenvalues not converged
     c_bands:  1 eigenvalues not converged
     c_bands:  1 eigenvalues not converged
     c_bands:  1 eigenvalues not converged
     c_bands:  1 eigenvalues not converged
     c_bands:  2 eigenvalues not converged
     c_bands:  2 eigenvalues not converged
     c_bands:  2 eigenvalues not converged
     c_bands:  1 eigenvalues not converged
     c_bands:  2 eigenvalues not converged
     c_bands:  1 eigenvalues not converged
     c_bands:  2 eigenvalues not converged
     c_bands:  1 eigenvalues not converged
     c_bands:  1 eigenvalues not converged
     c_bands:  1 eigenvalues not converged
     c_bands:  1 eigenvalues not converged
     c_bands:  1 eigenvalues not converged
     c_bands:  1 eigenvalues not converged
     c_bands:  1 eigenvalues not converged
     c_bands:  1 eigenvalues not converged
     c_bands:  1 eigenvalues not converged
     c_bands:  1 eigenvalues not converged
     c_bands:  1 eigenvalues not converged
     c_bands:  1 eigenvalues not converged
     c_bands:  1 eigenvalues not converged
     c_bands:  2 eigenvalues not converged
     c_bands:  1 eigenvalues not converged
     c_bands:  1 eigenvalues not converged
     c_bands:  1 eigenvalues not converged
     c_bands:  2 eigenvalues not converged
     c_bands:  2 eigenvalues not converged
     c_bands:  2 eigenvalues not converged
     c_bands:  2 eigenvalues not converged
     c_bands:  2 eigenvalues not converged
     c_bands:  1 eigenvalues not converged
     c_bands:  1 eigenvalues not converged
     c_bands:  1 eigenvalues not converged
     c_bands:  1 eigenvalues not converged
     c_bands:  1 eigenvalues not converged
     c_bands:  1 eigenvalues not converged
     c_bands:  1 eigenvalues not converged
     c_bands:  1 eigenvalues not converged
     c_bands:  2 eigenvalues not converged
     c_bands:  4 eigenvalues not converged
     c_bands:  2 eigenvalues not converged
     c_bands:  1 eigenvalues not converged
     c_bands:  2 eigenvalues not converged
     c_bands:  1 eigenvalues not converged
     c_bands:  2 eigenvalues not converged
     c_bands:  1 eigenvalues not converged
     c_bands:  1 eigenvalues not converged
     c_bands:  1 eigenvalues not converged
     c_bands:  1 eigenvalues not converged
     c_bands:  1 eigenvalues not converged
     c_bands:  1 eigenvalues not converged
     c_bands:  1 eigenvalues not converged
     c_bands:  1 eigenvalues not converged
     c_bands:  2 eigenvalues not converged
     c_bands:  1 eigenvalues not converged
     c_bands:  1 eigenvalues not converged
     c_bands:  1 eigenvalues not converged
     c_bands:  1 eigenvalues not converged
     c_bands:  1 eigenvalues not converged
     c_bands:  1 eigenvalues not converged
     c_bands:  1 eigenvalues not converged
     c_bands:  1 eigenvalues not converged
     c_bands:  1 eigenvalues not converged
     c_bands:  2 eigenvalues not converged
     c_bands:  1 eigenvalues not converged
     c_bands:  1 eigenvalues not converged
     c_bands:  1 eigenvalues not converged
     c_bands:  1 eigenvalues not converged
     c_bands:  1 eigenvalues not converged
     c_bands:  1 eigenvalues not converged
     c_bands:  1 eigenvalues not converged
     c_bands:  1 eigenvalues not converged
     c_bands:  2 eigenvalues not converged
     c_bands:  1 eigenvalues not converged
     c_bands:  2 eigenvalues not converged
     c_bands:  1 eigenvalues not converged
     c_bands:  1 eigenvalues not converged
     c_bands:  1 eigenvalues not converged
     c_bands:  1 eigenvalues not converged
     c_bands:  1 eigenvalues not converged
     c_bands:  1 eigenvalues not converged
     c_bands:  1 eigenvalues not converged
     c_bands:  1 eigenvalues not converged
     c_bands:  1 eigenvalues not converged
     c_bands:  1 eigenvalues not converged
     c_bands:  2 eigenvalues not converged
     c_bands:  1 eigenvalues not converged
     c_bands:  2 eigenvalues not converged
     c_bands:  1 eigenvalues not converged
     c_bands:  1 eigenvalues not converged
     c_bands:  1 eigenvalues not converged
     c_bands:  1 eigenvalues not converged
     c_bands:  1 eigenvalues not converged
     c_bands:  2 eigenvalues not converged
     c_bands:  1 eigenvalues not converged
     c_bands:  1 eigenvalues not converged
     c_bands:  2 eigenvalues not converged
     c_bands:  1 eigenvalues not converged
     c_bands:  1 eigenvalues not converged
     c_bands:  3 eigenvalues not converged
     c_bands:  2 eigenvalues not converged
     c_bands:  1 eigenvalues not converged
     c_bands:  1 eigenvalues not converged
     c_bands:  2 eigenvalues not converged
     c_bands:  1 eigenvalues not converged
     c_bands:  1 eigenvalues not converged
     c_bands:  2 eigenvalues not converged
     c_bands:  1 eigenvalues not converged
     c_bands:  2 eigenvalues not converged
     c_bands:  2 eigenvalues not converged
     c_bands:  1 eigenvalues not converged
     c_bands:  1 eigenvalues not converged
     c_bands:  1 eigenvalues not converged
     c_bands:  1 eigenvalues not converged
     c_bands:  2 eigenvalues not converged
     c_bands:  1 eigenvalues not converged
     c_bands:  1 eigenvalues not converged
     c_bands:  1 eigenvalues not converged
     c_bands:  2 eigenvalues not converged
     c_bands:  1 eigenvalues not converged
     c_bands:  1 eigenvalues not converged
     c_bands:  1 eigenvalues not converged
     c_bands:  1 eigenvalues not converged
     c_bands:  1 eigenvalues not converged
     c_bands:  1 eigenvalues not converged
     c_bands:  2 eigenvalues not converged
     c_bands:  1 eigenvalues not converged
     c_bands:  1 eigenvalues not converged
     c_bands:  1 eigenvalues not converged
     c_bands:  2 eigenvalues not converged
     c_bands:  2 eigenvalues not converged
     c_bands:  1 eigenvalues not converged
     c_bands:  2 eigenvalues not converged
     c_bands:  2 eigenvalues not converged
     c_bands:  1 eigenvalues not converged
     c_bands:  1 eigenvalues not converged
     c_bands:  1 eigenvalues not converged
     c_bands:  1 eigenvalues not converged
     c_bands:  1 eigenvalues not converged
     c_bands:  1 eigenvalues not converged
     c_bands:  1 eigenvalues not converged
     c_bands:  1 eigenvalues not converged
     c_bands:  1 eigenvalues not converged
     c_bands:  1 eigenvalues not converged
     c_bands:  2 eigenvalues not converged
     c_bands:  2 eigenvalues not converged
     c_bands:  2 eigenvalues not converged
     c_bands:  1 eigenvalues not converged
     c_bands:  2 eigenvalues not converged
     c_bands:  1 eigenvalues not converged
     c_bands:  1 eigenvalues not converged
     c_bands:  2 eigenvalues not converged
     c_bands:  1 eigenvalues not converged
     c_bands:  2 eigenvalues not converged
     c_bands:  2 eigenvalues not converged
     c_bands:  1 eigenvalues not converged
     c_bands:  1 eigenvalues not converged
     c_bands:  1 eigenvalues not converged
     c_bands:  1 eigenvalues not converged
     c_bands:  1 eigenvalues not converged
     c_bands:  1 eigenvalues not converged
     c_bands:  1 eigenvalues not converged
     c_bands:  1 eigenvalues not converged
     c_bands:  2 eigenvalues not converged
     c_bands:  1 eigenvalues not converged
     c_bands:  2 eigenvalues not converged
     c_bands:  1 eigenvalues not converged
     c_bands:  2 eigenvalues not converged
     c_bands:  1 eigenvalues not converged
     c_bands:  1 eigenvalues not converged
     c_bands:  2 eigenvalues not converged
     c_bands:  1 eigenvalues not converged
     c_bands:  2 eigenvalues not converged
     c_bands:  3 eigenvalues not converged
     c_bands:  1 eigenvalues not converged
     c_bands:  1 eigenvalues not converged
     c_bands:  2 eigenvalues not converged
     c_bands:  2 eigenvalues not converged
     c_bands:  2 eigenvalues not converged
     c_bands:  1 eigenvalues not converged
     c_bands:  1 eigenvalues not converged
     c_bands:  2 eigenvalues not converged
     c_bands:  1 eigenvalues not converged
     c_bands:  2 eigenvalues not converged
     c_bands:  2 eigenvalues not converged
     c_bands:  1 eigenvalues not converged
     c_bands:  1 eigenvalues not converged
     c_bands:  2 eigenvalues not converged
     c_bands:  2 eigenvalues not converged
     c_bands:  1 eigenvalues not converged
     c_bands:  2 eigenvalues not converged
     c_bands:  1 eigenvalues not converged
     c_bands:  2 eigenvalues not converged
     c_bands:  1 eigenvalues not converged
     c_bands:  3 eigenvalues not converged
     c_bands:  2 eigenvalues not converged
     c_bands:  2 eigenvalues not converged
     c_bands:  2 eigenvalues not converged
     c_bands:  2 eigenvalues not converged
     c_bands:  1 eigenvalues not converged
     c_bands:  1 eigenvalues not converged
     c_bands:  1 eigenvalues not converged
     c_bands:  1 eigenvalues not converged
     c_bands:  2 eigenvalues not converged
     c_bands:  2 eigenvalues not converged
     c_bands:  1 eigenvalues not converged
     c_bands:  1 eigenvalues not converged
     c_bands:  1 eigenvalues not converged
     c_bands:  1 eigenvalues not converged
     c_bands:  1 eigenvalues not converged
     c_bands:  1 eigenvalues not converged
     c_bands:  1 eigenvalues not converged
     c_bands:  1 eigenvalues not converged
     c_bands:  1 eigenvalues not converged
     c_bands:  1 eigenvalues not converged
     c_bands:  1 eigenvalues not converged
     c_bands:  2 eigenvalues not converged
     c_bands:  1 eigenvalues not converged
     c_bands:  1 eigenvalues not converged
     c_bands:  1 eigenvalues not converged
     c_bands:  1 eigenvalues not converged
     c_bands:  1 eigenvalues not converged
     c_bands:  1 eigenvalues not converged
     c_bands:  1 eigenvalues not converged
     c_bands:  1 eigenvalues not converged
     c_bands:  1 eigenvalues not converged
     c_bands:  1 eigenvalues not converged
     c_bands:  2 eigenvalues not converged
     c_bands:  1 eigenvalues not converged
     c_bands:  1 eigenvalues not converged
     c_bands:  2 eigenvalues not converged
     c_bands:  1 eigenvalues not converged
     ethr =  1.00E-06,  avg # of iterations = 19.3

     total cpu time spent up to now is     3016.3 secs

     total energy              =    -927.48613200 Ry
     Harris-Foulkes estimate   =    -950.42980422 Ry
     estimated scf accuracy    <      11.52770274 Ry

     iteration #  2     ecut=    40.00 Ry     beta= 0.60
     Davidson diagonalization with overlap
     ethr =  1.00E-02,  avg # of iterations =  5.1

     total cpu time spent up to now is     3143.2 secs

     total energy              =    -937.53062565 Ry
     Harris-Foulkes estimate   =    -954.15400368 Ry
     estimated scf accuracy    <      52.44639226 Ry

     iteration #  3     ecut=    40.00 Ry     beta= 0.60
     Davidson diagonalization with overlap
     ethr =  1.00E-02,  avg # of iterations =  3.3

     total cpu time spent up to now is     3221.3 secs

     total energy              =    -938.65059427 Ry
     Harris-Foulkes estimate   =    -940.89811295 Ry
     estimated scf accuracy    <      11.45233999 Ry

     iteration #  4     ecut=    40.00 Ry     beta= 0.60
     Davidson diagonalization with overlap
     ethr =  1.00E-02,  avg # of iterations =  1.8

     total cpu time spent up to now is     3278.3 secs

     total energy              =    -938.41775142 Ry
     Harris-Foulkes estimate   =    -939.20988020 Ry
     estimated scf accuracy    <       8.89979867 Ry

     iteration #  5     ecut=    40.00 Ry     beta= 0.60
     Davidson diagonalization with overlap
     ethr =  8.90E-03,  avg # of iterations =  1.0

     total cpu time spent up to now is     3331.4 secs

     total energy              =    -937.87034042 Ry
     Harris-Foulkes estimate   =    -938.68113012 Ry
     estimated scf accuracy    <       5.35289100 Ry

     iteration #  6     ecut=    40.00 Ry     beta= 0.60
     Davidson diagonalization with overlap
     ethr =  5.35E-03,  avg # of iterations =  3.4

     total cpu time spent up to now is     3397.0 secs

     total energy              =    -938.07592972 Ry
     Harris-Foulkes estimate   =    -938.14671550 Ry
     estimated scf accuracy    <       1.44722443 Ry

     iteration #  7     ecut=    40.00 Ry     beta= 0.60
     Davidson diagonalization with overlap
     ethr =  1.45E-03,  avg # of iterations =  5.0

     total cpu time spent up to now is     3491.4 secs

     total energy              =    -938.35539887 Ry
     Harris-Foulkes estimate   =    -938.31161850 Ry
     estimated scf accuracy    <       0.26665273 Ry

     iteration #  8     ecut=    40.00 Ry     beta= 0.60
     Davidson diagonalization with overlap
     ethr =  2.67E-04,  avg # of iterations =  3.9

     total cpu time spent up to now is     3563.8 secs

     total energy              =    -938.42880424 Ry
     Harris-Foulkes estimate   =    -938.39720013 Ry
     estimated scf accuracy    <       0.84939387 Ry

     iteration #  9     ecut=    40.00 Ry     beta= 0.60
     Davidson diagonalization with overlap
     ethr =  2.67E-04,  avg # of iterations =  2.0

     total cpu time spent up to now is     3621.2 secs

     total energy              =    -938.39152066 Ry
     Harris-Foulkes estimate   =    -938.43676824 Ry
     estimated scf accuracy    <       1.13472704 Ry

     iteration # 10     ecut=    40.00 Ry     beta= 0.60
     Davidson diagonalization with overlap
     ethr =  2.67E-04,  avg # of iterations =  1.0

     total cpu time spent up to now is     3674.3 secs

     total energy              =    -938.11565619 Ry
     Harris-Foulkes estimate   =    -938.39410251 Ry
     estimated scf accuracy    <       1.02869476 Ry

     iteration # 11     ecut=    40.00 Ry     beta= 0.60
     Davidson diagonalization with overlap
     ethr =  2.67E-04,  avg # of iterations =  5.1

     total cpu time spent up to now is     3782.2 secs

     total energy              =    -938.23366363 Ry
     Harris-Foulkes estimate   =    -938.24657716 Ry
     estimated scf accuracy    <       0.11071246 Ry

     iteration # 12     ecut=    40.00 Ry     beta= 0.60
     Davidson diagonalization with overlap
     ethr =  1.11E-04,  avg # of iterations =  1.3

     total cpu time spent up to now is     3836.7 secs

     total energy              =    -938.23038987 Ry
     Harris-Foulkes estimate   =    -938.23774983 Ry
     estimated scf accuracy    <       0.04554384 Ry

     iteration # 13     ecut=    40.00 Ry     beta= 0.60
     Davidson diagonalization with overlap
     ethr =  4.55E-05,  avg # of iterations =  4.6

     total cpu time spent up to now is     3913.7 secs

     total energy              =    -938.23582136 Ry
     Harris-Foulkes estimate   =    -938.23688208 Ry
     estimated scf accuracy    <       0.01266243 Ry

     iteration # 14     ecut=    40.00 Ry     beta= 0.60
     Davidson diagonalization with overlap
     ethr =  1.27E-05,  avg # of iterations =  5.7

     total cpu time spent up to now is     4001.5 secs

     total energy              =    -938.23637410 Ry
     Harris-Foulkes estimate   =    -938.23752674 Ry
     estimated scf accuracy    <       0.02091568 Ry

     iteration # 15     ecut=    40.00 Ry     beta= 0.60
     Davidson diagonalization with overlap
     ethr =  1.27E-05,  avg # of iterations =  1.0

     total cpu time spent up to now is     4054.6 secs

     total energy              =    -938.23500260 Ry
     Harris-Foulkes estimate   =    -938.23679341 Ry
     estimated scf accuracy    <       0.01363376 Ry

     iteration # 16     ecut=    40.00 Ry     beta= 0.60
     Davidson diagonalization with overlap
     ethr =  1.27E-05,  avg # of iterations =  2.3

     total cpu time spent up to now is     4114.1 secs

     total energy              =    -938.23554060 Ry
     Harris-Foulkes estimate   =    -938.23573547 Ry
     estimated scf accuracy    <       0.00167516 Ry

     iteration # 17     ecut=    40.00 Ry     beta= 0.60
     Davidson diagonalization with overlap
     ethr =  1.68E-06,  avg # of iterations =  5.4

     total cpu time spent up to now is     4217.2 secs

     total energy              =    -938.23600720 Ry
     Harris-Foulkes estimate   =    -938.23604367 Ry
     estimated scf accuracy    <       0.00154226 Ry

     iteration # 18     ecut=    40.00 Ry     beta= 0.60
     Davidson diagonalization with overlap
     ethr =  1.54E-06,  avg # of iterations =  1.0

     total cpu time spent up to now is     4270.3 secs

     total energy              =    -938.23581283 Ry
     Harris-Foulkes estimate   =    -938.23602881 Ry
     estimated scf accuracy    <       0.00135901 Ry

     iteration # 19     ecut=    40.00 Ry     beta= 0.60
     Davidson diagonalization with overlap
     ethr =  1.36E-06,  avg # of iterations =  2.5

     total cpu time spent up to now is     4330.4 secs

     total energy              =    -938.23586806 Ry
     Harris-Foulkes estimate   =    -938.23589545 Ry
     estimated scf accuracy    <       0.00019366 Ry

     iteration # 20     ecut=    40.00 Ry     beta= 0.60
     Davidson diagonalization with overlap
     ethr =  1.94E-07,  avg # of iterations =  4.7

     total cpu time spent up to now is     4419.9 secs

     total energy              =    -938.23590715 Ry
     Harris-Foulkes estimate   =    -938.23592502 Ry
     estimated scf accuracy    <       0.00011978 Ry

     iteration # 21     ecut=    40.00 Ry     beta= 0.60
     Davidson diagonalization with overlap
     ethr =  1.20E-07,  avg # of iterations =  1.5

     total cpu time spent up to now is     4481.9 secs

     total energy              =    -938.23591061 Ry
     Harris-Foulkes estimate   =    -938.23591456 Ry
     estimated scf accuracy    <       0.00002298 Ry

     iteration # 22     ecut=    40.00 Ry     beta= 0.60
     Davidson diagonalization with overlap
     ethr =  2.30E-08,  avg # of iterations =  4.1

     total cpu time spent up to now is     4565.3 secs

     total energy              =    -938.23591465 Ry
     Harris-Foulkes estimate   =    -938.23591602 Ry
     estimated scf accuracy    <       0.00000725 Ry

     iteration # 23     ecut=    40.00 Ry     beta= 0.60
     Davidson diagonalization with overlap
     ethr =  7.25E-09,  avg # of iterations =  3.1

     total cpu time spent up to now is     4636.2 secs

     total energy              =    -938.23591492 Ry
     Harris-Foulkes estimate   =    -938.23591585 Ry
     estimated scf accuracy    <       0.00000609 Ry

     iteration # 24     ecut=    40.00 Ry     beta= 0.60
     Davidson diagonalization with overlap
     ethr =  6.09E-09,  avg # of iterations =  1.7

     total cpu time spent up to now is     4692.4 secs

     total energy              =    -938.23591523 Ry
     Harris-Foulkes estimate   =    -938.23591537 Ry
     estimated scf accuracy    <       0.00000098 Ry

     iteration # 25     ecut=    40.00 Ry     beta= 0.60
     Davidson diagonalization with overlap
     ethr =  9.76E-10,  avg # of iterations =  4.4

     total cpu time spent up to now is     4779.6 secs

     total energy              =    -938.23591512 Ry
     Harris-Foulkes estimate   =    -938.23591570 Ry
     estimated scf accuracy    <       0.00000511 Ry

     iteration # 26     ecut=    40.00 Ry     beta= 0.60
     Davidson diagonalization with overlap
     ethr =  9.76E-10,  avg # of iterations =  4.1

     total cpu time spent up to now is     4862.5 secs

     total energy              =    -938.23591536 Ry
     Harris-Foulkes estimate   =    -938.23591547 Ry
     estimated scf accuracy    <       0.00000075 Ry

     iteration # 27     ecut=    40.00 Ry     beta= 0.60
     Davidson diagonalization with overlap
     ethr =  7.53E-10,  avg # of iterations =  2.4

     total cpu time spent up to now is     4923.6 secs

     total energy              =    -938.23591540 Ry
     Harris-Foulkes estimate   =    -938.23591542 Ry
     estimated scf accuracy    <       0.00000018 Ry

     iteration # 28     ecut=    40.00 Ry     beta= 0.60
     Davidson diagonalization with overlap
     ethr =  1.79E-10,  avg # of iterations =  3.5

     total cpu time spent up to now is     4995.2 secs

     total energy              =    -938.23591541 Ry
     Harris-Foulkes estimate   =    -938.23591542 Ry
     estimated scf accuracy    <       0.00000003 Ry

     iteration # 29     ecut=    40.00 Ry     beta= 0.60
     Davidson diagonalization with overlap
     ethr =  2.78E-11,  avg # of iterations =  4.9

     total cpu time spent up to now is     5088.1 secs

     total energy              =    -938.23591541 Ry
     Harris-Foulkes estimate   =    -938.23591543 Ry
     estimated scf accuracy    <       0.00000011 Ry

     iteration # 30     ecut=    40.00 Ry     beta= 0.60
     Davidson diagonalization with overlap
     ethr =  2.78E-11,  avg # of iterations =  4.1

     total cpu time spent up to now is     5169.6 secs

     total energy              =    -938.23591542 Ry
     Harris-Foulkes estimate   =    -938.23591542 Ry
     estimated scf accuracy    <          9.5E-09 Ry

     iteration # 31     ecut=    40.00 Ry     beta= 0.60
     Davidson diagonalization with overlap
     ethr =  9.46E-12,  avg # of iterations =  2.2

     total cpu time spent up to now is     5229.3 secs

     total energy              =    -938.23591542 Ry
     Harris-Foulkes estimate   =    -938.23591542 Ry
     estimated scf accuracy    <          1.0E-09 Ry

     iteration # 32     ecut=    40.00 Ry     beta= 0.60
     Davidson diagonalization with overlap
     ethr =  1.04E-12,  avg # of iterations =  4.6

     total cpu time spent up to now is     5317.5 secs

     total energy              =    -938.23591542 Ry
     Harris-Foulkes estimate   =    -938.23591542 Ry
     estimated scf accuracy    <          3.4E-10 Ry

     iteration # 33     ecut=    40.00 Ry     beta= 0.60
     Davidson diagonalization with overlap
     ethr =  3.45E-13,  avg # of iterations =  2.8

     total cpu time spent up to now is     5380.4 secs

     End of self-consistent calculation

     Number of k-points >= 100: set verbosity='high' to print the bands.

     the Fermi energy is    14.9381 ev

!    total energy              =    -938.23591542 Ry
     Harris-Foulkes estimate   =    -938.23591542 Ry
     estimated scf accuracy    <          3.2E-11 Ry

     The total energy is the sum of the following terms:

     one-electron contribution =    -249.92256897 Ry
     hartree contribution      =     163.34451179 Ry
     xc contribution           =    -131.43920967 Ry
     ewald contribution        =    -720.21103372 Ry
     smearing contrib. (-TS)   =      -0.00761486 Ry

     convergence has been achieved in  33 iterations

     Forces acting on atoms (cartesian axes, Ry/au):

     atom    1 type  1   force =     0.00229967   -0.00196833   -0.00231245
     atom    2 type  2   force =     0.00176999   -0.00048584   -0.00043842
     atom    3 type  2   force =    -0.00179844    0.00048613    0.00042904
     atom    4 type  1   force =    -0.00228525    0.00196801    0.00231750
     atom    5 type  2   force =     0.00008910    0.00139424   -0.00526381
     atom    6 type  2   force =    -0.00009137   -0.00139432    0.00526318
     atom    7 type  1   force =    -0.00040394    0.00210254    0.00886221
     atom    8 type  1   force =     0.00042024   -0.00210243   -0.00885725

     Total force =     0.016176     Total SCF correction =     0.000009


     Computing stress (Cartesian axis) and pressure

          total   stress  (Ry/bohr**3)                   (kbar)     P=  -57.77
  -0.00043226  -0.00000493  -0.00000848        -63.59     -0.73     -1.25
  -0.00000493  -0.00047180   0.00000299         -0.73    -69.40      0.44
  -0.00000848   0.00000299  -0.00027416         -1.25      0.44    -40.33


     number of scf cycles    =   2
     number of bfgs steps    =   1

     enthalpy old            =    -938.1919746352 Ry
     enthalpy new            =    -938.2359154192 Ry

     CASE: enthalpy_new < enthalpy_old

     new trust radius        =       0.1353538768 bohr
     new conv_thr            =            1.0E-10 Ry

     new unit-cell volume =    957.18736 a.u.^3 (   141.84053 Ang^3 )
     density =      6.59218 g/cm^3

CELL_PARAMETERS (alat=  1.88972599)
   1.462039930   2.519850379  -4.818699667
   1.463674240  -2.522090527  -4.819390468
  -5.838866358   0.001886556   0.003842754

ATOMIC_POSITIONS (angstrom)
Nb       0.005534845  -0.002354115  -4.821458898
Ti      -1.456472764   0.840676962  -2.408939366
Ti      -2.918264575   0.000088693  -4.815199537
Nb      -4.380229508   0.843118726  -2.402664876
Ti      -2.912683058   0.001383174  -9.641307794
Ti       1.463683068   0.837140911  -7.220912850
Nb       0.005268900   0.001666095  -9.623971327
Nb      -1.454248367   0.836858887  -7.238243104


     NEW-OLD atomic charge density approx. for the potential

     Check: negative/imaginary core charge=   -0.000001    0.000000
     extrapolated charge   94.71080, renormalised to  100.00000

     total cpu time spent up to now is     5408.7 secs

     Self-consistent Calculation

     iteration #  1     ecut=    40.00 Ry     beta= 0.60
     Davidson diagonalization with overlap
     c_bands:  1 eigenvalues not converged
     c_bands:  2 eigenvalues not converged
     c_bands:  2 eigenvalues not converged
     c_bands:  2 eigenvalues not converged
     c_bands:  1 eigenvalues not converged
     c_bands:  1 eigenvalues not converged
     c_bands:  1 eigenvalues not converged
     c_bands:  1 eigenvalues not converged
     c_bands:  2 eigenvalues not converged
     c_bands:  2 eigenvalues not converged
     c_bands:  1 eigenvalues not converged
     c_bands:  2 eigenvalues not converged
     c_bands:  2 eigenvalues not converged
     c_bands:  3 eigenvalues not converged
     c_bands:  1 eigenvalues not converged
     c_bands:  1 eigenvalues not converged
     c_bands:  1 eigenvalues not converged
     c_bands:  1 eigenvalues not converged
     c_bands:  2 eigenvalues not converged
     c_bands:  2 eigenvalues not converged
     c_bands:  2 eigenvalues not converged
     c_bands:  2 eigenvalues not converged
     c_bands:  2 eigenvalues not converged
     c_bands:  1 eigenvalues not converged
     c_bands:  1 eigenvalues not converged
     c_bands:  2 eigenvalues not converged
     c_bands:  2 eigenvalues not converged
     c_bands:  2 eigenvalues not converged
     c_bands:  2 eigenvalues not converged
     c_bands:  1 eigenvalues not converged
     c_bands:  1 eigenvalues not converged
     c_bands:  1 eigenvalues not converged
     c_bands:  1 eigenvalues not converged
     c_bands:  1 eigenvalues not converged
     c_bands:  2 eigenvalues not converged
     c_bands:  1 eigenvalues not converged
     c_bands:  1 eigenvalues not converged
     c_bands:  1 eigenvalues not converged
     c_bands:  1 eigenvalues not converged
     c_bands:  1 eigenvalues not converged
     c_bands:  1 eigenvalues not converged
     c_bands:  1 eigenvalues not converged
     c_bands:  1 eigenvalues not converged
     c_bands:  1 eigenvalues not converged
     c_bands:  1 eigenvalues not converged
     c_bands:  2 eigenvalues not converged
     c_bands:  1 eigenvalues not converged
     c_bands:  1 eigenvalues not converged
     c_bands:  1 eigenvalues not converged
     c_bands:  1 eigenvalues not converged
     c_bands:  1 eigenvalues not converged
     c_bands:  1 eigenvalues not converged
     c_bands:  1 eigenvalues not converged
     c_bands:  2 eigenvalues not converged
     c_bands:  2 eigenvalues not converged
     c_bands:  1 eigenvalues not converged
     c_bands:  2 eigenvalues not converged
     c_bands:  1 eigenvalues not converged
     c_bands:  1 eigenvalues not converged
     c_bands:  2 eigenvalues not converged
     c_bands:  3 eigenvalues not converged
     c_bands:  2 eigenvalues not converged
     c_bands:  1 eigenvalues not converged
     c_bands:  1 eigenvalues not converged
     c_bands:  2 eigenvalues not converged
     c_bands:  1 eigenvalues not converged
     c_bands:  3 eigenvalues not converged
     c_bands:  1 eigenvalues not converged
     c_bands:  1 eigenvalues not converged
     c_bands:  1 eigenvalues not converged
     c_bands:  1 eigenvalues not converged
     c_bands:  2 eigenvalues not converged
     c_bands:  2 eigenvalues not converged
     c_bands:  1 eigenvalues not converged
     c_bands:  1 eigenvalues not converged
     c_bands:  1 eigenvalues not converged
     c_bands:  1 eigenvalues not converged
     c_bands:  2 eigenvalues not converged
     c_bands:  1 eigenvalues not converged
     c_bands:  1 eigenvalues not converged
     c_bands:  1 eigenvalues not converged
     c_bands:  1 eigenvalues not converged
     c_bands:  1 eigenvalues not converged
     c_bands:  1 eigenvalues not converged
     c_bands:  1 eigenvalues not converged
     c_bands:  1 eigenvalues not converged
     c_bands:  1 eigenvalues not converged
     c_bands:  2 eigenvalues not converged
     c_bands:  1 eigenvalues not converged
     c_bands:  1 eigenvalues not converged
     c_bands:  1 eigenvalues not converged
     c_bands:  2 eigenvalues not converged
     c_bands:  1 eigenvalues not converged
     c_bands:  1 eigenvalues not converged
     c_bands:  1 eigenvalues not converged
     c_bands:  1 eigenvalues not converged
     c_bands:  1 eigenvalues not converged
     c_bands:  1 eigenvalues not converged
     c_bands:  2 eigenvalues not converged
     c_bands:  1 eigenvalues not converged
     c_bands:  1 eigenvalues not converged
     c_bands:  1 eigenvalues not converged
     c_bands:  2 eigenvalues not converged
     c_bands:  1 eigenvalues not converged
     c_bands:  1 eigenvalues not converged
     c_bands:  2 eigenvalues not converged
     c_bands:  1 eigenvalues not converged
     c_bands:  1 eigenvalues not converged
     c_bands:  1 eigenvalues not converged
     c_bands:  2 eigenvalues not converged
     c_bands:  1 eigenvalues not converged
     c_bands:  1 eigenvalues not converged
     c_bands:  1 eigenvalues not converged
     c_bands:  1 eigenvalues not converged
     c_bands:  2 eigenvalues not converged
     c_bands:  4 eigenvalues not converged
     c_bands:  1 eigenvalues not converged
     c_bands:  1 eigenvalues not converged
     c_bands:  1 eigenvalues not converged
     c_bands:  1 eigenvalues not converged
     c_bands:  1 eigenvalues not converged
     c_bands:  1 eigenvalues not converged
     c_bands:  1 eigenvalues not converged
     c_bands:  2 eigenvalues not converged
     c_bands:  2 eigenvalues not converged
     c_bands:  1 eigenvalues not converged
     c_bands:  1 eigenvalues not converged
     c_bands:  1 eigenvalues not converged
     c_bands:  1 eigenvalues not converged
     c_bands:  1 eigenvalues not converged
     c_bands:  1 eigenvalues not converged
     c_bands:  1 eigenvalues not converged
     c_bands:  1 eigenvalues not converged
     c_bands:  1 eigenvalues not converged
     c_bands:  1 eigenvalues not converged
     c_bands:  1 eigenvalues not converged
     c_bands:  1 eigenvalues not converged
     c_bands:  2 eigenvalues not converged
     c_bands:  1 eigenvalues not converged
     c_bands:  2 eigenvalues not converged
     c_bands:  1 eigenvalues not converged
     c_bands:  1 eigenvalues not converged
     c_bands:  1 eigenvalues not converged
     c_bands:  1 eigenvalues not converged
     c_bands:  1 eigenvalues not converged
     c_bands:  1 eigenvalues not converged
     c_bands:  1 eigenvalues not converged
     c_bands:  1 eigenvalues not converged
     c_bands:  2 eigenvalues not converged
     c_bands:  1 eigenvalues not converged
     c_bands:  2 eigenvalues not converged
     c_bands:  1 eigenvalues not converged
     c_bands:  1 eigenvalues not converged
     c_bands:  2 eigenvalues not converged
     c_bands:  1 eigenvalues not converged
     c_bands:  1 eigenvalues not converged
     c_bands:  1 eigenvalues not converged
     c_bands:  1 eigenvalues not converged
     c_bands:  2 eigenvalues not converged
     c_bands:  1 eigenvalues not converged
     c_bands:  1 eigenvalues not converged
     c_bands:  1 eigenvalues not converged
     c_bands:  1 eigenvalues not converged
     c_bands:  2 eigenvalues not converged
     c_bands:  2 eigenvalues not converged
     c_bands:  1 eigenvalues not converged
     c_bands:  1 eigenvalues not converged
     c_bands:  2 eigenvalues not converged
     c_bands:  1 eigenvalues not converged
     c_bands:  1 eigenvalues not converged
     c_bands:  1 eigenvalues not converged
     c_bands:  2 eigenvalues not converged
     c_bands:  1 eigenvalues not converged
     c_bands:  2 eigenvalues not converged
     c_bands:  2 eigenvalues not converged
     c_bands:  1 eigenvalues not converged
     c_bands:  2 eigenvalues not converged
     c_bands:  1 eigenvalues not converged
     c_bands:  1 eigenvalues not converged
     c_bands:  1 eigenvalues not converged
     c_bands:  1 eigenvalues not converged
     c_bands:  1 eigenvalues not converged
     c_bands:  1 eigenvalues not converged
     c_bands:  1 eigenvalues not converged
     c_bands:  1 eigenvalues not converged
     c_bands:  1 eigenvalues not converged
     c_bands:  1 eigenvalues not converged
     c_bands:  1 eigenvalues not converged
     c_bands:  2 eigenvalues not converged
     c_bands:  2 eigenvalues not converged
     c_bands:  1 eigenvalues not converged
     c_bands:  2 eigenvalues not converged
     c_bands:  1 eigenvalues not converged
     c_bands:  1 eigenvalues not converged
     c_bands:  1 eigenvalues not converged
     c_bands:  1 eigenvalues not converged
     c_bands:  1 eigenvalues not converged
     c_bands:  2 eigenvalues not converged
     c_bands:  3 eigenvalues not converged
     c_bands:  1 eigenvalues not converged
     c_bands:  1 eigenvalues not converged
     c_bands:  1 eigenvalues not converged
     c_bands:  2 eigenvalues not converged
     c_bands:  2 eigenvalues not converged
     c_bands:  1 eigenvalues not converged
     c_bands:  2 eigenvalues not converged
     c_bands:  2 eigenvalues not converged
     c_bands:  1 eigenvalues not converged
     c_bands:  3 eigenvalues not converged
     c_bands:  1 eigenvalues not converged
     c_bands:  1 eigenvalues not converged
     c_bands:  1 eigenvalues not converged
     c_bands:  1 eigenvalues not converged
     c_bands:  1 eigenvalues not converged
     c_bands:  1 eigenvalues not converged
     c_bands:  1 eigenvalues not converged
     c_bands:  1 eigenvalues not converged
     c_bands:  2 eigenvalues not converged
     c_bands:  1 eigenvalues not converged
     c_bands:  1 eigenvalues not converged
     c_bands:  1 eigenvalues not converged
     c_bands:  1 eigenvalues not converged
     c_bands:  1 eigenvalues not converged
     c_bands:  1 eigenvalues not converged
     c_bands:  1 eigenvalues not converged
     c_bands:  1 eigenvalues not converged
     c_bands:  1 eigenvalues not converged
     c_bands:  1 eigenvalues not converged
     c_bands:  1 eigenvalues not converged
     c_bands:  1 eigenvalues not converged
     c_bands:  1 eigenvalues not converged
     c_bands:  1 eigenvalues not converged
     c_bands:  2 eigenvalues not converged
     c_bands:  2 eigenvalues not converged
     c_bands:  2 eigenvalues not converged
     c_bands:  1 eigenvalues not converged
     c_bands:  1 eigenvalues not converged
     c_bands:  1 eigenvalues not converged
     c_bands:  2 eigenvalues not converged
     c_bands:  2 eigenvalues not converged
     c_bands:  1 eigenvalues not converged
     c_bands:  1 eigenvalues not converged
     c_bands:  1 eigenvalues not converged
     c_bands:  1 eigenvalues not converged
     c_bands:  1 eigenvalues not converged
     c_bands:  1 eigenvalues not converged
     c_bands:  1 eigenvalues not converged
     c_bands:  1 eigenvalues not converged
     c_bands:  1 eigenvalues not converged
     c_bands:  2 eigenvalues not converged
     c_bands:  1 eigenvalues not converged
     c_bands:  1 eigenvalues not converged
     c_bands:  3 eigenvalues not converged
     c_bands:  4 eigenvalues not converged
     c_bands:  2 eigenvalues not converged
     c_bands:  1 eigenvalues not converged
     c_bands:  1 eigenvalues not converged
     c_bands:  1 eigenvalues not converged
     c_bands:  1 eigenvalues not converged
     c_bands:  1 eigenvalues not converged
     c_bands:  1 eigenvalues not converged
     c_bands:  1 eigenvalues not converged
     c_bands:  1 eigenvalues not converged
     c_bands:  1 eigenvalues not converged
     c_bands:  2 eigenvalues not converged
     c_bands:  1 eigenvalues not converged
     c_bands:  1 eigenvalues not converged
     c_bands:  1 eigenvalues not converged
     c_bands:  1 eigenvalues not converged
     c_bands:  1 eigenvalues not converged
     c_bands:  2 eigenvalues not converged
     c_bands:  1 eigenvalues not converged
     c_bands:  1 eigenvalues not converged
     c_bands:  2 eigenvalues not converged
     c_bands:  1 eigenvalues not converged
     c_bands:  1 eigenvalues not converged
     c_bands:  2 eigenvalues not converged
     c_bands:  1 eigenvalues not converged
     c_bands:  1 eigenvalues not converged
     c_bands:  2 eigenvalues not converged
     c_bands:  1 eigenvalues not converged
     c_bands:  1 eigenvalues not converged
     ethr =  1.00E-06,  avg # of iterations = 18.7

     total cpu time spent up to now is     5682.8 secs

     total energy              =    -933.25814579 Ry
     Harris-Foulkes estimate   =    -947.40981216 Ry
     estimated scf accuracy    <       5.16616009 Ry

     iteration #  2     ecut=    40.00 Ry     beta= 0.60
     Davidson diagonalization with overlap
     ethr =  5.17E-03,  avg # of iterations =  5.2

     total cpu time spent up to now is     5812.1 secs

     total energy              =    -937.33683926 Ry
     Harris-Foulkes estimate   =    -946.35078055 Ry
     estimated scf accuracy    <      31.67518632 Ry

     iteration #  3     ecut=    40.00 Ry     beta= 0.60
     Davidson diagonalization with overlap
     ethr =  5.17E-03,  avg # of iterations =  5.0

     total cpu time spent up to now is     5907.6 secs

     total energy              =    -938.41651212 Ry
     Harris-Foulkes estimate   =    -939.44079630 Ry
     estimated scf accuracy    <       5.17608514 Ry

     iteration #  4     ecut=    40.00 Ry     beta= 0.60
     Davidson diagonalization with overlap
     ethr =  5.17E-03,  avg # of iterations =  1.3

     total cpu time spent up to now is     5962.1 secs

     total energy              =    -938.29005328 Ry
     Harris-Foulkes estimate   =    -938.69110460 Ry
     estimated scf accuracy    <       3.97459085 Ry

     iteration #  5     ecut=    40.00 Ry     beta= 0.60
     Davidson diagonalization with overlap
     ethr =  3.97E-03,  avg # of iterations =  1.3

     total cpu time spent up to now is     6016.4 secs

     total energy              =    -938.19269926 Ry
     Harris-Foulkes estimate   =    -938.41885771 Ry
     estimated scf accuracy    <       2.27602512 Ry

     iteration #  6     ecut=    40.00 Ry     beta= 0.60
     Davidson diagonalization with overlap
     ethr =  2.28E-03,  avg # of iterations =  2.4

     total cpu time spent up to now is     6075.6 secs

     total energy              =    -938.14723031 Ry
     Harris-Foulkes estimate   =    -938.25741824 Ry
     estimated scf accuracy    <       1.10580520 Ry

     iteration #  7     ecut=    40.00 Ry     beta= 0.60
     Davidson diagonalization with overlap
     ethr =  1.11E-03,  avg # of iterations =  4.8

     total cpu time spent up to now is     6160.7 secs

     total energy              =    -938.28703782 Ry
     Harris-Foulkes estimate   =    -938.27477451 Ry
     estimated scf accuracy    <       0.14395749 Ry

     iteration #  8     ecut=    40.00 Ry     beta= 0.60
     Davidson diagonalization with overlap
     ethr =  1.44E-04,  avg # of iterations =  4.8

     total cpu time spent up to now is     6239.0 secs

     total energy              =    -938.31551355 Ry
     Harris-Foulkes estimate   =    -938.30254702 Ry
     estimated scf accuracy    <       0.26963840 Ry

     iteration #  9     ecut=    40.00 Ry     beta= 0.60
     Davidson diagonalization with overlap
     ethr =  1.44E-04,  avg # of iterations =  1.9

     total cpu time spent up to now is     6296.4 secs

     total energy              =    -938.29637709 Ry
     Harris-Foulkes estimate   =    -938.32043118 Ry
     estimated scf accuracy    <       0.42343189 Ry

     iteration # 10     ecut=    40.00 Ry     beta= 0.60
     Davidson diagonalization with overlap
     ethr =  1.44E-04,  avg # of iterations =  1.0

     total cpu time spent up to now is     6349.4 secs

     total energy              =    -938.21175014 Ry
     Harris-Foulkes estimate   =    -938.29808622 Ry
     estimated scf accuracy    <       0.33941441 Ry

     iteration # 11     ecut=    40.00 Ry     beta= 0.60
     Davidson diagonalization with overlap
     ethr =  1.44E-04,  avg # of iterations =  4.4

     total cpu time spent up to now is     6437.3 secs

     total energy              =    -938.24789404 Ry
     Harris-Foulkes estimate   =    -938.24763889 Ry
     estimated scf accuracy    <       0.03402275 Ry

     iteration # 12     ecut=    40.00 Ry     beta= 0.60
     Davidson diagonalization with overlap
     ethr =  3.40E-05,  avg # of iterations =  4.0

     total cpu time spent up to now is     6505.3 secs

     total energy              =    -938.24562182 Ry
     Harris-Foulkes estimate   =    -938.24930405 Ry
     estimated scf accuracy    <       0.04226083 Ry

     iteration # 13     ecut=    40.00 Ry     beta= 0.60
     Davidson diagonalization with overlap
     ethr =  3.40E-05,  avg # of iterations =  1.0

     total cpu time spent up to now is     6558.5 secs

     total energy              =    -938.24472725 Ry
     Harris-Foulkes estimate   =    -938.24673070 Ry
     estimated scf accuracy    <       0.01817927 Ry

     iteration # 14     ecut=    40.00 Ry     beta= 0.60
     Davidson diagonalization with overlap
     ethr =  1.82E-05,  avg # of iterations =  5.2

     total cpu time spent up to now is     6636.3 secs

     total energy              =    -938.24580852 Ry
     Harris-Foulkes estimate   =    -938.24596584 Ry
     estimated scf accuracy    <       0.00161573 Ry

     iteration # 15     ecut=    40.00 Ry     beta= 0.60
     Davidson diagonalization with overlap
     c_bands:  1 eigenvalues not converged
     ethr =  1.62E-06,  avg # of iterations =  6.7

     total cpu time spent up to now is     6745.4 secs

     total energy              =    -938.24602048 Ry
     Harris-Foulkes estimate   =    -938.24609219 Ry
     estimated scf accuracy    <       0.00026451 Ry

     iteration # 16     ecut=    40.00 Ry     beta= 0.60
     Davidson diagonalization with overlap
     ethr =  2.65E-07,  avg # of iterations =  4.7

     total cpu time spent up to now is     6833.9 secs

     total energy              =    -938.24601005 Ry
     Harris-Foulkes estimate   =    -938.24613289 Ry
     estimated scf accuracy    <       0.00079974 Ry

     iteration # 17     ecut=    40.00 Ry     beta= 0.60
     Davidson diagonalization with overlap
     ethr =  2.65E-07,  avg # of iterations =  4.1

     total cpu time spent up to now is     6917.8 secs

     total energy              =    -938.24610036 Ry
     Harris-Foulkes estimate   =    -938.24610383 Ry
     estimated scf accuracy    <       0.00039776 Ry

     iteration # 18     ecut=    40.00 Ry     beta= 0.60
     Davidson diagonalization with overlap
     ethr =  2.65E-07,  avg # of iterations =  1.0

     total cpu time spent up to now is     6970.9 secs

     total energy              =    -938.24599699 Ry
     Harris-Foulkes estimate   =    -938.24610998 Ry
     estimated scf accuracy    <       0.00042202 Ry

     iteration # 19     ecut=    40.00 Ry     beta= 0.60
     Davidson diagonalization with overlap
     ethr =  2.65E-07,  avg # of iterations =  4.0

     total cpu time spent up to now is     7053.1 secs

     total energy              =    -938.24605168 Ry
     Harris-Foulkes estimate   =    -938.24608309 Ry
     estimated scf accuracy    <       0.00026863 Ry

     iteration # 20     ecut=    40.00 Ry     beta= 0.60
     Davidson diagonalization with overlap
     ethr =  2.65E-07,  avg # of iterations =  1.0

     total cpu time spent up to now is     7106.2 secs

     total energy              =    -938.24605602 Ry
     Harris-Foulkes estimate   =    -938.24606265 Ry
     estimated scf accuracy    <       0.00004934 Ry

     iteration # 21     ecut=    40.00 Ry     beta= 0.60
     Davidson diagonalization with overlap
     ethr =  4.93E-08,  avg # of iterations =  4.0

     total cpu time spent up to now is     7186.0 secs

     total energy              =    -938.24606352 Ry
     Harris-Foulkes estimate   =    -938.24606678 Ry
     estimated scf accuracy    <       0.00002296 Ry

     iteration # 22     ecut=    40.00 Ry     beta= 0.60
     Davidson diagonalization with overlap
     ethr =  2.30E-08,  avg # of iterations =  1.7

     total cpu time spent up to now is     7243.6 secs

     total energy              =    -938.24606383 Ry
     Harris-Foulkes estimate   =    -938.24606507 Ry
     estimated scf accuracy    <       0.00000585 Ry

     iteration # 23     ecut=    40.00 Ry     beta= 0.60
     Davidson diagonalization with overlap
     ethr =  5.85E-09,  avg # of iterations =  4.1

     total cpu time spent up to now is     7328.5 secs

     total energy              =    -938.24606314 Ry
     Harris-Foulkes estimate   =    -938.24606678 Ry
     estimated scf accuracy    <       0.00002425 Ry

     iteration # 24     ecut=    40.00 Ry     beta= 0.60
     Davidson diagonalization with overlap
     ethr =  5.85E-09,  avg # of iterations =  4.0

     total cpu time spent up to now is     7410.4 secs

     total energy              =    -938.24606474 Ry
     Harris-Foulkes estimate   =    -938.24606505 Ry
     estimated scf accuracy    <       0.00000240 Ry

     iteration # 25     ecut=    40.00 Ry     beta= 0.60
     Davidson diagonalization with overlap
     ethr =  2.40E-09,  avg # of iterations =  1.0

     total cpu time spent up to now is     7463.5 secs

     total energy              =    -938.24606481 Ry
     Harris-Foulkes estimate   =    -938.24606487 Ry
     estimated scf accuracy    <       0.00000036 Ry

     iteration # 26     ecut=    40.00 Ry     beta= 0.60
     Davidson diagonalization with overlap
     ethr =  3.62E-10,  avg # of iterations =  4.3

     total cpu time spent up to now is     7549.2 secs

     total energy              =    -938.24606488 Ry
     Harris-Foulkes estimate   =    -938.24606490 Ry
     estimated scf accuracy    <       0.00000014 Ry

     iteration # 27     ecut=    40.00 Ry     beta= 0.60
     Davidson diagonalization with overlap
     ethr =  1.39E-10,  avg # of iterations =  2.1

     total cpu time spent up to now is     7607.0 secs

     total energy              =    -938.24606489 Ry
     Harris-Foulkes estimate   =    -938.24606489 Ry
     estimated scf accuracy    <       0.00000004 Ry

     iteration # 28     ecut=    40.00 Ry     beta= 0.60
     Davidson diagonalization with overlap
     ethr =  3.85E-11,  avg # of iterations =  3.9

     total cpu time spent up to now is     7684.1 secs

     total energy              =    -938.24606489 Ry
     Harris-Foulkes estimate   =    -938.24606489 Ry
     estimated scf accuracy    <          7.6E-09 Ry

     iteration # 29     ecut=    40.00 Ry     beta= 0.60
     Davidson diagonalization with overlap
     ethr =  7.61E-12,  avg # of iterations =  4.0

     total cpu time spent up to now is     7764.0 secs

     total energy              =    -938.24606489 Ry
     Harris-Foulkes estimate   =    -938.24606489 Ry
     estimated scf accuracy    <          7.3E-09 Ry

     iteration # 30     ecut=    40.00 Ry     beta= 0.60
     Davidson diagonalization with overlap
     ethr =  7.32E-12,  avg # of iterations =  2.8

     total cpu time spent up to now is     7826.3 secs

     total energy              =    -938.24606489 Ry
     Harris-Foulkes estimate   =    -938.24606489 Ry
     estimated scf accuracy    <          1.7E-09 Ry

     iteration # 31     ecut=    40.00 Ry     beta= 0.60
     Davidson diagonalization with overlap
     ethr =  1.73E-12,  avg # of iterations =  4.3

     total cpu time spent up to now is     7911.4 secs

     total energy              =    -938.24606489 Ry
     Harris-Foulkes estimate   =    -938.24606489 Ry
     estimated scf accuracy    <          6.3E-09 Ry

     iteration # 32     ecut=    40.00 Ry     beta= 0.60
     Davidson diagonalization with overlap
     ethr =  1.73E-12,  avg # of iterations =  4.0

     total cpu time spent up to now is     7988.9 secs

     total energy              =    -938.24606489 Ry
     Harris-Foulkes estimate   =    -938.24606489 Ry
     estimated scf accuracy    <          1.9E-10 Ry

     iteration # 33     ecut=    40.00 Ry     beta= 0.60
     Davidson diagonalization with overlap
     ethr =  1.95E-13,  avg # of iterations =  3.7

     total cpu time spent up to now is     8063.7 secs

     End of self-consistent calculation

     Number of k-points >= 100: set verbosity='high' to print the bands.

     the Fermi energy is    15.8935 ev

!    total energy              =    -938.24606489 Ry
     Harris-Foulkes estimate   =    -938.24606489 Ry
     estimated scf accuracy    <          6.7E-11 Ry

     The total energy is the sum of the following terms:

     one-electron contribution =    -231.05141136 Ry
     hartree contribution      =     157.85361659 Ry
     xc contribution           =    -131.83695614 Ry
     ewald contribution        =    -733.20477856 Ry
     smearing contrib. (-TS)   =      -0.00653543 Ry

     convergence has been achieved in  33 iterations

     Forces acting on atoms (cartesian axes, Ry/au):

     atom    1 type  1   force =     0.00326956   -0.00391962   -0.00195635
     atom    2 type  2   force =     0.00210764   -0.00296473    0.00081999
     atom    3 type  2   force =    -0.00212906    0.00296484   -0.00082647
     atom    4 type  1   force =    -0.00325686    0.00391984    0.00196058
     atom    5 type  2   force =    -0.00078529    0.00161566   -0.00531028
     atom    6 type  2   force =     0.00078019   -0.00161586    0.00530844
     atom    7 type  1   force =     0.00077471    0.00158569    0.00757904
     atom    8 type  1   force =    -0.00076089   -0.00158582   -0.00757495

     Total force =     0.016476     Total SCF correction =     0.000013


     Computing stress (Cartesian axis) and pressure

          total   stress  (Ry/bohr**3)                   (kbar)     P=   12.15
   0.00003847  -0.00000491  -0.00000686          5.66     -0.72     -1.01
  -0.00000491   0.00000416   0.00000576         -0.72      0.61      0.85
  -0.00000686   0.00000576   0.00020513         -1.01      0.85     30.18


     number of scf cycles    =   3
     number of bfgs steps    =   2

     enthalpy old            =    -938.2359154192 Ry
     enthalpy new            =    -938.2460648942 Ry

     CASE: enthalpy_new < enthalpy_old

     new trust radius        =       0.0274695748 bohr
     new conv_thr            =            1.0E-10 Ry

     new unit-cell volume =    962.95499 a.u.^3 (   142.69521 Ang^3 )
     density =      6.55270 g/cm^3

CELL_PARAMETERS (alat=  1.88972599)
   1.464098234   2.520266524  -4.839969352
   1.466235317  -2.523921043  -4.841261950
  -5.845504387   0.002466378   0.004634458

ATOMIC_POSITIONS (angstrom)
Nb       0.007543717  -0.004546886  -4.843666476
Ti      -1.457022402   0.839662687  -2.418965176
Ti      -2.921810480   0.001068985  -4.836541276
Nb      -4.386320294   0.845277559  -2.411820448
Ti      -2.915034839   0.001209104  -9.685918652
Ti       1.466565015   0.835866484  -7.250808875
Nb       0.006899352   0.001181430  -9.663505538
Nb      -1.455340928   0.835895088  -7.273213281


     NEW-OLD atomic charge density approx. for the potential

     Check: negative/imaginary core charge=   -0.000001    0.000000
     extrapolated charge  100.57493, renormalised to  100.00000

     total cpu time spent up to now is     8091.3 secs

     Self-consistent Calculation

     iteration #  1     ecut=    40.00 Ry     beta= 0.60
     Davidson diagonalization with overlap
     c_bands:  1 eigenvalues not converged
     c_bands:  2 eigenvalues not converged
     c_bands:  1 eigenvalues not converged
     c_bands:  1 eigenvalues not converged
     c_bands:  1 eigenvalues not converged
     c_bands:  1 eigenvalues not converged
     c_bands:  1 eigenvalues not converged
     c_bands:  1 eigenvalues not converged
     c_bands:  1 eigenvalues not converged
     c_bands:  1 eigenvalues not converged
     ethr =  1.00E-06,  avg # of iterations =  7.5

     total cpu time spent up to now is     8236.5 secs

     total energy              =    -938.22461208 Ry
     Harris-Foulkes estimate   =    -937.29351317 Ry
     estimated scf accuracy    <       0.01957263 Ry

     iteration #  2     ecut=    40.00 Ry     beta= 0.60
     Davidson diagonalization with overlap
     c_bands:  1 eigenvalues not converged
     c_bands:  1 eigenvalues not converged
     c_bands:  1 eigenvalues not converged
     ethr =  1.96E-05,  avg # of iterations =  5.8

     total cpu time spent up to now is     8362.8 secs

     total energy              =    -938.21320144 Ry
     Harris-Foulkes estimate   =    -938.29452100 Ry
     estimated scf accuracy    <       0.53704317 Ry

     iteration #  3     ecut=    40.00 Ry     beta= 0.60
     Davidson diagonalization with overlap
     ethr =  1.96E-05,  avg # of iterations =  5.0

     total cpu time spent up to now is     8473.2 secs

     total energy              =    -938.24663052 Ry
     Harris-Foulkes estimate   =    -938.25101042 Ry
     estimated scf accuracy    <       0.01258092 Ry

     iteration #  4     ecut=    40.00 Ry     beta= 0.60
     Davidson diagonalization with overlap
     ethr =  1.26E-05,  avg # of iterations =  3.0

     total cpu time spent up to now is     8541.8 secs

     total energy              =    -938.24761210 Ry
     Harris-Foulkes estimate   =    -938.24853561 Ry
     estimated scf accuracy    <       0.00964998 Ry

     iteration #  5     ecut=    40.00 Ry     beta= 0.60
     Davidson diagonalization with overlap
     ethr =  9.65E-06,  avg # of iterations =  1.0

     total cpu time spent up to now is     8594.7 secs

     total energy              =    -938.24732719 Ry
     Harris-Foulkes estimate   =    -938.24793178 Ry
     estimated scf accuracy    <       0.00566625 Ry

     iteration #  6     ecut=    40.00 Ry     beta= 0.60
     Davidson diagonalization with overlap
     ethr =  5.67E-06,  avg # of iterations =  1.0

     total cpu time spent up to now is     8647.7 secs

     total energy              =    -938.24718413 Ry
     Harris-Foulkes estimate   =    -938.24741757 Ry
     estimated scf accuracy    <       0.00331827 Ry

     iteration #  7     ecut=    40.00 Ry     beta= 0.60
     Davidson diagonalization with overlap
[...]
     Harris-Foulkes estimate   =    -938.31450140 Ry
     estimated scf accuracy    <       0.00000066 Ry

     iteration # 15     ecut=    40.00 Ry     beta= 0.60
     Davidson diagonalization with overlap
     ethr =  6.57E-10,  avg # of iterations =  4.0

     total cpu time spent up to now is    91958.4 secs

     total energy              =    -938.31450127 Ry
     Harris-Foulkes estimate   =    -938.31450144 Ry
     estimated scf accuracy    <       0.00000118 Ry

     iteration # 16     ecut=    40.00 Ry     beta= 0.60
     Davidson diagonalization with overlap
     ethr =  6.57E-10,  avg # of iterations =  3.5

     total cpu time spent up to now is    92029.3 secs

     total energy              =    -938.31450132 Ry
     Harris-Foulkes estimate   =    -938.31450140 Ry
     estimated scf accuracy    <       0.00000050 Ry

     iteration # 17     ecut=    40.00 Ry     beta= 0.60
     Davidson diagonalization with overlap
     ethr =  5.01E-10,  avg # of iterations =  1.6

     total cpu time spent up to now is    92085.0 secs

     total energy              =    -938.31450134 Ry
     Harris-Foulkes estimate   =    -938.31450137 Ry
     estimated scf accuracy    <       0.00000018 Ry

     iteration # 18     ecut=    40.00 Ry     beta= 0.60
     Davidson diagonalization with overlap
     ethr =  1.79E-10,  avg # of iterations =  3.0

     total cpu time spent up to now is    92154.1 secs

     total energy              =    -938.31450136 Ry
     Harris-Foulkes estimate   =    -938.31450136 Ry
     estimated scf accuracy    <       0.00000002 Ry

     iteration # 19     ecut=    40.00 Ry     beta= 0.60
     Davidson diagonalization with overlap
     ethr =  1.70E-11,  avg # of iterations =  4.1

     total cpu time spent up to now is    92241.9 secs

     total energy              =    -938.31450136 Ry
     Harris-Foulkes estimate   =    -938.31450137 Ry
     estimated scf accuracy    <       0.00000006 Ry

     iteration # 20     ecut=    40.00 Ry     beta= 0.60
     Davidson diagonalization with overlap
     ethr =  1.70E-11,  avg # of iterations =  3.8

     total cpu time spent up to now is    92328.3 secs

     total energy              =    -938.31450136 Ry
     Harris-Foulkes estimate   =    -938.31450136 Ry
     estimated scf accuracy    <          5.5E-09 Ry

     iteration # 21     ecut=    40.00 Ry     beta= 0.60
     Davidson diagonalization with overlap
     ethr =  5.45E-12,  avg # of iterations =  3.6

     total cpu time spent up to now is    92399.1 secs

     total energy              =    -938.31450136 Ry
     Harris-Foulkes estimate   =    -938.31450136 Ry
     estimated scf accuracy    <          3.9E-09 Ry

     iteration # 22     ecut=    40.00 Ry     beta= 0.60
     Davidson diagonalization with overlap
     ethr =  3.93E-12,  avg # of iterations =  1.0

     total cpu time spent up to now is    92452.4 secs

     total energy              =    -938.31450136 Ry
     Harris-Foulkes estimate   =    -938.31450136 Ry
     estimated scf accuracy    <          4.2E-10 Ry

     iteration # 23     ecut=    40.00 Ry     beta= 0.60
     Davidson diagonalization with overlap
     ethr =  4.24E-13,  avg # of iterations =  4.2

     total cpu time spent up to now is    92535.9 secs

     total energy              =    -938.31450136 Ry
     Harris-Foulkes estimate   =    -938.31450136 Ry
     estimated scf accuracy    <          2.4E-10 Ry

     iteration # 24     ecut=    40.00 Ry     beta= 0.60
     Davidson diagonalization with overlap
     ethr =  2.39E-13,  avg # of iterations =  1.8

     total cpu time spent up to now is    92592.4 secs

     total energy              =    -938.31450136 Ry
     Harris-Foulkes estimate   =    -938.31450136 Ry
     estimated scf accuracy    <          1.4E-10 Ry

     iteration # 25     ecut=    40.00 Ry     beta= 0.60
     Davidson diagonalization with overlap
     ethr =  1.38E-13,  avg # of iterations =  2.6

     total cpu time spent up to now is    92653.7 secs

     End of self-consistent calculation

     Number of k-points >= 100: set verbosity='high' to print the bands.

     the Fermi energy is    15.7523 ev

!    total energy              =    -938.31450136 Ry
     Harris-Foulkes estimate   =    -938.31450136 Ry
     estimated scf accuracy    <          3.2E-11 Ry

     The total energy is the sum of the following terms:

     one-electron contribution =    -228.54086061 Ry
     hartree contribution      =     157.34392211 Ry
     xc contribution           =    -131.95312273 Ry
     ewald contribution        =    -735.16315198 Ry
     smearing contrib. (-TS)   =      -0.00128814 Ry

     convergence has been achieved in  25 iterations

     Forces acting on atoms (cartesian axes, Ry/au):

     atom    1 type  1   force =    -0.00115071    0.00158796    0.00197842
     atom    2 type  2   force =     0.00098273   -0.00418622    0.00798743
     atom    3 type  2   force =    -0.00098194    0.00421363   -0.00794234
     atom    4 type  1   force =     0.00127727   -0.00159727   -0.00209723
     atom    5 type  2   force =     0.00115959    0.00292225   -0.00486901
     atom    6 type  2   force =    -0.00128455   -0.00289205    0.00489987
     atom    7 type  1   force =     0.00356617   -0.00369224    0.00912895
     atom    8 type  1   force =    -0.00356857    0.00364394   -0.00908609

     Total force =     0.021594     Total SCF correction =     0.000020


     Computing stress (Cartesian axis) and pressure

          total   stress  (Ry/bohr**3)                   (kbar)     P=    0.59
   0.00002803  -0.00004548  -0.00005229          4.12     -6.69     -7.69
  -0.00004548  -0.00002191  -0.00001211         -6.69     -3.22     -1.78
  -0.00005229  -0.00001211   0.00000593         -7.69     -1.78      0.87


     number of scf cycles    =  49
     number of bfgs steps    =  48

     enthalpy old            =    -938.3118364267 Ry
     enthalpy new            =    -938.3145013637 Ry

     CASE: enthalpy_new < enthalpy_old

     new trust radius        =       0.0850815375 bohr
     new conv_thr            =            1.0E-10 Ry

     new unit-cell volume =    945.51657 a.u.^3 (   140.11110 Ang^3 )
     density =      6.67355 g/cm^3

CELL_PARAMETERS (alat=  1.88972599)
   1.595835867   2.321716923  -4.608274570
   1.560162895  -2.337856815  -4.608887712
  -6.485435432  -0.073483018  -0.116266744

ATOMIC_POSITIONS (angstrom)
Nb      -0.098339256   0.307895246  -4.670328663
Ti      -1.670084497   0.414311561  -2.363638413
Ti      -3.252785712   0.267437164  -4.680236439
Nb      -4.825870321   0.374127821  -2.373369416
Ti      -3.346340817   0.194911980  -9.387978056
Ti       1.580121292   0.470493124  -6.872355629
Nb      -0.080171351   0.336161725  -9.220866249
Nb      -1.687206531   0.329667794  -7.039830013


     NEW-OLD atomic charge density approx. for the potential
     extrapolated charge   99.81497, renormalised to  100.00000

     total cpu time spent up to now is    92681.7 secs

     Self-consistent Calculation

     iteration #  1     ecut=    40.00 Ry     beta= 0.60
     Davidson diagonalization with overlap
     c_bands:  1 eigenvalues not converged
     c_bands:  1 eigenvalues not converged
     c_bands:  1 eigenvalues not converged
     c_bands:  1 eigenvalues not converged
     c_bands:  1 eigenvalues not converged
     c_bands:  1 eigenvalues not converged
     ethr =  1.00E-06,  avg # of iterations = 12.8

     total cpu time spent up to now is    92963.7 secs

     total energy              =    -938.28926687 Ry
     Harris-Foulkes estimate   =    -938.62494522 Ry
     estimated scf accuracy    <       0.04147645 Ry

     iteration #  2     ecut=    40.00 Ry     beta= 0.60
     Davidson diagonalization with overlap
     ethr =  4.15E-05,  avg # of iterations =  5.6

     total cpu time spent up to now is    93103.7 secs

     total energy              =    -938.19855260 Ry
     Harris-Foulkes estimate   =    -938.43306928 Ry
     estimated scf accuracy    <       1.79718372 Ry

     iteration #  3     ecut=    40.00 Ry     beta= 0.60
     Davidson diagonalization with overlap
     ethr =  4.15E-05,  avg # of iterations =  5.8

     total cpu time spent up to now is    93233.8 secs

     total energy              =    -938.30743219 Ry
     Harris-Foulkes estimate   =    -938.32499165 Ry
     estimated scf accuracy    <       0.08810140 Ry

     iteration #  4     ecut=    40.00 Ry     beta= 0.60
     Davidson diagonalization with overlap
     ethr =  4.15E-05,  avg # of iterations =  4.4

     total cpu time spent up to now is    93329.2 secs

     total energy              =    -938.31455799 Ry
     Harris-Foulkes estimate   =    -938.31856783 Ry
     estimated scf accuracy    <       0.01724455 Ry

     iteration #  5     ecut=    40.00 Ry     beta= 0.60
     Davidson diagonalization with overlap
     ethr =  1.72E-05,  avg # of iterations =  2.9

     total cpu time spent up to now is    93410.2 secs

     total energy              =    -938.31631051 Ry
     Harris-Foulkes estimate   =    -938.31688073 Ry
     estimated scf accuracy    <       0.00242842 Ry

     iteration #  6     ecut=    40.00 Ry     beta= 0.60
     Davidson diagonalization with overlap
     ethr =  2.43E-06,  avg # of iterations =  6.4

     total cpu time spent up to now is    93526.2 secs

     total energy              =    -938.31669835 Ry
     Harris-Foulkes estimate   =    -938.31687798 Ry
     estimated scf accuracy    <       0.00075793 Ry

     iteration #  7     ecut=    40.00 Ry     beta= 0.60
     Davidson diagonalization with overlap
     ethr =  7.58E-07,  avg # of iterations =  3.9

     total cpu time spent up to now is    93618.9 secs

     total energy              =    -938.31664042 Ry
     Harris-Foulkes estimate   =    -938.31687822 Ry
     estimated scf accuracy    <       0.00138868 Ry

     iteration #  8     ecut=    40.00 Ry     beta= 0.60
     Davidson diagonalization with overlap
     ethr =  7.58E-07,  avg # of iterations =  3.9

     total cpu time spent up to now is    93696.2 secs

     total energy              =    -938.31675922 Ry
     Harris-Foulkes estimate   =    -938.31683842 Ry
     estimated scf accuracy    <       0.00062318 Ry

     iteration #  9     ecut=    40.00 Ry     beta= 0.60
     Davidson diagonalization with overlap
     ethr =  6.23E-07,  avg # of iterations =  1.0

     total cpu time spent up to now is    93751.4 secs

     total energy              =    -938.31679308 Ry
     Harris-Foulkes estimate   =    -938.31679822 Ry
     estimated scf accuracy    <       0.00002516 Ry

     iteration # 10     ecut=    40.00 Ry     beta= 0.60
     Davidson diagonalization with overlap
     ethr =  2.52E-08,  avg # of iterations =  4.9

     total cpu time spent up to now is    93847.2 secs

     total energy              =    -938.31680095 Ry
     Harris-Foulkes estimate   =    -938.31680654 Ry
     estimated scf accuracy    <       0.00003681 Ry

     iteration # 11     ecut=    40.00 Ry     beta= 0.60
     Davidson diagonalization with overlap
     ethr =  2.52E-08,  avg # of iterations =  3.7

     total cpu time spent up to now is    93921.4 secs

     total energy              =    -938.31680209 Ry
     Harris-Foulkes estimate   =    -938.31680482 Ry
     estimated scf accuracy    <       0.00001508 Ry

     iteration # 12     ecut=    40.00 Ry     beta= 0.60
     Davidson diagonalization with overlap
     ethr =  1.51E-08,  avg # of iterations =  3.0

     total cpu time spent up to now is    93995.3 secs

     total energy              =    -938.31680297 Ry
     Harris-Foulkes estimate   =    -938.31680439 Ry
     estimated scf accuracy    <       0.00000773 Ry

     iteration # 13     ecut=    40.00 Ry     beta= 0.60
     Davidson diagonalization with overlap
     ethr =  7.73E-09,  avg # of iterations =  3.7

     total cpu time spent up to now is    94068.6 secs

     total energy              =    -938.31680318 Ry
     Harris-Foulkes estimate   =    -938.31680467 Ry
     estimated scf accuracy    <       0.00001147 Ry

     iteration # 14     ecut=    40.00 Ry     beta= 0.60
     Davidson diagonalization with overlap
     ethr =  7.73E-09,  avg # of iterations =  1.7

     total cpu time spent up to now is    94128.8 secs

     total energy              =    -938.31680381 Ry
     Harris-Foulkes estimate   =    -938.31680395 Ry
     estimated scf accuracy    <       0.00000100 Ry

     iteration # 15     ecut=    40.00 Ry     beta= 0.60
     Davidson diagonalization with overlap
     ethr =  9.98E-10,  avg # of iterations =  4.1

     total cpu time spent up to now is    94211.1 secs

     total energy              =    -938.31680395 Ry
     Harris-Foulkes estimate   =    -938.31680404 Ry
     estimated scf accuracy    <       0.00000033 Ry

     iteration # 16     ecut=    40.00 Ry     beta= 0.60
     Davidson diagonalization with overlap
     ethr =  3.30E-10,  avg # of iterations =  4.0

     total cpu time spent up to now is    94296.9 secs

     total energy              =    -938.31680393 Ry
     Harris-Foulkes estimate   =    -938.31680409 Ry
     estimated scf accuracy    <       0.00000083 Ry

     iteration # 17     ecut=    40.00 Ry     beta= 0.60
     Davidson diagonalization with overlap
     ethr =  3.30E-10,  avg # of iterations =  4.0

     total cpu time spent up to now is    94378.5 secs

     total energy              =    -938.31680399 Ry
     Harris-Foulkes estimate   =    -938.31680403 Ry
     estimated scf accuracy    <       0.00000021 Ry

     iteration # 18     ecut=    40.00 Ry     beta= 0.60
     Davidson diagonalization with overlap
     ethr =  2.07E-10,  avg # of iterations =  2.3

     total cpu time spent up to now is    94440.0 secs

     total energy              =    -938.31680401 Ry
     Harris-Foulkes estimate   =    -938.31680401 Ry
     estimated scf accuracy    <       0.00000002 Ry

     iteration # 19     ecut=    40.00 Ry     beta= 0.60
     Davidson diagonalization with overlap
     ethr =  1.74E-11,  avg # of iterations =  4.0

     total cpu time spent up to now is    94524.0 secs

     total energy              =    -938.31680401 Ry
     Harris-Foulkes estimate   =    -938.31680401 Ry
     estimated scf accuracy    <       0.00000002 Ry

     iteration # 20     ecut=    40.00 Ry     beta= 0.60
     Davidson diagonalization with overlap
     ethr =  1.74E-11,  avg # of iterations =  1.6

     total cpu time spent up to now is    94579.7 secs

     total energy              =    -938.31680401 Ry
     Harris-Foulkes estimate   =    -938.31680401 Ry
     estimated scf accuracy    <          5.9E-09 Ry

     iteration # 21     ecut=    40.00 Ry     beta= 0.60
     Davidson diagonalization with overlap
     ethr =  5.90E-12,  avg # of iterations =  3.9

     total cpu time spent up to now is    94660.1 secs

     total energy              =    -938.31680401 Ry
     Harris-Foulkes estimate   =    -938.31680401 Ry
     estimated scf accuracy    <       0.00000002 Ry

     iteration # 22     ecut=    40.00 Ry     beta= 0.60
     Davidson diagonalization with overlap
     ethr =  5.90E-12,  avg # of iterations =  4.0

     total cpu time spent up to now is    94743.6 secs

     total energy              =    -938.31680401 Ry
     Harris-Foulkes estimate   =    -938.31680401 Ry
     estimated scf accuracy    <       0.00000002 Ry

     iteration # 23     ecut=    40.00 Ry     beta= 0.60
     Davidson diagonalization with overlap
     ethr =  5.90E-12,  avg # of iterations =  3.1

     total cpu time spent up to now is    94813.1 secs

     total energy              =    -938.31680401 Ry
     Harris-Foulkes estimate   =    -938.31680401 Ry
     estimated scf accuracy    <          2.8E-10 Ry

     iteration # 24     ecut=    40.00 Ry     beta= 0.60
     Davidson diagonalization with overlap
     ethr =  2.85E-13,  avg # of iterations =  4.6

     total cpu time spent up to now is    94908.6 secs

     total energy              =    -938.31680401 Ry
     Harris-Foulkes estimate   =    -938.31680401 Ry
     estimated scf accuracy    <          8.9E-10 Ry

     iteration # 25     ecut=    40.00 Ry     beta= 0.60
     Davidson diagonalization with overlap
     ethr =  2.85E-13,  avg # of iterations =  3.9

     total cpu time spent up to now is    94991.4 secs

     total energy              =    -938.31680401 Ry
     Harris-Foulkes estimate   =    -938.31680401 Ry
     estimated scf accuracy    <          1.8E-10 Ry

     iteration # 26     ecut=    40.00 Ry     beta= 0.60
     Davidson diagonalization with overlap
     ethr =  1.78E-13,  avg # of iterations =  3.3

     total cpu time spent up to now is    95065.4 secs

     total energy              =    -938.31680401 Ry
     Harris-Foulkes estimate   =    -938.31680401 Ry
     estimated scf accuracy    <          1.8E-10 Ry

     iteration # 27     ecut=    40.00 Ry     beta= 0.60
     Davidson diagonalization with overlap
     ethr =  1.78E-13,  avg # of iterations =  2.8

     total cpu time spent up to now is    95128.9 secs

     End of self-consistent calculation

     Number of k-points >= 100: set verbosity='high' to print the bands.

     the Fermi energy is    15.7871 ev

!    total energy              =    -938.31680401 Ry
     Harris-Foulkes estimate   =    -938.31680401 Ry
     estimated scf accuracy    <          2.2E-11 Ry

     The total energy is the sum of the following terms:

     one-electron contribution =    -228.25488564 Ry
     hartree contribution      =     157.32772829 Ry
     xc contribution           =    -131.96763084 Ry
     ewald contribution        =    -735.42026937 Ry
     smearing contrib. (-TS)   =      -0.00174646 Ry

     convergence has been achieved in  27 iterations

     Forces acting on atoms (cartesian axes, Ry/au):

     atom    1 type  1   force =     0.00771097    0.00276865    0.00218482
     atom    2 type  2   force =     0.00070807   -0.00253818    0.00550391
     atom    3 type  2   force =    -0.00068499    0.00253006   -0.00541809
     atom    4 type  1   force =    -0.00746155   -0.00277166   -0.00220787
     atom    5 type  2   force =    -0.00065540    0.00521660   -0.00225282
     atom    6 type  2   force =     0.00040743   -0.00516964    0.00219168
     atom    7 type  1   force =     0.00500964   -0.00473851    0.00298891
     atom    8 type  1   force =    -0.00503418    0.00470269   -0.00299055

     Total force =     0.019771     Total SCF correction =     0.000013


     Computing stress (Cartesian axis) and pressure

          total   stress  (Ry/bohr**3)                   (kbar)     P=    4.63
   0.00004844  -0.00006901  -0.00003779          7.13    -10.15     -5.56
  -0.00006901   0.00001329  -0.00002063        -10.15      1.96     -3.04
  -0.00003779  -0.00002063   0.00003259         -5.56     -3.04      4.79


     number of scf cycles    =  50
     number of bfgs steps    =  49

     enthalpy old            =    -938.3145013637 Ry
     enthalpy new            =    -938.3168040136 Ry

     CASE: enthalpy_new < enthalpy_old

     new trust radius        =       0.0492073838 bohr
     new conv_thr            =            1.0E-10 Ry

     new unit-cell volume =    945.59961 a.u.^3 (   140.12340 Ang^3 )
     density =      6.67297 g/cm^3

CELL_PARAMETERS (alat=  1.88972599)
   1.597590411   2.303867113  -4.611369802
   1.583598446  -2.336699643  -4.615028711
  -6.507502879  -0.052305601  -0.110519989

ATOMIC_POSITIONS (angstrom)
Nb      -0.096413023   0.307318015  -4.673611339
Ti      -1.675204545   0.391622791  -2.355771553
Ti      -3.257237260   0.298276553  -4.688045078
Nb      -4.837168124   0.382833191  -2.370122914
Ti      -3.345284186   0.212704443  -9.401807311
Ti       1.594510359   0.444156735  -6.867709343
Nb      -0.064646383   0.335216610  -9.213060946
Nb      -1.687041028   0.322041933  -7.056764655


     NEW-OLD atomic charge density approx. for the potential
     extrapolated charge  100.00843, renormalised to  100.00000
