
     Program PWSCF v.6.3MaX starts on 26Jan2020 at 13: 5:38 

     This program is part of the open-source Quantum ESPRESSO suite
     for quantum simulation of materials; please cite
         "P. Giannozzi et al., J. Phys.:Condens. Matter 21 395502 (2009);
         "P. Giannozzi et al., J. Phys.:Condens. Matter 29 465901 (2017);
          URL http://www.quantum-espresso.org", 
     in publications or presentations arising from this work. More details at
     http://www.quantum-espresso.org/quote

     Parallel version (MPI), running on     4 processors

     MPI processes distributed on     1 nodes
     R & G space division:  proc/nbgrp/npool/nimage =       4
     Waiting for input...
     Reading input from standard input

     Current dimensions of program PWSCF are:
     Max number of different atomic species (ntypx) = 10
     Max number of k-points (npk) =  40000
     Max angular momentum in pseudopotentials (lmaxx) =  3
     Message from routine iosys:
     minimal I/O required, wf_collect reset to FALSE

     Subspace diagonalization in iterative solution of the eigenvalue problem:
     a serial algorithm will be used

 
     Parallelization info
     --------------------
     sticks:   dense  smooth     PW     G-vecs:    dense   smooth      PW
     Min         780     312     95                27301     6894    1169
     Max         781     313     96                27302     6895    1170
     Sum        3121    1251    383               109205    27577    4677
 


     bravais-lattice index     =            0
     lattice parameter (alat)  =       1.8897  a.u.
     unit-cell volume          =     808.3427 (a.u.)^3
     number of atoms/cell      =            6
     number of atomic types    =            2
     number of electrons       =        73.00
     number of Kohn-Sham states=           44
     kinetic-energy cutoff     =      40.0000  Ry
     charge density cutoff     =     400.0000  Ry
     convergence threshold     =      1.0E-10
     mixing beta               =       0.6000
     number of iterations used =            8  plain     mixing
     Exchange-correlation      = SLA PW PBE PBE ( 1  4  3  4 0 0)
     nstep                     =           50


     celldm(1)=   1.889726  celldm(2)=   0.000000  celldm(3)=   0.000000
     celldm(4)=   0.000000  celldm(5)=   0.000000  celldm(6)=   0.000000

     crystal axes: (cart. coord. in units of alat)
               a(1) = (   3.045004   0.000000   4.972461 )  
               a(2) = (  -1.522502   2.637051   4.972461 )  
               a(3) = (  -1.522502  -2.637051   4.972461 )  

     reciprocal axes: (cart. coord. in units 2 pi/alat)
               b(1) = (  0.218938  0.000000  0.067036 )  
               b(2) = ( -0.109469  0.189606  0.067036 )  
               b(3) = ( -0.109469 -0.189606  0.067036 )  


     PseudoPot. # 1 for Nb read from file:
     ./Nb.pbe-nsp-van.UPF
     MD5 check sum: 0a22fc7fb0ba19a08ca5db297a5d2854
     Pseudo is Ultrasoft + core correction, Zval = 13.0
     Generated by new atomic code, or converted to UPF format
     Using radial grid of  887 points,  6 beta functions with: 
                l(1) =   0
                l(2) =   0
                l(3) =   1
                l(4) =   1
                l(5) =   2
                l(6) =   2
     Q(r) pseudized with  6 coefficients,  rinner =    1.000   1.000   1.000
                                                       1.000   1.000

     PseudoPot. # 2 for Ti read from file:
     ./Ti.pbe-sp-van_ak.UPF
     MD5 check sum: f98fea3e8887528921fefa5636a534ca
     Pseudo is Ultrasoft, Zval = 12.0
     Generated by new atomic code, or converted to UPF format
     Using radial grid of  851 points,  6 beta functions with: 
                l(1) =   0
                l(2) =   0
                l(3) =   1
                l(4) =   1
                l(5) =   2
                l(6) =   2
     Q(r) pseudized with  8 coefficients,  rinner =    1.000   1.000   1.000
                                                       1.000   1.000

     atomic species   valence    mass     pseudopotential
        Nb            13.00    92.90638     Nb( 1.00)
        Ti            12.00    47.86700     Ti( 1.00)

      6 Sym. Ops. (no inversion) found ( 4 have fractional translation)



   Cartesian axes

     site n.     atom                  positions (alat units)
         1           Ti  tau(   1) = (   0.0000000   0.0000000   9.9449228  )
         2           Ti  tau(   2) = (   0.0000015  -1.7580350   7.4586921  )
         3           Ti  tau(   3) = (   0.0000000   0.0000000  14.9173841  )
         4           Ti  tau(   4) = (   1.5225036   0.8790162   7.4586921  )
         5           Ti  tau(   5) = (   0.0000000   0.0000000   4.9724614  )
         6           Nb  tau(   6) = (  -1.5225006   0.8790162   7.4586921  )

     number of k points=   189  Marzari-Vanderbilt smearing, width (Ry)=  0.0200

     Number of k-points >= 100: set verbosity='high' to print them.

     Dense  grid:   109205 G-vectors     FFT dimensions: (  72,  72,  72)

     Smooth grid:    27577 G-vectors     FFT dimensions: (  45,  45,  45)

     Estimated max dynamical RAM per process >     216.27 MB

     Estimated total dynamical RAM >     865.08 MB

     Initial potential from superposition of free atoms

     starting charge   67.99705, renormalised to   73.00000
     Starting wfcs are   63 randomized atomic wfcs

     total cpu time spent up to now is       14.0 secs

     Self-consistent Calculation

     iteration #  1     ecut=    40.00 Ry     beta= 0.60
     Davidson diagonalization with overlap
     ethr =  1.00E-02,  avg # of iterations =  4.4

     total cpu time spent up to now is       46.3 secs

     total energy              =    -698.42906469 Ry
     Harris-Foulkes estimate   =    -702.89007195 Ry
     estimated scf accuracy    <       5.95457983 Ry

     iteration #  2     ecut=    40.00 Ry     beta= 0.60
     Davidson diagonalization with overlap
     ethr =  8.16E-03,  avg # of iterations =  5.7

     total cpu time spent up to now is       83.3 secs

     total energy              =    -696.35751359 Ry
     Harris-Foulkes estimate   =    -706.46821151 Ry
     estimated scf accuracy    <      35.70522961 Ry

     iteration #  3     ecut=    40.00 Ry     beta= 0.60
     Davidson diagonalization with overlap
     ethr =  8.16E-03,  avg # of iterations =  6.8

     total cpu time spent up to now is      123.3 secs

     total energy              =    -699.71514489 Ry
     Harris-Foulkes estimate   =    -702.13515491 Ry
     estimated scf accuracy    <      15.22064240 Ry

     iteration #  4     ecut=    40.00 Ry     beta= 0.60
     Davidson diagonalization with overlap
     ethr =  8.16E-03,  avg # of iterations =  5.3

     total cpu time spent up to now is      151.4 secs

     total energy              =    -700.94726365 Ry
     Harris-Foulkes estimate   =    -701.45448155 Ry
     estimated scf accuracy    <       4.28920906 Ry

     iteration #  5     ecut=    40.00 Ry     beta= 0.60
     Davidson diagonalization with overlap
     ethr =  5.88E-03,  avg # of iterations =  1.1

     total cpu time spent up to now is      170.7 secs

     total energy              =    -701.12203999 Ry
     Harris-Foulkes estimate   =    -701.12814722 Ry
     estimated scf accuracy    <       0.73573834 Ry

     iteration #  6     ecut=    40.00 Ry     beta= 0.60
     Davidson diagonalization with overlap
     ethr =  1.01E-03,  avg # of iterations =  5.4

     total cpu time spent up to now is      198.2 secs

     total energy              =    -701.18862492 Ry
     Harris-Foulkes estimate   =    -701.18846484 Ry
     estimated scf accuracy    <       0.56652989 Ry

     iteration #  7     ecut=    40.00 Ry     beta= 0.60
     Davidson diagonalization with overlap
     ethr =  7.76E-04,  avg # of iterations =  1.8

     total cpu time spent up to now is      218.3 secs

     total energy              =    -701.23265149 Ry
     Harris-Foulkes estimate   =    -701.19590209 Ry
     estimated scf accuracy    <       0.59924870 Ry

     iteration #  8     ecut=    40.00 Ry     beta= 0.60
     Davidson diagonalization with overlap
     ethr =  7.76E-04,  avg # of iterations =  5.3

     total cpu time spent up to now is      249.6 secs

     total energy              =    -701.57858100 Ry
     Harris-Foulkes estimate   =    -701.45838751 Ry
     estimated scf accuracy    <       3.21063961 Ry

     iteration #  9     ecut=    40.00 Ry     beta= 0.60
     Davidson diagonalization with overlap
     ethr =  7.76E-04,  avg # of iterations =  1.2

     total cpu time spent up to now is      269.1 secs

     total energy              =    -701.64655911 Ry
     Harris-Foulkes estimate   =    -701.59362416 Ry
     estimated scf accuracy    <       3.56782360 Ry

     iteration # 10     ecut=    40.00 Ry     beta= 0.60
     Davidson diagonalization with overlap
     ethr =  7.76E-04,  avg # of iterations =  1.0

     total cpu time spent up to now is      288.4 secs

     total energy              =    -701.74163234 Ry
     Harris-Foulkes estimate   =    -701.65744953 Ry
     estimated scf accuracy    <       3.53450516 Ry

     iteration # 11     ecut=    40.00 Ry     beta= 0.60
     Davidson diagonalization with overlap
     ethr =  7.76E-04,  avg # of iterations =  1.2

     total cpu time spent up to now is      307.9 secs

     total energy              =    -701.60353985 Ry
     Harris-Foulkes estimate   =    -701.75739569 Ry
     estimated scf accuracy    <       3.76046000 Ry

     iteration # 12     ecut=    40.00 Ry     beta= 0.60
     Davidson diagonalization with overlap
     ethr =  7.76E-04,  avg # of iterations =  1.0

     total cpu time spent up to now is      327.2 secs

     total energy              =    -701.60486056 Ry
     Harris-Foulkes estimate   =    -701.61151261 Ry
     estimated scf accuracy    <       3.24155512 Ry

     iteration # 13     ecut=    40.00 Ry     beta= 0.60
     Davidson diagonalization with overlap
     ethr =  7.76E-04,  avg # of iterations =  1.0

     total cpu time spent up to now is      346.4 secs

     total energy              =    -701.54101860 Ry
     Harris-Foulkes estimate   =    -701.60769099 Ry
     estimated scf accuracy    <       3.31420559 Ry

     iteration # 14     ecut=    40.00 Ry     beta= 0.60
     Davidson diagonalization with overlap
     ethr =  7.76E-04,  avg # of iterations =  1.0

     total cpu time spent up to now is      365.7 secs

     total energy              =    -700.13018911 Ry
     Harris-Foulkes estimate   =    -701.54325290 Ry
     estimated scf accuracy    <       3.09112828 Ry

     iteration # 15     ecut=    40.00 Ry     beta= 0.60
     Davidson diagonalization with overlap
     ethr =  7.76E-04,  avg # of iterations =  5.4

     total cpu time spent up to now is      403.1 secs

     total energy              =    -701.04778313 Ry
     Harris-Foulkes estimate   =    -702.21644759 Ry
     estimated scf accuracy    <      10.89391145 Ry

     iteration # 16     ecut=    40.00 Ry     beta= 0.60
     Davidson diagonalization with overlap
     ethr =  7.76E-04,  avg # of iterations =  4.7

     total cpu time spent up to now is      431.7 secs

     total energy              =    -701.34782538 Ry
     Harris-Foulkes estimate   =    -701.30635839 Ry
     estimated scf accuracy    <       2.45196188 Ry

     iteration # 17     ecut=    40.00 Ry     beta= 0.60
     Davidson diagonalization with overlap
     ethr =  7.76E-04,  avg # of iterations =  1.0

     total cpu time spent up to now is      450.9 secs

     total energy              =    -701.23767033 Ry
     Harris-Foulkes estimate   =    -701.35320394 Ry
     estimated scf accuracy    <       2.87374625 Ry

     iteration # 18     ecut=    40.00 Ry     beta= 0.60
     Davidson diagonalization with overlap
     ethr =  7.76E-04,  avg # of iterations =  1.0

     total cpu time spent up to now is      470.1 secs

     total energy              =    -701.04552331 Ry
     Harris-Foulkes estimate   =    -701.24791000 Ry
     estimated scf accuracy    <       1.95809858 Ry

     iteration # 19     ecut=    40.00 Ry     beta= 0.60
     Davidson diagonalization with overlap
     ethr =  7.76E-04,  avg # of iterations =  3.4

     total cpu time spent up to now is      493.4 secs

     total energy              =    -701.13742472 Ry
     Harris-Foulkes estimate   =    -701.12409610 Ry
     estimated scf accuracy    <       0.14275802 Ry

     iteration # 20     ecut=    40.00 Ry     beta= 0.60
     Davidson diagonalization with overlap
     ethr =  1.96E-04,  avg # of iterations =  4.4

     total cpu time spent up to now is      517.3 secs

     total energy              =    -701.11272032 Ry
     Harris-Foulkes estimate   =    -701.14521730 Ry
     estimated scf accuracy    <       0.30517136 Ry

     iteration # 21     ecut=    40.00 Ry     beta= 0.60
     Davidson diagonalization with overlap
     ethr =  1.96E-04,  avg # of iterations =  1.8

     total cpu time spent up to now is      537.3 secs

     total energy              =    -701.11400369 Ry
     Harris-Foulkes estimate   =    -701.12114937 Ry
     estimated scf accuracy    <       0.06989840 Ry

     iteration # 22     ecut=    40.00 Ry     beta= 0.60
     Davidson diagonalization with overlap
     ethr =  9.58E-05,  avg # of iterations =  6.5

     total cpu time spent up to now is      568.3 secs

     total energy              =    -701.12285785 Ry
     Harris-Foulkes estimate   =    -701.12319372 Ry
     estimated scf accuracy    <       0.00216959 Ry

     iteration # 23     ecut=    40.00 Ry     beta= 0.60
     Davidson diagonalization with overlap
     c_bands:  1 eigenvalues not converged
     c_bands:  1 eigenvalues not converged
     ethr =  2.97E-06,  avg # of iterations = 10.2

     total cpu time spent up to now is      611.6 secs

     total energy              =    -701.12328002 Ry
     Harris-Foulkes estimate   =    -701.12342557 Ry
     estimated scf accuracy    <       0.00096058 Ry

     iteration # 24     ecut=    40.00 Ry     beta= 0.60
     Davidson diagonalization with overlap
     ethr =  1.32E-06,  avg # of iterations =  1.2

     total cpu time spent up to now is      631.0 secs

     total energy              =    -701.12333693 Ry
     Harris-Foulkes estimate   =    -701.12334215 Ry
     estimated scf accuracy    <       0.00011600 Ry

     iteration # 25     ecut=    40.00 Ry     beta= 0.60
     Davidson diagonalization with overlap
     ethr =  1.59E-07,  avg # of iterations =  4.4

     total cpu time spent up to now is      658.1 secs

     total energy              =    -701.12333169 Ry
     Harris-Foulkes estimate   =    -701.12335846 Ry
     estimated scf accuracy    <       0.00015646 Ry

     iteration # 26     ecut=    40.00 Ry     beta= 0.60
     Davidson diagonalization with overlap
     ethr =  1.59E-07,  avg # of iterations =  3.7

     total cpu time spent up to now is      682.4 secs

     total energy              =    -701.12333652 Ry
     Harris-Foulkes estimate   =    -701.12335020 Ry
     estimated scf accuracy    <       0.00016808 Ry

     iteration # 27     ecut=    40.00 Ry     beta= 0.60
     Davidson diagonalization with overlap
     ethr =  1.59E-07,  avg # of iterations =  1.0

     total cpu time spent up to now is      701.6 secs

     total energy              =    -701.12333412 Ry
     Harris-Foulkes estimate   =    -701.12333926 Ry
     estimated scf accuracy    <       0.00009545 Ry

     iteration # 28     ecut=    40.00 Ry     beta= 0.60
     Davidson diagonalization with overlap
     ethr =  1.31E-07,  avg # of iterations =  1.0

     total cpu time spent up to now is      720.8 secs

     total energy              =    -701.12333291 Ry
     Harris-Foulkes estimate   =    -701.12333556 Ry
     estimated scf accuracy    <       0.00006192 Ry

     iteration # 29     ecut=    40.00 Ry     beta= 0.60
     Davidson diagonalization with overlap
     ethr =  8.48E-08,  avg # of iterations =  1.0

     total cpu time spent up to now is      740.0 secs

     total energy              =    -701.12332994 Ry
     Harris-Foulkes estimate   =    -701.12333372 Ry
     estimated scf accuracy    <       0.00004153 Ry

     iteration # 30     ecut=    40.00 Ry     beta= 0.60
     Davidson diagonalization with overlap
     ethr =  5.69E-08,  avg # of iterations =  3.6

     total cpu time spent up to now is      763.0 secs

     total energy              =    -701.12333254 Ry
     Harris-Foulkes estimate   =    -701.12333258 Ry
     estimated scf accuracy    <       0.00000429 Ry

     iteration # 31     ecut=    40.00 Ry     beta= 0.60
     Davidson diagonalization with overlap
     ethr =  5.87E-09,  avg # of iterations =  4.9

     total cpu time spent up to now is      791.3 secs

     total energy              =    -701.12333312 Ry
     Harris-Foulkes estimate   =    -701.12333334 Ry
     estimated scf accuracy    <       0.00000246 Ry

     iteration # 32     ecut=    40.00 Ry     beta= 0.60
     Davidson diagonalization with overlap
     ethr =  3.37E-09,  avg # of iterations =  1.1

     total cpu time spent up to now is      810.6 secs

     total energy              =    -701.12333301 Ry
     Harris-Foulkes estimate   =    -701.12333319 Ry
     estimated scf accuracy    <       0.00000114 Ry

     iteration # 33     ecut=    40.00 Ry     beta= 0.60
     Davidson diagonalization with overlap
     ethr =  1.56E-09,  avg # of iterations =  4.5

     total cpu time spent up to now is      837.7 secs

     total energy              =    -701.12333317 Ry
     Harris-Foulkes estimate   =    -701.12333318 Ry
     estimated scf accuracy    <       0.00000007 Ry

     iteration # 34     ecut=    40.00 Ry     beta= 0.60
     Davidson diagonalization with overlap
     ethr =  9.67E-11,  avg # of iterations =  5.6

     total cpu time spent up to now is      867.4 secs

     total energy              =    -701.12333318 Ry
     Harris-Foulkes estimate   =    -701.12333318 Ry
     estimated scf accuracy    <       0.00000004 Ry

     iteration # 35     ecut=    40.00 Ry     beta= 0.60
     Davidson diagonalization with overlap
     ethr =  5.92E-11,  avg # of iterations =  2.0

     total cpu time spent up to now is      887.7 secs

     total energy              =    -701.12333318 Ry
     Harris-Foulkes estimate   =    -701.12333318 Ry
     estimated scf accuracy    <          8.7E-09 Ry

     iteration # 36     ecut=    40.00 Ry     beta= 0.60
     Davidson diagonalization with overlap
     ethr =  1.20E-11,  avg # of iterations =  5.2

     total cpu time spent up to now is      919.0 secs

     total energy              =    -701.12333318 Ry
     Harris-Foulkes estimate   =    -701.12333318 Ry
     estimated scf accuracy    <       0.00000002 Ry

     iteration # 37     ecut=    40.00 Ry     beta= 0.60
     Davidson diagonalization with overlap
     ethr =  1.20E-11,  avg # of iterations =  1.0

     total cpu time spent up to now is      938.2 secs

     total energy              =    -701.12333318 Ry
     Harris-Foulkes estimate   =    -701.12333318 Ry
     estimated scf accuracy    <       0.00000001 Ry

     iteration # 38     ecut=    40.00 Ry     beta= 0.60
     Davidson diagonalization with overlap
     ethr =  1.20E-11,  avg # of iterations =  3.5

     total cpu time spent up to now is      962.7 secs

     total energy              =    -701.12333318 Ry
     Harris-Foulkes estimate   =    -701.12333318 Ry
     estimated scf accuracy    <          1.3E-09 Ry

     iteration # 39     ecut=    40.00 Ry     beta= 0.60
     Davidson diagonalization with overlap
     ethr =  1.71E-12,  avg # of iterations =  2.8

     total cpu time spent up to now is      984.8 secs

     total energy              =    -701.12333318 Ry
     Harris-Foulkes estimate   =    -701.12333318 Ry
     estimated scf accuracy    <          1.5E-10 Ry

     iteration # 40     ecut=    40.00 Ry     beta= 0.60
     Davidson diagonalization with overlap
     ethr =  2.04E-13,  avg # of iterations =  5.2

     total cpu time spent up to now is     1015.8 secs

     total energy              =    -701.12333318 Ry
     Harris-Foulkes estimate   =    -701.12333318 Ry
     estimated scf accuracy    <          3.6E-10 Ry

     iteration # 41     ecut=    40.00 Ry     beta= 0.60
     Davidson diagonalization with overlap
     ethr =  2.04E-13,  avg # of iterations =  1.0

     total cpu time spent up to now is     1035.1 secs

     End of self-consistent calculation

     Number of k-points >= 100: set verbosity='high' to print the bands.

     the Fermi energy is    12.1439 ev

!    total energy              =    -701.12333318 Ry
     Harris-Foulkes estimate   =    -701.12333318 Ry
     estimated scf accuracy    <          8.0E-11 Ry

     The total energy is the sum of the following terms:

     one-electron contribution =    -257.90804783 Ry
     hartree contribution      =     147.81630282 Ry
     xc contribution           =     -90.43074612 Ry
     ewald contribution        =    -500.59760597 Ry
     smearing contrib. (-TS)   =      -0.00323609 Ry

     convergence has been achieved in  41 iterations

     Forces acting on atoms (cartesian axes, Ry/au):

     atom    1 type  2   force =     0.00000000    0.00201565    0.00000000
     atom    2 type  2   force =     0.00000000   -0.00000000   -0.00161355
     atom    3 type  2   force =     0.00174560   -0.00100782    0.00000000
     atom    4 type  2   force =     0.00000000    0.00000000    0.00161355
     atom    5 type  2   force =    -0.00174560   -0.00100782    0.00000000
     atom    6 type  1   force =     0.00000000    0.00000000    0.00000000

     Total force =     0.004171     Total SCF correction =     0.000002


     Computing stress (Cartesian axis) and pressure

          total   stress  (Ry/bohr**3)                   (kbar)     P= -134.17
  -0.00087956   0.00000000  -0.00000000       -129.39      0.00     -0.00
  -0.00000000  -0.00087956   0.00000000         -0.00   -129.39      0.00
   0.00000000  -0.00000000  -0.00097713          0.00     -0.00   -143.74


     BFGS Geometry Optimization

     number of scf cycles    =   1
     number of bfgs steps    =   0

     enthalpy new            =    -701.1233331806 Ry

     new trust radius        =       0.1389062816 bohr
     new conv_thr            =            1.0E-10 Ry

     new unit-cell volume =    754.29652 a.u.^3 (   111.77521 Ang^3 )
     density =      4.93580 g/cm^3

CELL_PARAMETERS (alat=  1.88972599)
   2.978047088  -0.000000000   4.850991985
  -1.489023544   2.579064617   4.850991985
  -1.489023544  -2.579064617   4.850991985

ATOMIC_POSITIONS (angstrom)
Ti       0.000000000   0.001043180   9.701983971
Ti       0.000001490  -1.719377271   7.275654983
Ti       0.000903421  -0.000521590  14.552975956
Ti       1.489025034   0.859687346   7.277320974
Ti      -0.000903421  -0.000521590   4.850991985
Nb      -1.489022055   0.859687346   7.276487978


     NEW-OLD atomic charge density approx. for the potential
     extrapolated charge   68.12793, renormalised to   73.00000

     total cpu time spent up to now is     1046.3 secs

     Self-consistent Calculation

     iteration #  1     ecut=    40.00 Ry     beta= 0.60
     Davidson diagonalization with overlap
     c_bands:  1 eigenvalues not converged
     c_bands:  2 eigenvalues not converged
     c_bands:  1 eigenvalues not converged
     c_bands:  1 eigenvalues not converged
     c_bands:  1 eigenvalues not converged
     c_bands:  1 eigenvalues not converged
     c_bands:  1 eigenvalues not converged
     c_bands:  2 eigenvalues not converged
     c_bands:  1 eigenvalues not converged
     c_bands:  1 eigenvalues not converged
     c_bands:  1 eigenvalues not converged
     c_bands:  1 eigenvalues not converged
     c_bands:  1 eigenvalues not converged
     c_bands:  2 eigenvalues not converged
     c_bands:  1 eigenvalues not converged
     c_bands:  3 eigenvalues not converged
     c_bands:  1 eigenvalues not converged
     c_bands:  1 eigenvalues not converged
     c_bands:  1 eigenvalues not converged
     c_bands:  4 eigenvalues not converged
     c_bands:  2 eigenvalues not converged
     c_bands:  1 eigenvalues not converged
     c_bands:  4 eigenvalues not converged
     c_bands:  1 eigenvalues not converged
     c_bands:  2 eigenvalues not converged
     ethr =  1.00E-06,  avg # of iterations = 15.9

     total cpu time spent up to now is     1128.3 secs

     total energy              =    -695.08392262 Ry
     Harris-Foulkes estimate   =    -713.44857743 Ry
     estimated scf accuracy    <       6.10305653 Ry

     iteration #  2     ecut=    40.00 Ry     beta= 0.60
     Davidson diagonalization with overlap
     ethr =  8.36E-03,  avg # of iterations =  4.5

     total cpu time spent up to now is     1167.0 secs

     total energy              =    -699.39532373 Ry
     Harris-Foulkes estimate   =    -709.20449573 Ry
     estimated scf accuracy    <      33.71097750 Ry

     iteration #  3     ecut=    40.00 Ry     beta= 0.60
     Davidson diagonalization with overlap
     ethr =  8.36E-03,  avg # of iterations =  3.4

     total cpu time spent up to now is     1193.2 secs

     total energy              =    -701.25089382 Ry
     Harris-Foulkes estimate   =    -702.34637568 Ry
     estimated scf accuracy    <       3.86419698 Ry

     iteration #  4     ecut=    40.00 Ry     beta= 0.60
     Davidson diagonalization with overlap
     ethr =  5.29E-03,  avg # of iterations =  2.6

     total cpu time spent up to now is     1215.3 secs

     total energy              =    -701.40089231 Ry
     Harris-Foulkes estimate   =    -701.68458561 Ry
     estimated scf accuracy    <       3.18812136 Ry

     iteration #  5     ecut=    40.00 Ry     beta= 0.60
     Davidson diagonalization with overlap
     ethr =  4.37E-03,  avg # of iterations =  1.0

     total cpu time spent up to now is     1234.6 secs

     total energy              =    -701.40663989 Ry
     Harris-Foulkes estimate   =    -701.46381109 Ry
     estimated scf accuracy    <       2.00960108 Ry

     iteration #  6     ecut=    40.00 Ry     beta= 0.60
     Davidson diagonalization with overlap
     ethr =  2.75E-03,  avg # of iterations =  1.0

     total cpu time spent up to now is     1253.8 secs

     total energy              =    -701.34033896 Ry
     Harris-Foulkes estimate   =    -701.42176351 Ry
     estimated scf accuracy    <       1.69070139 Ry

     iteration #  7     ecut=    40.00 Ry     beta= 0.60
     Davidson diagonalization with overlap
     ethr =  2.32E-03,  avg # of iterations =  1.0

     total cpu time spent up to now is     1273.1 secs

     total energy              =    -701.20106479 Ry
     Harris-Foulkes estimate   =    -701.35377802 Ry
     estimated scf accuracy    <       1.27040240 Ry

     iteration #  8     ecut=    40.00 Ry     beta= 0.60
     Davidson diagonalization with overlap
     ethr =  1.74E-03,  avg # of iterations =  1.4

     total cpu time spent up to now is     1292.7 secs

     total energy              =    -701.14794031 Ry
     Harris-Foulkes estimate   =    -701.22871794 Ry
     estimated scf accuracy    <       0.58852997 Ry

     iteration #  9     ecut=    40.00 Ry     beta= 0.60
     Davidson diagonalization with overlap
     ethr =  8.06E-04,  avg # of iterations =  4.3

     total cpu time spent up to now is     1316.7 secs

     total energy              =    -701.18440286 Ry
     Harris-Foulkes estimate   =    -701.18150615 Ry
     estimated scf accuracy    <       0.19355050 Ry

     iteration # 10     ecut=    40.00 Ry     beta= 0.60
     Davidson diagonalization with overlap
     ethr =  2.65E-04,  avg # of iterations =  5.0

     total cpu time spent up to now is     1341.1 secs

     total energy              =    -701.10801236 Ry
     Harris-Foulkes estimate   =    -701.19161068 Ry
     estimated scf accuracy    <       0.18460649 Ry

     iteration # 11     ecut=    40.00 Ry     beta= 0.60
     Davidson diagonalization with overlap
     ethr =  2.53E-04,  avg # of iterations =  5.2

     total cpu time spent up to now is     1372.3 secs

     total energy              =    -701.14540251 Ry
     Harris-Foulkes estimate   =    -701.17003669 Ry
     estimated scf accuracy    <       0.08183376 Ry

     iteration # 12     ecut=    40.00 Ry     beta= 0.60
     Davidson diagonalization with overlap
     ethr =  1.12E-04,  avg # of iterations =  4.2

     total cpu time spent up to now is     1399.6 secs

     total energy              =    -701.16105738 Ry
     Harris-Foulkes estimate   =    -701.16473890 Ry
     estimated scf accuracy    <       0.02611652 Ry

     iteration # 13     ecut=    40.00 Ry     beta= 0.60
     Davidson diagonalization with overlap
     c_bands:  1 eigenvalues not converged
     ethr =  3.58E-05,  avg # of iterations =  3.0

     total cpu time spent up to now is     1421.0 secs

     total energy              =    -701.16024182 Ry
     Harris-Foulkes estimate   =    -701.16204442 Ry
     estimated scf accuracy    <       0.00930913 Ry

     iteration # 14     ecut=    40.00 Ry     beta= 0.60
     Davidson diagonalization with overlap
     ethr =  1.28E-05,  avg # of iterations =  8.4

     total cpu time spent up to now is     1456.9 secs

     total energy              =    -701.16180523 Ry
     Harris-Foulkes estimate   =    -701.16240130 Ry
     estimated scf accuracy    <       0.00175206 Ry

     iteration # 15     ecut=    40.00 Ry     beta= 0.60
     Davidson diagonalization with overlap
     ethr =  2.40E-06,  avg # of iterations =  5.8

     total cpu time spent up to now is     1488.2 secs

     total energy              =    -701.16217467 Ry
     Harris-Foulkes estimate   =    -701.16216124 Ry
     estimated scf accuracy    <       0.00010429 Ry

     iteration # 16     ecut=    40.00 Ry     beta= 0.60
     Davidson diagonalization with overlap
     ethr =  1.43E-07,  avg # of iterations =  5.4

     total cpu time spent up to now is     1522.0 secs

     total energy              =    -701.16210194 Ry
     Harris-Foulkes estimate   =    -701.16221801 Ry
     estimated scf accuracy    <       0.00056306 Ry

     iteration # 17     ecut=    40.00 Ry     beta= 0.60
     Davidson diagonalization with overlap
     ethr =  1.43E-07,  avg # of iterations =  4.2

     total cpu time spent up to now is     1550.7 secs

     total energy              =    -701.16214890 Ry
     Harris-Foulkes estimate   =    -701.16215051 Ry
     estimated scf accuracy    <       0.00000479 Ry

     iteration # 18     ecut=    40.00 Ry     beta= 0.60
     Davidson diagonalization with overlap
     ethr =  6.56E-09,  avg # of iterations =  6.0

     total cpu time spent up to now is     1588.3 secs

     total energy              =    -701.16215006 Ry
     Harris-Foulkes estimate   =    -701.16215366 Ry
     estimated scf accuracy    <       0.00002927 Ry

     iteration # 19     ecut=    40.00 Ry     beta= 0.60
     Davidson diagonalization with overlap
     ethr =  6.56E-09,  avg # of iterations =  4.2

     total cpu time spent up to now is     1614.8 secs

     total energy              =    -701.16215076 Ry
     Harris-Foulkes estimate   =    -701.16215124 Ry
     estimated scf accuracy    <       0.00000245 Ry

     iteration # 20     ecut=    40.00 Ry     beta= 0.60
     Davidson diagonalization with overlap
     ethr =  3.35E-09,  avg # of iterations =  4.5

     total cpu time spent up to now is     1638.6 secs

     total energy              =    -701.16215100 Ry
     Harris-Foulkes estimate   =    -701.16215100 Ry
     estimated scf accuracy    <       0.00000001 Ry

     iteration # 21     ecut=    40.00 Ry     beta= 0.60
     Davidson diagonalization with overlap
     ethr =  1.98E-11,  avg # of iterations =  6.8

     total cpu time spent up to now is     1680.4 secs

     total energy              =    -701.16215110 Ry
     Harris-Foulkes estimate   =    -701.16215115 Ry
     estimated scf accuracy    <       0.00000051 Ry

     iteration # 22     ecut=    40.00 Ry     beta= 0.60
     Davidson diagonalization with overlap
     ethr =  1.98E-11,  avg # of iterations =  5.5

     total cpu time spent up to now is     1711.4 secs

     total energy              =    -701.16215110 Ry
     Harris-Foulkes estimate   =    -701.16215111 Ry
     estimated scf accuracy    <       0.00000012 Ry

     iteration # 23     ecut=    40.00 Ry     beta= 0.60
     Davidson diagonalization with overlap
     ethr =  1.98E-11,  avg # of iterations =  5.2

     total cpu time spent up to now is     1741.2 secs

     total energy              =    -701.16215111 Ry
     Harris-Foulkes estimate   =    -701.16215111 Ry
     estimated scf accuracy    <          1.4E-09 Ry

     iteration # 24     ecut=    40.00 Ry     beta= 0.60
     Davidson diagonalization with overlap
     ethr =  1.87E-12,  avg # of iterations =  3.4

     total cpu time spent up to now is     1763.3 secs

     total energy              =    -701.16215111 Ry
     Harris-Foulkes estimate   =    -701.16215111 Ry
     estimated scf accuracy    <          5.2E-10 Ry

     iteration # 25     ecut=    40.00 Ry     beta= 0.60
     Davidson diagonalization with overlap
     ethr =  7.15E-13,  avg # of iterations =  4.8

     total cpu time spent up to now is     1791.5 secs

     End of self-consistent calculation

     Number of k-points >= 100: set verbosity='high' to print the bands.

     the Fermi energy is    13.2040 ev

!    total energy              =    -701.16215111 Ry
     Harris-Foulkes estimate   =    -701.16215111 Ry
     estimated scf accuracy    <          6.0E-11 Ry

     The total energy is the sum of the following terms:

     one-electron contribution =    -240.43208558 Ry
     hartree contribution      =     142.28961537 Ry
     xc contribution           =     -90.73933162 Ry
     ewald contribution        =    -512.27683161 Ry
     smearing contrib. (-TS)   =      -0.00351766 Ry

     convergence has been achieved in  25 iterations

     Forces acting on atoms (cartesian axes, Ry/au):

     atom    1 type  2   force =     0.00000000    0.00091410    0.00000000
     atom    2 type  2   force =     0.00000000    0.00000000   -0.00149505
     atom    3 type  2   force =     0.00079163   -0.00045705    0.00000000
     atom    4 type  2   force =     0.00000000    0.00000000    0.00149505
     atom    5 type  2   force =    -0.00079163   -0.00045705    0.00000000
     atom    6 type  1   force =     0.00000000    0.00000000    0.00000000

     Total force =     0.002641     Total SCF correction =     0.000004


     Computing stress (Cartesian axis) and pressure

          total   stress  (Ry/bohr**3)                   (kbar)     P=  -73.00
  -0.00046913  -0.00000000   0.00000000        -69.01     -0.00      0.00
   0.00000000  -0.00046913   0.00000000          0.00    -69.01      0.00
   0.00000000   0.00000000  -0.00055042          0.00      0.00    -80.97


     number of scf cycles    =   2
     number of bfgs steps    =   1

     enthalpy old            =    -701.1233331806 Ry
     enthalpy new            =    -701.1621511060 Ry

     CASE: enthalpy_new < enthalpy_old

     new trust radius        =       0.1546336433 bohr
     new conv_thr            =            1.0E-10 Ry

     new unit-cell volume =    698.47497 a.u.^3 (   103.50331 Ang^3 )
     density =      5.33026 g/cm^3

CELL_PARAMETERS (alat=  1.88972599)
   2.906944025  -0.000000000   4.714428843
  -1.453472013   2.517487563   4.714428843
  -1.453472013  -2.517487563   4.714428843

ATOMIC_POSITIONS (angstrom)
Ti       0.000000000   0.001960831   9.428857685
Ti       0.000001454  -1.678325881   7.069307356
Ti       0.001698130  -0.000980415  14.143286528
Ti       1.453473467   0.839161682   7.073979171
Ti      -0.001698130  -0.000980415   4.714428843
Nb      -1.453470559   0.839161682   7.071643264


     NEW-OLD atomic charge density approx. for the potential
     extrapolated charge   67.56573, renormalised to   73.00000

     total cpu time spent up to now is     1802.7 secs

     Self-consistent Calculation

     iteration #  1     ecut=    40.00 Ry     beta= 0.60
     Davidson diagonalization with overlap
     c_bands:  2 eigenvalues not converged
     c_bands:  1 eigenvalues not converged
     c_bands:  1 eigenvalues not converged
     c_bands:  1 eigenvalues not converged
     c_bands:  1 eigenvalues not converged
     c_bands:  2 eigenvalues not converged
     c_bands:  1 eigenvalues not converged
     c_bands:  1 eigenvalues not converged
     c_bands:  1 eigenvalues not converged
     c_bands:  1 eigenvalues not converged
     c_bands:  1 eigenvalues not converged
     c_bands:  1 eigenvalues not converged
     c_bands:  1 eigenvalues not converged
     c_bands:  1 eigenvalues not converged
     c_bands:  3 eigenvalues not converged
     c_bands:  1 eigenvalues not converged
     c_bands:  1 eigenvalues not converged
     c_bands:  1 eigenvalues not converged
     c_bands:  1 eigenvalues not converged
     c_bands:  1 eigenvalues not converged
     c_bands:  1 eigenvalues not converged
     c_bands:  1 eigenvalues not converged
     c_bands:  2 eigenvalues not converged
     c_bands:  2 eigenvalues not converged
     c_bands:  1 eigenvalues not converged
     c_bands:  1 eigenvalues not converged
     ethr =  1.00E-06,  avg # of iterations = 15.5

     total cpu time spent up to now is     1881.6 secs

     total energy              =    -694.65215744 Ry
     Harris-Foulkes estimate   =    -713.90886714 Ry
     estimated scf accuracy    <       6.46866652 Ry

     iteration #  2     ecut=    40.00 Ry     beta= 0.60
     Davidson diagonalization with overlap
     ethr =  8.86E-03,  avg # of iterations =  4.3

     total cpu time spent up to now is     1921.3 secs

     total energy              =    -699.36868110 Ry
     Harris-Foulkes estimate   =    -709.22238368 Ry
     estimated scf accuracy    <      32.96477997 Ry

     iteration #  3     ecut=    40.00 Ry     beta= 0.60
     Davidson diagonalization with overlap
     ethr =  8.86E-03,  avg # of iterations =  3.3

     total cpu time spent up to now is     1955.1 secs

     total energy              =    -701.27267351 Ry
     Harris-Foulkes estimate   =    -702.34745986 Ry
     estimated scf accuracy    <       3.77448613 Ry

     iteration #  4     ecut=    40.00 Ry     beta= 0.60
     Davidson diagonalization with overlap
     ethr =  5.17E-03,  avg # of iterations =  2.5

     total cpu time spent up to now is     1983.5 secs

     total energy              =    -701.42053508 Ry
     Harris-Foulkes estimate   =    -701.69930986 Ry
     estimated scf accuracy    <       2.99193012 Ry

     iteration #  5     ecut=    40.00 Ry     beta= 0.60
     Davidson diagonalization with overlap
     ethr =  4.10E-03,  avg # of iterations =  1.0

     total cpu time spent up to now is     2007.8 secs

     total energy              =    -701.39214420 Ry
     Harris-Foulkes estimate   =    -701.48100472 Ry
     estimated scf accuracy    <       1.88351802 Ry

     iteration #  6     ecut=    40.00 Ry     beta= 0.60
     Davidson diagonalization with overlap
     ethr =  2.58E-03,  avg # of iterations =  1.0

     total cpu time spent up to now is     2032.1 secs

     total energy              =    -701.27404632 Ry
     Harris-Foulkes estimate   =    -701.40938958 Ry
     estimated scf accuracy    <       1.45706197 Ry

     iteration #  7     ecut=    40.00 Ry     beta= 0.60
     Davidson diagonalization with overlap
     ethr =  2.00E-03,  avg # of iterations =  1.1

     total cpu time spent up to now is     2056.5 secs

     total energy              =    -701.19698963 Ry
     Harris-Foulkes estimate   =    -701.29656337 Ry
     estimated scf accuracy    <       0.85871290 Ry

     iteration #  8     ecut=    40.00 Ry     beta= 0.60
     Davidson diagonalization with overlap
     ethr =  1.18E-03,  avg # of iterations =  2.6

     total cpu time spent up to now is     2083.4 secs

     total energy              =    -701.21140304 Ry
     Harris-Foulkes estimate   =    -701.22307459 Ry
     estimated scf accuracy    <       0.39941000 Ry

     iteration #  9     ecut=    40.00 Ry     beta= 0.60
     Davidson diagonalization with overlap
     ethr =  5.47E-04,  avg # of iterations =  3.9

     total cpu time spent up to now is     2112.6 secs

     total energy              =    -701.16874048 Ry
     Harris-Foulkes estimate   =    -701.22081787 Ry
     estimated scf accuracy    <       0.34781884 Ry

     iteration # 10     ecut=    40.00 Ry     beta= 0.60
     Davidson diagonalization with overlap
     ethr =  4.76E-04,  avg # of iterations =  2.8

     total cpu time spent up to now is     2140.3 secs

     total energy              =    -701.13078872 Ry
     Harris-Foulkes estimate   =    -701.18293117 Ry
     estimated scf accuracy    <       0.13363507 Ry

     iteration # 11     ecut=    40.00 Ry     beta= 0.60
     Davidson diagonalization with overlap
     ethr =  1.83E-04,  avg # of iterations =  6.2

     total cpu time spent up to now is     2187.5 secs

     total energy              =    -701.17256582 Ry
     Harris-Foulkes estimate   =    -701.17723055 Ry
     estimated scf accuracy    <       0.02954586 Ry

     iteration # 12     ecut=    40.00 Ry     beta= 0.60
     Davidson diagonalization with overlap
     c_bands:  1 eigenvalues not converged
     ethr =  4.05E-05,  avg # of iterations =  2.3

     total cpu time spent up to now is     2213.9 secs

     total energy              =    -701.17314175 Ry
     Harris-Foulkes estimate   =    -701.17394022 Ry
     estimated scf accuracy    <       0.00903173 Ry

     iteration # 13     ecut=    40.00 Ry     beta= 0.60
     Davidson diagonalization with overlap
     ethr =  1.24E-05,  avg # of iterations =  5.7

     total cpu time spent up to now is     2253.3 secs

     total energy              =    -701.17415706 Ry
     Harris-Foulkes estimate   =    -701.17434634 Ry
     estimated scf accuracy    <       0.00143254 Ry

     iteration # 14     ecut=    40.00 Ry     beta= 0.60
     Davidson diagonalization with overlap
     c_bands:  1 eigenvalues not converged
     c_bands:  1 eigenvalues not converged
     ethr =  1.96E-06,  avg # of iterations =  6.8

     total cpu time spent up to now is     2293.6 secs

     total energy              =    -701.17413304 Ry
     Harris-Foulkes estimate   =    -701.17430346 Ry
     estimated scf accuracy    <       0.00124779 Ry

     iteration # 15     ecut=    40.00 Ry     beta= 0.60
     Davidson diagonalization with overlap
     ethr =  1.71E-06,  avg # of iterations =  1.1

     total cpu time spent up to now is     2318.1 secs

     total energy              =    -701.17408036 Ry
     Harris-Foulkes estimate   =    -701.17416216 Ry
     estimated scf accuracy    <       0.00075622 Ry

     iteration # 16     ecut=    40.00 Ry     beta= 0.60
     Davidson diagonalization with overlap
     ethr =  1.04E-06,  avg # of iterations =  2.6

     total cpu time spent up to now is     2345.8 secs

     total energy              =    -701.17405344 Ry
     Harris-Foulkes estimate   =    -701.17411761 Ry
     estimated scf accuracy    <       0.00029275 Ry

     iteration # 17     ecut=    40.00 Ry     beta= 0.60
     Davidson diagonalization with overlap
     ethr =  4.01E-07,  avg # of iterations =  4.2

     total cpu time spent up to now is     2382.0 secs

     total energy              =    -701.17410094 Ry
     Harris-Foulkes estimate   =    -701.17410242 Ry
     estimated scf accuracy    <       0.00001652 Ry

     iteration # 18     ecut=    40.00 Ry     beta= 0.60
     Davidson diagonalization with overlap
     ethr =  2.26E-08,  avg # of iterations =  4.5

     total cpu time spent up to now is     2417.2 secs

     total energy              =    -701.17410240 Ry
     Harris-Foulkes estimate   =    -701.17410394 Ry
     estimated scf accuracy    <       0.00000700 Ry

     iteration # 19     ecut=    40.00 Ry     beta= 0.60
     Davidson diagonalization with overlap
     ethr =  9.59E-09,  avg # of iterations =  3.6

     total cpu time spent up to now is     2448.9 secs

     total energy              =    -701.17410324 Ry
     Harris-Foulkes estimate   =    -701.17410326 Ry
     estimated scf accuracy    <       0.00000025 Ry

     iteration # 20     ecut=    40.00 Ry     beta= 0.60
     Davidson diagonalization with overlap
     ethr =  3.39E-10,  avg # of iterations =  5.5

     total cpu time spent up to now is     2495.1 secs

     total energy              =    -701.17410336 Ry
     Harris-Foulkes estimate   =    -701.17410338 Ry
     estimated scf accuracy    <       0.00000018 Ry

     iteration # 21     ecut=    40.00 Ry     beta= 0.60
     Davidson diagonalization with overlap
     ethr =  2.42E-10,  avg # of iterations =  1.0

     total cpu time spent up to now is     2519.5 secs

     total energy              =    -701.17410335 Ry
     Harris-Foulkes estimate   =    -701.17410337 Ry
     estimated scf accuracy    <       0.00000007 Ry

     iteration # 22     ecut=    40.00 Ry     beta= 0.60
     Davidson diagonalization with overlap
     ethr =  9.83E-11,  avg # of iterations =  4.0

     total cpu time spent up to now is     2555.2 secs

     total energy              =    -701.17410336 Ry
     Harris-Foulkes estimate   =    -701.17410337 Ry
     estimated scf accuracy    <       0.00000003 Ry

     iteration # 23     ecut=    40.00 Ry     beta= 0.60
     Davidson diagonalization with overlap
     ethr =  3.76E-11,  avg # of iterations =  1.6

     total cpu time spent up to now is     2580.4 secs

     total energy              =    -701.17410336 Ry
     Harris-Foulkes estimate   =    -701.17410336 Ry
     estimated scf accuracy    <          5.8E-09 Ry

     iteration # 24     ecut=    40.00 Ry     beta= 0.60
     Davidson diagonalization with overlap
     ethr =  8.00E-12,  avg # of iterations =  4.2

     total cpu time spent up to now is     2618.3 secs

     total energy              =    -701.17410337 Ry
     Harris-Foulkes estimate   =    -701.17410337 Ry
     estimated scf accuracy    <          3.8E-09 Ry

     iteration # 25     ecut=    40.00 Ry     beta= 0.60
     Davidson diagonalization with overlap
     ethr =  5.15E-12,  avg # of iterations =  1.0

     total cpu time spent up to now is     2642.6 secs

     total energy              =    -701.17410337 Ry
     Harris-Foulkes estimate   =    -701.17410337 Ry
     estimated scf accuracy    <          1.6E-09 Ry

     iteration # 26     ecut=    40.00 Ry     beta= 0.60
     Davidson diagonalization with overlap
     ethr =  2.15E-12,  avg # of iterations =  3.2

     total cpu time spent up to now is     2671.6 secs

     total energy              =    -701.17410337 Ry
     Harris-Foulkes estimate   =    -701.17410337 Ry
     estimated scf accuracy    <          2.4E-10 Ry

     iteration # 27     ecut=    40.00 Ry     beta= 0.60
     Davidson diagonalization with overlap
     ethr =  3.30E-13,  avg # of iterations =  4.9

     total cpu time spent up to now is     2710.3 secs

     End of self-consistent calculation

     Number of k-points >= 100: set verbosity='high' to print the bands.

     the Fermi energy is    14.4606 ev

!    total energy              =    -701.17410337 Ry
     Harris-Foulkes estimate   =    -701.17410337 Ry
     estimated scf accuracy    <          3.6E-12 Ry

     The total energy is the sum of the following terms:

     one-electron contribution =    -220.71560592 Ry
     hartree contribution      =     136.22979054 Ry
     xc contribution           =     -91.11452048 Ry
     ewald contribution        =    -525.56992153 Ry
     smearing contrib. (-TS)   =      -0.00384597 Ry

     convergence has been achieved in  27 iterations

     Forces acting on atoms (cartesian axes, Ry/au):

     atom    1 type  2   force =     0.00000000   -0.00064014    0.00000000
     atom    2 type  2   force =     0.00000000    0.00000000   -0.00107417
     atom    3 type  2   force =    -0.00055438    0.00032007    0.00000000
     atom    4 type  2   force =     0.00000000    0.00000000    0.00107417
     atom    5 type  2   force =     0.00055438    0.00032007    0.00000000
     atom    6 type  1   force =    -0.00000000    0.00000000   -0.00000000

     Total force =     0.001881     Total SCF correction =     0.000001


     Computing stress (Cartesian axis) and pressure

          total   stress  (Ry/bohr**3)                   (kbar)     P=   15.86
   0.00011934   0.00000000   0.00000000         17.56      0.00      0.00
   0.00000000   0.00011934   0.00000000          0.00     17.56      0.00
  -0.00000000   0.00000000   0.00008476         -0.00      0.00     12.47


     number of scf cycles    =   3
     number of bfgs steps    =   2

     enthalpy old            =    -701.1621511060 Ry
     enthalpy new            =    -701.1741033654 Ry

     CASE: enthalpy_new < enthalpy_old

     new trust radius        =       0.0236629549 bohr
     new conv_thr            =            1.0E-10 Ry

     new unit-cell volume =    707.71029 a.u.^3 (   104.87184 Ang^3 )
     density =      5.26070 g/cm^3

CELL_PARAMETERS (alat=  1.88972599)
   2.919957708  -0.000000000   4.734280257
  -1.459978854   2.528757743   4.734280257
  -1.459978854  -2.528757743   4.734280257

ATOMIC_POSITIONS (angstrom)
Ti      -0.000000000   0.001629558   9.468560515
Ti       0.000001460  -1.685839338   7.098781417
Ti       0.001411238  -0.000814779  14.202840772
Ti       1.459980315   0.842918405   7.104059355
Ti      -0.001411238  -0.000814779   4.734280257
Nb      -1.459977394   0.842918405   7.101420386


     NEW-OLD atomic charge density approx. for the potential
     extrapolated charge   73.88733, renormalised to   73.00000

     total cpu time spent up to now is     2724.2 secs

     Self-consistent Calculation

     iteration #  1     ecut=    40.00 Ry     beta= 0.60
     Davidson diagonalization with overlap
     ethr =  1.00E-06,  avg # of iterations = 11.1

     total cpu time spent up to now is     2798.9 secs

     total energy              =    -701.09076942 Ry
     Harris-Foulkes estimate   =    -699.22931990 Ry
     estimated scf accuracy    <       0.07164146 Ry

     iteration #  2     ecut=    40.00 Ry     beta= 0.60
     Davidson diagonalization with overlap
     ethr =  9.81E-05,  avg # of iterations =  5.3

     total cpu time spent up to now is     2851.5 secs

     total energy              =    -701.10883864 Ry
     Harris-Foulkes estimate   =    -701.27493842 Ry
     estimated scf accuracy    <       0.74664089 Ry

     iteration #  3     ecut=    40.00 Ry     beta= 0.60
     Davidson diagonalization with overlap
     ethr =  9.81E-05,  avg # of iterations =  5.0

     total cpu time spent up to now is     2896.0 secs

     total energy              =    -701.16223594 Ry
     Harris-Foulkes estimate   =    -701.19734200 Ry
     estimated scf accuracy    <       0.15009282 Ry

     iteration #  4     ecut=    40.00 Ry     beta= 0.60
     Davidson diagonalization with overlap
     ethr =  9.81E-05,  avg # of iterations =  4.5

     total cpu time spent up to now is     2931.9 secs

     total energy              =    -701.17268720 Ry
     Harris-Foulkes estimate   =    -701.18629351 Ry
     estimated scf accuracy    <       0.12409685 Ry

     iteration #  5     ecut=    40.00 Ry     beta= 0.60
     Davidson diagonalization with overlap
     ethr =  9.81E-05,  avg # of iterations =  1.0

     total cpu time spent up to now is     2956.4 secs

     total energy              =    -701.17677133 Ry
     Harris-Foulkes estimate   =    -701.17728293 Ry
     estimated scf accuracy    <       0.02529035 Ry

     iteration #  6     ecut=    40.00 Ry     beta= 0.60
     Davidson diagonalization with overlap
     ethr =  3.46E-05,  avg # of iterations =  2.9

     total cpu time spent up to now is     2984.3 secs

     total energy              =    -701.17710820 Ry
     Harris-Foulkes estimate   =    -701.17756790 Ry
     estimated scf accuracy    <       0.01990751 Ry

     iteration #  7     ecut=    40.00 Ry     beta= 0.60
     Davidson diagonalization with overlap
     ethr =  2.73E-05,  avg # of iterations =  1.3

     total cpu time spent up to now is     3009.0 secs

     total energy              =    -701.17425480 Ry
     Harris-Foulkes estimate   =    -701.17741608 Ry
     estimated scf accuracy    <       0.01708896 Ry

     iteration #  8     ecut=    40.00 Ry     beta= 0.60
     Davidson diagonalization with overlap
     ethr =  2.34E-05,  avg # of iterations =  3.6

     total cpu time spent up to now is     3039.3 secs

     total energy              =    -701.17469713 Ry
     Harris-Foulkes estimate   =    -701.17528565 Ry
     estimated scf accuracy    <       0.00495727 Ry

     iteration #  9     ecut=    40.00 Ry     beta= 0.60
     Davidson diagonalization with overlap
     ethr =  6.79E-06,  avg # of iterations =  4.8

     total cpu time spent up to now is     3073.3 secs

     total energy              =    -701.17446533 Ry
     Harris-Foulkes estimate   =    -701.17508730 Ry
     estimated scf accuracy    <       0.00256824 Ry

     iteration # 10     ecut=    40.00 Ry     beta= 0.60
     Davidson diagonalization with overlap
     ethr =  3.52E-06,  avg # of iterations =  3.2

     total cpu time spent up to now is     3102.5 secs

     total energy              =    -701.17438260 Ry
     Harris-Foulkes estimate   =    -701.17461236 Ry
     estimated scf accuracy    <       0.00083393 Ry

     iteration # 11     ecut=    40.00 Ry     beta= 0.60
     Davidson diagonalization with overlap
     ethr =  1.14E-06,  avg # of iterations =  4.8

     total cpu time spent up to now is     3141.6 secs

     total energy              =    -701.17457226 Ry
     Harris-Foulkes estimate   =    -701.17458160 Ry
     estimated scf accuracy    <       0.00026278 Ry

     iteration # 12     ecut=    40.00 Ry     beta= 0.60
     Davidson diagonalization with overlap
     ethr =  3.60E-07,  avg # of iterations =  1.4

     total cpu time spent up to now is     3166.5 secs

     total energy              =    -701.17457023 Ry
     Harris-Foulkes estimate   =    -701.17457870 Ry
     estimated scf accuracy    <       0.00018014 Ry

     iteration # 13     ecut=    40.00 Ry     beta= 0.60
     Davidson diagonalization with overlap
     ethr =  2.47E-07,  avg # of iterations =  1.1

     total cpu time spent up to now is     3190.9 secs

     total energy              =    -701.17456679 Ry
     Harris-Foulkes estimate   =    -701.17457367 Ry
     estimated scf accuracy    <       0.00009242 Ry

     iteration # 14     ecut=    40.00 Ry     beta= 0.60
     Davidson diagonalization with overlap
     ethr =  1.27E-07,  avg # of iterations =  2.0

     total cpu time spent up to now is     3216.7 secs

     total energy              =    -701.17456108 Ry
     Harris-Foulkes estimate   =    -701.17456897 Ry
     estimated scf accuracy    <       0.00004003 Ry

     iteration # 15     ecut=    40.00 Ry     beta= 0.60
     Davidson diagonalization with overlap
     ethr =  5.48E-08,  avg # of iterations =  4.9

     total cpu time spent up to now is     3246.9 secs

     total energy              =    -701.17456316 Ry
     Harris-Foulkes estimate   =    -701.17457434 Ry
     estimated scf accuracy    <       0.00005691 Ry

     iteration # 16     ecut=    40.00 Ry     beta= 0.60
     Davidson diagonalization with overlap
     ethr =  5.48E-08,  avg # of iterations =  4.2

     total cpu time spent up to now is     3271.2 secs

     total energy              =    -701.17456963 Ry
     Harris-Foulkes estimate   =    -701.17457109 Ry
     estimated scf accuracy    <       0.00001458 Ry

     iteration # 17     ecut=    40.00 Ry     beta= 0.60
     Davidson diagonalization with overlap
     ethr =  2.00E-08,  avg # of iterations =  2.9

     total cpu time spent up to now is     3292.6 secs

     total energy              =    -701.17457015 Ry
     Harris-Foulkes estimate   =    -701.17457043 Ry
     estimated scf accuracy    <       0.00000705 Ry

     iteration # 18     ecut=    40.00 Ry     beta= 0.60
     Davidson diagonalization with overlap
     ethr =  9.66E-09,  avg # of iterations =  1.3

     total cpu time spent up to now is     3311.6 secs

     total energy              =    -701.17456988 Ry
     Harris-Foulkes estimate   =    -701.17457030 Ry
     estimated scf accuracy    <       0.00000483 Ry

     iteration # 19     ecut=    40.00 Ry     beta= 0.60
     Davidson diagonalization with overlap
     ethr =  6.61E-09,  avg # of iterations =  3.3

     total cpu time spent up to now is     3333.2 secs

     total energy              =    -701.17456985 Ry
     Harris-Foulkes estimate   =    -701.17457007 Ry
     estimated scf accuracy    <       0.00000171 Ry

     iteration # 20     ecut=    40.00 Ry     beta= 0.60
     Davidson diagonalization with overlap
     ethr =  2.34E-09,  avg # of iterations =  4.1

     total cpu time spent up to now is     3359.0 secs

     total energy              =    -701.17457013 Ry
     Harris-Foulkes estimate   =    -701.17457015 Ry
     estimated scf accuracy    <       0.00000022 Ry

     iteration # 21     ecut=    40.00 Ry     beta= 0.60
     Davidson diagonalization with overlap
     ethr =  3.01E-10,  avg # of iterations =  3.9

     total cpu time spent up to now is     3382.4 secs

     total energy              =    -701.17457014 Ry
     Harris-Foulkes estimate   =    -701.17457015 Ry
     estimated scf accuracy    <       0.00000015 Ry

     iteration # 22     ecut=    40.00 Ry     beta= 0.60
     Davidson diagonalization with overlap
     ethr =  2.04E-10,  avg # of iterations =  4.2

     total cpu time spent up to now is     3408.9 secs

     total energy              =    -701.17457012 Ry
     Harris-Foulkes estimate   =    -701.17457018 Ry
     estimated scf accuracy    <       0.00000052 Ry

     iteration # 23     ecut=    40.00 Ry     beta= 0.60
     Davidson diagonalization with overlap
     ethr =  2.04E-10,  avg # of iterations =  2.1

     total cpu time spent up to now is     3428.8 secs

     total energy              =    -701.17457012 Ry
     Harris-Foulkes estimate   =    -701.17457014 Ry
     estimated scf accuracy    <       0.00000012 Ry

     iteration # 24     ecut=    40.00 Ry     beta= 0.60
     Davidson diagonalization with overlap
     ethr =  1.60E-10,  avg # of iterations =  4.0

     total cpu time spent up to now is     3455.1 secs

     total energy              =    -701.17457013 Ry
     Harris-Foulkes estimate   =    -701.17457015 Ry
     estimated scf accuracy    <       0.00000010 Ry

     iteration # 25     ecut=    40.00 Ry     beta= 0.60
     Davidson diagonalization with overlap
     ethr =  1.38E-10,  avg # of iterations =  2.3

     total cpu time spent up to now is     3475.2 secs

     total energy              =    -701.17457014 Ry
     Harris-Foulkes estimate   =    -701.17457014 Ry
     estimated scf accuracy    <          1.2E-09 Ry

     iteration # 26     ecut=    40.00 Ry     beta= 0.60
     Davidson diagonalization with overlap
     ethr =  1.59E-12,  avg # of iterations =  6.4

     total cpu time spent up to now is     3511.2 secs

     total energy              =    -701.17457014 Ry
     Harris-Foulkes estimate   =    -701.17457014 Ry
     estimated scf accuracy    <       0.00000002 Ry

     iteration # 27     ecut=    40.00 Ry     beta= 0.60
     Davidson diagonalization with overlap
     ethr =  1.59E-12,  avg # of iterations =  4.4

     total cpu time spent up to now is     3539.0 secs

     total energy              =    -701.17457014 Ry
     Harris-Foulkes estimate   =    -701.17457014 Ry
     estimated scf accuracy    <          2.6E-09 Ry

     iteration # 28     ecut=    40.00 Ry     beta= 0.60
     Davidson diagonalization with overlap
     ethr =  1.59E-12,  avg # of iterations =  1.0

     total cpu time spent up to now is     3557.8 secs

     total energy              =    -701.17457014 Ry
     Harris-Foulkes estimate   =    -701.17457014 Ry
     estimated scf accuracy    <          1.5E-09 Ry

     iteration # 29     ecut=    40.00 Ry     beta= 0.60
     Davidson diagonalization with overlap
     ethr =  1.59E-12,  avg # of iterations =  3.1

     total cpu time spent up to now is     3580.6 secs

     End of self-consistent calculation

     Number of k-points >= 100: set verbosity='high' to print the bands.

     the Fermi energy is    14.2404 ev

!    total energy              =    -701.17457014 Ry
     Harris-Foulkes estimate   =    -701.17457014 Ry
     estimated scf accuracy    <          4.1E-12 Ry

     The total energy is the sum of the following terms:

     one-electron contribution =    -224.10815972 Ry
     hartree contribution      =     137.25904751 Ry
     xc contribution           =     -91.04784046 Ry
     ewald contribution        =    -523.27381593 Ry
     smearing contrib. (-TS)   =      -0.00380155 Ry

     convergence has been achieved in  29 iterations

     Forces acting on atoms (cartesian axes, Ry/au):

     atom    1 type  2   force =     0.00000000   -0.00036681    0.00000000
     atom    2 type  2   force =     0.00000000    0.00000000   -0.00106064
     atom    3 type  2   force =    -0.00031767    0.00018340    0.00000000
     atom    4 type  2   force =     0.00000000    0.00000000    0.00106064
     atom    5 type  2   force =     0.00031767    0.00018340    0.00000000
     atom    6 type  1   force =     0.00000000    0.00000000    0.00000000

     Total force =     0.001629     Total SCF correction =     0.000001


     Computing stress (Cartesian axis) and pressure

          total   stress  (Ry/bohr**3)                   (kbar)     P=   -1.03
   0.00000523   0.00000000  -0.00000000          0.77      0.00     -0.00
   0.00000000   0.00000523  -0.00000000          0.00      0.77     -0.00
  -0.00000000  -0.00000000  -0.00003138         -0.00     -0.00     -4.62


     number of scf cycles    =   4
     number of bfgs steps    =   3

     enthalpy old            =    -701.1741033654 Ry
     enthalpy new            =    -701.1745701408 Ry

     CASE: enthalpy_new < enthalpy_old

     new trust radius        =       0.0043898995 bohr
     new conv_thr            =            1.0E-10 Ry

     new unit-cell volume =    707.20439 a.u.^3 (   104.79688 Ang^3 )
     density =      5.26447 g/cm^3

CELL_PARAMETERS (alat=  1.88972599)
   2.920118772  -0.000000000   4.730374091
  -1.460059386   2.528897228   4.730374091
  -1.460059386  -2.528897228   4.730374091

ATOMIC_POSITIONS (angstrom)
Ti       0.000000000   0.001457939   9.460748181
Ti       0.000001461  -1.685932328   7.092421364
Ti       0.001262612  -0.000728969  14.191122272
Ti       1.460060847   0.842964900   7.098700907
Ti      -0.001262612  -0.000728969   4.730374091
Nb      -1.460057926   0.842964900   7.095561136


     NEW-OLD atomic charge density approx. for the potential
     extrapolated charge   72.95136, renormalised to   73.00000

     total cpu time spent up to now is     3591.8 secs

     Self-consistent Calculation

     iteration #  1     ecut=    40.00 Ry     beta= 0.60
     Davidson diagonalization with overlap
     ethr =  1.00E-06,  avg # of iterations =  3.1

     total cpu time spent up to now is     3622.7 secs

     total energy              =    -701.17434456 Ry
     Harris-Foulkes estimate   =    -701.28201705 Ry
     estimated scf accuracy    <       0.00020695 Ry

     iteration #  2     ecut=    40.00 Ry     beta= 0.60
     Davidson diagonalization with overlap
     ethr =  2.83E-07,  avg # of iterations =  5.0

     total cpu time spent up to now is     3662.1 secs

     total energy              =    -701.17441053 Ry
     Harris-Foulkes estimate   =    -701.17484821 Ry
     estimated scf accuracy    <       0.00189470 Ry

     iteration #  3     ecut=    40.00 Ry     beta= 0.60
     Davidson diagonalization with overlap
     ethr =  2.83E-07,  avg # of iterations =  5.0

     total cpu time spent up to now is     3692.8 secs

     total energy              =    -701.17455978 Ry
     Harris-Foulkes estimate   =    -701.17465704 Ry
     estimated scf accuracy    <       0.00038755 Ry

     iteration #  4     ecut=    40.00 Ry     beta= 0.60
     Davidson diagonalization with overlap
     ethr =  2.83E-07,  avg # of iterations =  3.8

     total cpu time spent up to now is     3717.8 secs

     total energy              =    -701.17459168 Ry
     Harris-Foulkes estimate   =    -701.17461204 Ry
     estimated scf accuracy    <       0.00019194 Ry

     iteration #  5     ecut=    40.00 Ry     beta= 0.60
     Davidson diagonalization with overlap
     ethr =  2.63E-07,  avg # of iterations =  1.0

     total cpu time spent up to now is     3736.5 secs

     total energy              =    -701.17459213 Ry
     Harris-Foulkes estimate   =    -701.17459933 Ry
     estimated scf accuracy    <       0.00005379 Ry

     iteration #  6     ecut=    40.00 Ry     beta= 0.60
     Davidson diagonalization with overlap
     ethr =  7.37E-08,  avg # of iterations =  3.2

     total cpu time spent up to now is     3757.8 secs

     total energy              =    -701.17458699 Ry
     Harris-Foulkes estimate   =    -701.17459406 Ry
     estimated scf accuracy    <       0.00002866 Ry

     iteration #  7     ecut=    40.00 Ry     beta= 0.60
     Davidson diagonalization with overlap
     ethr =  3.93E-08,  avg # of iterations =  3.6

     total cpu time spent up to now is     3781.9 secs

     total energy              =    -701.17458817 Ry
     Harris-Foulkes estimate   =    -701.17458988 Ry
     estimated scf accuracy    <       0.00001060 Ry

     iteration #  8     ecut=    40.00 Ry     beta= 0.60
     Davidson diagonalization with overlap
     ethr =  1.45E-08,  avg # of iterations =  2.1

     total cpu time spent up to now is     3802.1 secs

     total energy              =    -701.17458757 Ry
     Harris-Foulkes estimate   =    -701.17458865 Ry
     estimated scf accuracy    <       0.00000538 Ry

     iteration #  9     ecut=    40.00 Ry     beta= 0.60
     Davidson diagonalization with overlap
     ethr =  7.36E-09,  avg # of iterations =  3.3

     total cpu time spent up to now is     3825.7 secs

     total energy              =    -701.17458801 Ry
     Harris-Foulkes estimate   =    -701.17458814 Ry
     estimated scf accuracy    <       0.00000096 Ry

     iteration # 10     ecut=    40.00 Ry     beta= 0.60
     Davidson diagonalization with overlap
     ethr =  1.32E-09,  avg # of iterations =  4.3

     total cpu time spent up to now is     3851.3 secs

     total energy              =    -701.17458815 Ry
     Harris-Foulkes estimate   =    -701.17458816 Ry
     estimated scf accuracy    <       0.00000004 Ry

     iteration # 11     ecut=    40.00 Ry     beta= 0.60
     Davidson diagonalization with overlap
     ethr =  5.41E-11,  avg # of iterations =  5.5

     total cpu time spent up to now is     3884.0 secs

     total energy              =    -701.17458816 Ry
     Harris-Foulkes estimate   =    -701.17458817 Ry
     estimated scf accuracy    <       0.00000004 Ry

     iteration # 12     ecut=    40.00 Ry     beta= 0.60
     Davidson diagonalization with overlap
     ethr =  5.31E-11,  avg # of iterations =  1.1

     total cpu time spent up to now is     3902.8 secs

     total energy              =    -701.17458816 Ry
     Harris-Foulkes estimate   =    -701.17458817 Ry
     estimated scf accuracy    <          9.7E-09 Ry

     iteration # 13     ecut=    40.00 Ry     beta= 0.60
     Davidson diagonalization with overlap
     ethr =  1.33E-11,  avg # of iterations =  4.6

     total cpu time spent up to now is     3931.4 secs

     total energy              =    -701.17458817 Ry
     Harris-Foulkes estimate   =    -701.17458817 Ry
     estimated scf accuracy    <          6.1E-09 Ry

     iteration # 14     ecut=    40.00 Ry     beta= 0.60
     Davidson diagonalization with overlap
     ethr =  8.40E-12,  avg # of iterations =  1.0

     total cpu time spent up to now is     3950.1 secs

     total energy              =    -701.17458817 Ry
     Harris-Foulkes estimate   =    -701.17458817 Ry
     estimated scf accuracy    <          2.1E-09 Ry

     iteration # 15     ecut=    40.00 Ry     beta= 0.60
     Davidson diagonalization with overlap
     ethr =  2.87E-12,  avg # of iterations =  4.2

     total cpu time spent up to now is     3976.7 secs

     total energy              =    -701.17458817 Ry
     Harris-Foulkes estimate   =    -701.17458817 Ry
     estimated scf accuracy    <          1.4E-09 Ry

     iteration # 16     ecut=    40.00 Ry     beta= 0.60
     Davidson diagonalization with overlap
     ethr =  1.96E-12,  avg # of iterations =  1.0

     total cpu time spent up to now is     3995.4 secs

     total energy              =    -701.17458817 Ry
     Harris-Foulkes estimate   =    -701.17458817 Ry
     estimated scf accuracy    <          6.9E-10 Ry

     iteration # 17     ecut=    40.00 Ry     beta= 0.60
     Davidson diagonalization with overlap
     ethr =  9.42E-13,  avg # of iterations =  3.7

     total cpu time spent up to now is     4020.3 secs

     End of self-consistent calculation

     Number of k-points >= 100: set verbosity='high' to print the bands.

     the Fermi energy is    14.2527 ev

!    total energy              =    -701.17458817 Ry
     Harris-Foulkes estimate   =    -701.17458817 Ry
     estimated scf accuracy    <          3.6E-11 Ry

     The total energy is the sum of the following terms:

     one-electron contribution =    -223.92500611 Ry
     hartree contribution      =     137.20307062 Ry
     xc contribution           =     -91.05134996 Ry
     ewald contribution        =    -523.39748976 Ry
     smearing contrib. (-TS)   =      -0.00381296 Ry

     convergence has been achieved in  17 iterations

     Forces acting on atoms (cartesian axes, Ry/au):

     atom    1 type  2   force =    -0.00000000   -0.00039326    0.00000000
     atom    2 type  2   force =     0.00000000    0.00000000   -0.00097207
     atom    3 type  2   force =    -0.00034057    0.00019663    0.00000000
     atom    4 type  2   force =     0.00000000    0.00000000    0.00097207
     atom    5 type  2   force =     0.00034057    0.00019663   -0.00000000
     atom    6 type  1   force =     0.00000000    0.00000000    0.00000000

     Total force =     0.001534     Total SCF correction =     0.000002


     Computing stress (Cartesian axis) and pressure

          total   stress  (Ry/bohr**3)                   (kbar)     P=   -0.11
   0.00000914  -0.00000000  -0.00000000          1.34     -0.00     -0.00
  -0.00000000   0.00000914   0.00000000         -0.00      1.34      0.00
   0.00000000   0.00000000  -0.00002056          0.00      0.00     -3.03


     number of scf cycles    =   5
     number of bfgs steps    =   4

     enthalpy old            =    -701.1745701408 Ry
     enthalpy new            =    -701.1745881668 Ry

     CASE: enthalpy_new < enthalpy_old

     new trust radius        =       0.0048311492 bohr
     new conv_thr            =            9.7E-11 Ry

     new unit-cell volume =    707.00835 a.u.^3 (   104.76783 Ang^3 )
     density =      5.26593 g/cm^3

CELL_PARAMETERS (alat=  1.88972599)
   2.921040963  -0.000000000   4.726077307
  -1.460520481   2.529695868   4.726077307
  -1.460520481  -2.529695868   4.726077307

ATOMIC_POSITIONS (angstrom)
Ti      -0.000000000   0.001153967   9.452154614
Ti       0.000001461  -1.686464755   7.085209089
Ti       0.000999365  -0.000576983  14.178231921
Ti       1.460521942   0.843231113   7.093022831
Ti      -0.000999365  -0.000576983   4.726077307
Nb      -1.460519020   0.843231113   7.089115960


     NEW-OLD atomic charge density approx. for the potential
     extrapolated charge   72.98115, renormalised to   73.00000

     total cpu time spent up to now is     4031.4 secs

     Self-consistent Calculation

     iteration #  1     ecut=    40.00 Ry     beta= 0.60
     Davidson diagonalization with overlap
     ethr =  1.00E-06,  avg # of iterations =  3.0

     Threshold (ethr) on eigenvalues was too large:
     Diagonalizing with lowered threshold

     Davidson diagonalization with overlap
     ethr =  3.90E-08,  avg # of iterations =  3.6

     total cpu time spent up to now is     4085.8 secs

     total energy              =    -701.17456612 Ry
     Harris-Foulkes estimate   =    -701.21622429 Ry
     estimated scf accuracy    <       0.00003515 Ry

     iteration #  2     ecut=    40.00 Ry     beta= 0.60
     Davidson diagonalization with overlap
     ethr =  4.82E-08,  avg # of iterations =  5.2

     total cpu time spent up to now is     4125.6 secs

     total energy              =    -701.17457119 Ry
     Harris-Foulkes estimate   =    -701.17465497 Ry
     estimated scf accuracy    <       0.00038649 Ry

     iteration #  3     ecut=    40.00 Ry     beta= 0.60
     Davidson diagonalization with overlap
     ethr =  4.82E-08,  avg # of iterations =  5.6

     total cpu time spent up to now is     4157.6 secs

     total energy              =    -701.17460306 Ry
     Harris-Foulkes estimate   =    -701.17461568 Ry
     estimated scf accuracy    <       0.00004535 Ry

     iteration #  4     ecut=    40.00 Ry     beta= 0.60
     Davidson diagonalization with overlap
     ethr =  4.82E-08,  avg # of iterations =  3.6

     total cpu time spent up to now is     4181.1 secs

     total energy              =    -701.17460648 Ry
     Harris-Foulkes estimate   =    -701.17460823 Ry
     estimated scf accuracy    <       0.00001384 Ry

     iteration #  5     ecut=    40.00 Ry     beta= 0.60
     Davidson diagonalization with overlap
     ethr =  1.90E-08,  avg # of iterations =  1.7

     total cpu time spent up to now is     4200.6 secs

     total energy              =    -701.17460496 Ry
     Harris-Foulkes estimate   =    -701.17460754 Ry
     estimated scf accuracy    <       0.00000697 Ry

     iteration #  6     ecut=    40.00 Ry     beta= 0.60
     Davidson diagonalization with overlap
     ethr =  9.55E-09,  avg # of iterations =  3.0

     total cpu time spent up to now is     4224.8 secs

     total energy              =    -701.17460561 Ry
     Harris-Foulkes estimate   =    -701.17460592 Ry
     estimated scf accuracy    <       0.00000144 Ry

     iteration #  7     ecut=    40.00 Ry     beta= 0.60
     Davidson diagonalization with overlap
     ethr =  1.97E-09,  avg # of iterations =  3.5

     total cpu time spent up to now is     4249.9 secs

     total energy              =    -701.17460579 Ry
     Harris-Foulkes estimate   =    -701.17460581 Ry
     estimated scf accuracy    <       0.00000022 Ry

     iteration #  8     ecut=    40.00 Ry     beta= 0.60
     Davidson diagonalization with overlap
     ethr =  3.02E-10,  avg # of iterations =  4.3

     total cpu time spent up to now is     4276.1 secs

     total energy              =    -701.17460581 Ry
     Harris-Foulkes estimate   =    -701.17460582 Ry
     estimated scf accuracy    <       0.00000003 Ry

     iteration #  9     ecut=    40.00 Ry     beta= 0.60
     Davidson diagonalization with overlap
     ethr =  4.09E-11,  avg # of iterations =  4.7

     total cpu time spent up to now is     4303.9 secs

     total energy              =    -701.17460582 Ry
     Harris-Foulkes estimate   =    -701.17460582 Ry
     estimated scf accuracy    <          6.4E-10 Ry

     iteration # 10     ecut=    40.00 Ry     beta= 0.60
     Davidson diagonalization with overlap
     ethr =  8.74E-13,  avg # of iterations =  5.7

     total cpu time spent up to now is     4342.6 secs

     total energy              =    -701.17460582 Ry
     Harris-Foulkes estimate   =    -701.17460582 Ry
     estimated scf accuracy    <          2.3E-10 Ry

     iteration # 11     ecut=    40.00 Ry     beta= 0.60
     Davidson diagonalization with overlap
     ethr =  3.12E-13,  avg # of iterations =  1.0

     total cpu time spent up to now is     4361.3 secs

     total energy              =    -701.17460582 Ry
     Harris-Foulkes estimate   =    -701.17460582 Ry
     estimated scf accuracy    <          1.6E-10 Ry

     iteration # 12     ecut=    40.00 Ry     beta= 0.60
     Davidson diagonalization with overlap
     ethr =  2.16E-13,  avg # of iterations =  3.3

     total cpu time spent up to now is     4385.0 secs

     End of self-consistent calculation

     Number of k-points >= 100: set verbosity='high' to print the bands.

     the Fermi energy is    14.2579 ev

!    total energy              =    -701.17460582 Ry
     Harris-Foulkes estimate   =    -701.17460582 Ry
     estimated scf accuracy    <          4.9E-12 Ry

     The total energy is the sum of the following terms:

     one-electron contribution =    -223.85560109 Ry
     hartree contribution      =     137.18169906 Ry
     xc contribution           =     -91.05263289 Ry
     ewald contribution        =    -523.44424521 Ry
     smearing contrib. (-TS)   =      -0.00382569 Ry

     convergence has been achieved in  12 iterations

     Forces acting on atoms (cartesian axes, Ry/au):

     atom    1 type  2   force =     0.00000000   -0.00041405    0.00000000
     atom    2 type  2   force =     0.00000000    0.00000000   -0.00084372
     atom    3 type  2   force =    -0.00035858    0.00020702   -0.00000000
     atom    4 type  2   force =     0.00000000    0.00000000    0.00084372
     atom    5 type  2   force =     0.00035858    0.00020702    0.00000000
     atom    6 type  1   force =    -0.00000000    0.00000000    0.00000000

     Total force =     0.001392     Total SCF correction =     0.000002


     Computing stress (Cartesian axis) and pressure

          total   stress  (Ry/bohr**3)                   (kbar)     P=    0.29
   0.00000871   0.00000000   0.00000000          1.28      0.00      0.00
  -0.00000000   0.00000871   0.00000000         -0.00      1.28      0.00
   0.00000000   0.00000000  -0.00001158          0.00      0.00     -1.70


     number of scf cycles    =   6
     number of bfgs steps    =   5

     enthalpy old            =    -701.1745881668 Ry
     enthalpy new            =    -701.1746058187 Ry

     CASE: enthalpy_new < enthalpy_old

     new trust radius        =       0.0072523069 bohr
     new conv_thr            =            8.4E-11 Ry

     new unit-cell volume =    707.00154 a.u.^3 (   104.76682 Ang^3 )
     density =      5.26598 g/cm^3

CELL_PARAMETERS (alat=  1.88972599)
   2.923020712  -0.000000000   4.719632132
  -1.461510356   2.531410381   4.719632132
  -1.461510356  -2.531410381   4.719632132

ATOMIC_POSITIONS (angstrom)
Ti      -0.000000000   0.000500797   9.439264263
Ti       0.000001462  -1.687607765   7.074089977
Ti       0.000433703  -0.000250398  14.158896395
Ti       1.461511818   0.843802617   7.084806418
Ti      -0.000433703  -0.000250398   4.719632132
Nb      -1.461508894   0.843802617   7.079448197


     NEW-OLD atomic charge density approx. for the potential
     extrapolated charge   72.99935, renormalised to   73.00000

     total cpu time spent up to now is     4396.0 secs

     Self-consistent Calculation

     iteration #  1     ecut=    40.00 Ry     beta= 0.60
     Davidson diagonalization with overlap
     ethr =  1.00E-06,  avg # of iterations =  3.0

     Threshold (ethr) on eigenvalues was too large:
     Diagonalizing with lowered threshold

     Davidson diagonalization with overlap
     ethr =  9.50E-09,  avg # of iterations =  6.3

     total cpu time spent up to now is     4463.6 secs

     total energy              =    -701.17462007 Ry
     Harris-Foulkes estimate   =    -701.17606901 Ry
     estimated scf accuracy    <       0.00000666 Ry

     iteration #  2     ecut=    40.00 Ry     beta= 0.60
     Davidson diagonalization with overlap
[...]
     Davidson diagonalization with overlap
     ethr =  7.32E-03,  avg # of iterations =  6.1

     total cpu time spent up to now is     9577.7 secs

     total energy              =    -699.92113557 Ry
     Harris-Foulkes estimate   =    -702.08077216 Ry
     estimated scf accuracy    <      12.91755725 Ry

     iteration #  4     ecut=    40.00 Ry     beta= 0.60
     Davidson diagonalization with overlap
     ethr =  7.32E-03,  avg # of iterations =  5.0

     total cpu time spent up to now is     9603.6 secs

     total energy              =    -700.91758581 Ry
     Harris-Foulkes estimate   =    -701.50027459 Ry
     estimated scf accuracy    <       4.10484010 Ry

     iteration #  5     ecut=    40.00 Ry     beta= 0.60
     Davidson diagonalization with overlap
     ethr =  5.62E-03,  avg # of iterations =  1.2

     total cpu time spent up to now is     9621.5 secs

     total energy              =    -701.12085127 Ry
     Harris-Foulkes estimate   =    -701.13016888 Ry
     estimated scf accuracy    <       0.46103377 Ry

     iteration #  6     ecut=    40.00 Ry     beta= 0.60
     Davidson diagonalization with overlap
     ethr =  6.32E-04,  avg # of iterations =  5.6

     total cpu time spent up to now is     9651.7 secs

     total energy              =    -701.20284277 Ry
     Harris-Foulkes estimate   =    -701.20794360 Ry
     estimated scf accuracy    <       0.20618906 Ry

     iteration #  7     ecut=    40.00 Ry     beta= 0.60
     Davidson diagonalization with overlap
     ethr =  2.82E-04,  avg # of iterations =  1.5

     total cpu time spent up to now is     9669.9 secs

     total energy              =    -701.23313329 Ry
     Harris-Foulkes estimate   =    -701.20946715 Ry
     estimated scf accuracy    <       0.23504299 Ry

     iteration #  8     ecut=    40.00 Ry     beta= 0.60
     Davidson diagonalization with overlap
     ethr =  2.82E-04,  avg # of iterations =  5.6

     total cpu time spent up to now is     9701.2 secs

     total energy              =    -701.43884728 Ry
     Harris-Foulkes estimate   =    -701.35799104 Ry
     estimated scf accuracy    <       1.99738806 Ry

     iteration #  9     ecut=    40.00 Ry     beta= 0.60
     Davidson diagonalization with overlap
     ethr =  2.82E-04,  avg # of iterations =  1.3

     total cpu time spent up to now is     9719.2 secs

     total energy              =    -701.39622266 Ry
     Harris-Foulkes estimate   =    -701.44984242 Ry
     estimated scf accuracy    <       2.36892507 Ry

     iteration # 10     ecut=    40.00 Ry     beta= 0.60
     Davidson diagonalization with overlap
     ethr =  2.82E-04,  avg # of iterations =  1.0

     total cpu time spent up to now is     9737.0 secs

     total energy              =    -701.35954550 Ry
     Harris-Foulkes estimate   =    -701.40030610 Ry
     estimated scf accuracy    <       2.00840438 Ry

     iteration # 11     ecut=    40.00 Ry     beta= 0.60
     Davidson diagonalization with overlap
     ethr =  2.82E-04,  avg # of iterations =  1.0

     total cpu time spent up to now is     9754.8 secs

     total energy              =    -701.30124715 Ry
     Harris-Foulkes estimate   =    -701.36291904 Ry
     estimated scf accuracy    <       1.75526807 Ry

     iteration # 12     ecut=    40.00 Ry     beta= 0.60
     Davidson diagonalization with overlap
     ethr =  2.82E-04,  avg # of iterations =  1.0

     total cpu time spent up to now is     9772.7 secs

     total energy              =    -701.35386186 Ry
     Harris-Foulkes estimate   =    -701.30499505 Ry
     estimated scf accuracy    <       1.40093905 Ry

     iteration # 13     ecut=    40.00 Ry     beta= 0.60
     Davidson diagonalization with overlap
     ethr =  2.82E-04,  avg # of iterations =  1.0

     total cpu time spent up to now is     9790.5 secs

     total energy              =    -701.32743805 Ry
     Harris-Foulkes estimate   =    -701.35622208 Ry
     estimated scf accuracy    <       1.61827730 Ry

     iteration # 14     ecut=    40.00 Ry     beta= 0.60
     Davidson diagonalization with overlap
     ethr =  2.82E-04,  avg # of iterations =  1.0

     total cpu time spent up to now is     9808.3 secs

     total energy              =    -700.82165154 Ry
     Harris-Foulkes estimate   =    -701.32872181 Ry
     estimated scf accuracy    <       1.47035379 Ry

     iteration # 15     ecut=    40.00 Ry     beta= 0.60
     Davidson diagonalization with overlap
     ethr =  2.82E-04,  avg # of iterations =  6.0

     total cpu time spent up to now is     9846.0 secs

     total energy              =    -701.13741350 Ry
     Harris-Foulkes estimate   =    -701.35556374 Ry
     estimated scf accuracy    <       1.98696738 Ry

     iteration # 16     ecut=    40.00 Ry     beta= 0.60
     Davidson diagonalization with overlap
     ethr =  2.82E-04,  avg # of iterations =  3.9

     total cpu time spent up to now is     9870.1 secs

     total energy              =    -701.19315749 Ry
     Harris-Foulkes estimate   =    -701.19624988 Ry
     estimated scf accuracy    <       0.35317596 Ry

     iteration # 17     ecut=    40.00 Ry     beta= 0.60
     Davidson diagonalization with overlap
     ethr =  2.82E-04,  avg # of iterations =  1.0

     total cpu time spent up to now is     9887.9 secs

     total energy              =    -701.16326891 Ry
     Harris-Foulkes estimate   =    -701.19460443 Ry
     estimated scf accuracy    <       0.32816520 Ry

     iteration # 18     ecut=    40.00 Ry     beta= 0.60
     Davidson diagonalization with overlap
     ethr =  2.82E-04,  avg # of iterations =  1.0

     total cpu time spent up to now is     9905.7 secs

     total energy              =    -701.16158525 Ry
     Harris-Foulkes estimate   =    -701.16952303 Ry
     estimated scf accuracy    <       0.12074671 Ry

     iteration # 19     ecut=    40.00 Ry     beta= 0.60
     Davidson diagonalization with overlap
     ethr =  1.65E-04,  avg # of iterations =  2.1

     total cpu time spent up to now is     9924.6 secs

     total energy              =    -701.16270340 Ry
     Harris-Foulkes estimate   =    -701.16489786 Ry
     estimated scf accuracy    <       0.05933064 Ry

     iteration # 20     ecut=    40.00 Ry     beta= 0.60
     Davidson diagonalization with overlap
     ethr =  8.13E-05,  avg # of iterations =  4.5

     total cpu time spent up to now is     9949.0 secs

     total energy              =    -701.16887428 Ry
     Harris-Foulkes estimate   =    -701.16899858 Ry
     estimated scf accuracy    <       0.00819952 Ry

     iteration # 21     ecut=    40.00 Ry     beta= 0.60
     Davidson diagonalization with overlap
     c_bands:  1 eigenvalues not converged
     ethr =  1.12E-05,  avg # of iterations =  6.3

     total cpu time spent up to now is     9975.5 secs

     total energy              =    -701.16755912 Ry
     Harris-Foulkes estimate   =    -701.16934495 Ry
     estimated scf accuracy    <       0.00687757 Ry

     iteration # 22     ecut=    40.00 Ry     beta= 0.60
     Davidson diagonalization with overlap
     ethr =  9.42E-06,  avg # of iterations =  3.6

     total cpu time spent up to now is     9998.0 secs

     total energy              =    -701.16847050 Ry
     Harris-Foulkes estimate   =    -701.16852408 Ry
     estimated scf accuracy    <       0.00038862 Ry

     iteration # 23     ecut=    40.00 Ry     beta= 0.60
     Davidson diagonalization with overlap
     ethr =  5.32E-07,  avg # of iterations =  7.0

     total cpu time spent up to now is    10031.3 secs

     total energy              =    -701.16858806 Ry
     Harris-Foulkes estimate   =    -701.16858986 Ry
     estimated scf accuracy    <       0.00002130 Ry

     iteration # 24     ecut=    40.00 Ry     beta= 0.60
     Davidson diagonalization with overlap
     ethr =  2.92E-08,  avg # of iterations =  6.0

     total cpu time spent up to now is    10064.2 secs

     total energy              =    -701.16863992 Ry
     Harris-Foulkes estimate   =    -701.16861144 Ry
     estimated scf accuracy    <       0.00021908 Ry

     iteration # 25     ecut=    40.00 Ry     beta= 0.60
     Davidson diagonalization with overlap
     ethr =  2.92E-08,  avg # of iterations =  4.6

     total cpu time spent up to now is    10092.1 secs

     total energy              =    -701.16861038 Ry
     Harris-Foulkes estimate   =    -701.16865267 Ry
     estimated scf accuracy    <       0.00065783 Ry

     iteration # 26     ecut=    40.00 Ry     beta= 0.60
     Davidson diagonalization with overlap
     ethr =  2.92E-08,  avg # of iterations =  4.4

     total cpu time spent up to now is    10118.3 secs

     total energy              =    -701.16863345 Ry
     Harris-Foulkes estimate   =    -701.16861697 Ry
     estimated scf accuracy    <       0.00030149 Ry

     iteration # 27     ecut=    40.00 Ry     beta= 0.60
     Davidson diagonalization with overlap
     ethr =  2.92E-08,  avg # of iterations =  2.4

     total cpu time spent up to now is    10137.6 secs

     total energy              =    -701.16863210 Ry
     Harris-Foulkes estimate   =    -701.16863487 Ry
     estimated scf accuracy    <       0.00042753 Ry

     iteration # 28     ecut=    40.00 Ry     beta= 0.60
     Davidson diagonalization with overlap
     ethr =  2.92E-08,  avg # of iterations =  1.0

     total cpu time spent up to now is    10155.4 secs

     total energy              =    -701.16852723 Ry
     Harris-Foulkes estimate   =    -701.16863230 Ry
     estimated scf accuracy    <       0.00041261 Ry

     iteration # 29     ecut=    40.00 Ry     beta= 0.60
     Davidson diagonalization with overlap
     ethr =  2.92E-08,  avg # of iterations =  6.3

     total cpu time spent up to now is    10189.6 secs

     total energy              =    -701.16858796 Ry
     Harris-Foulkes estimate   =    -701.16859343 Ry
     estimated scf accuracy    <       0.00006489 Ry

     iteration # 30     ecut=    40.00 Ry     beta= 0.60
     Davidson diagonalization with overlap
     ethr =  2.92E-08,  avg # of iterations =  1.0

     total cpu time spent up to now is    10207.5 secs

     total energy              =    -701.16858640 Ry
     Harris-Foulkes estimate   =    -701.16858876 Ry
     estimated scf accuracy    <       0.00003148 Ry

     iteration # 31     ecut=    40.00 Ry     beta= 0.60
     Davidson diagonalization with overlap
     ethr =  2.92E-08,  avg # of iterations =  2.3

     total cpu time spent up to now is    10226.7 secs

     total energy              =    -701.16858562 Ry
     Harris-Foulkes estimate   =    -701.16858713 Ry
     estimated scf accuracy    <       0.00001371 Ry

     iteration # 32     ecut=    40.00 Ry     beta= 0.60
     Davidson diagonalization with overlap
     ethr =  1.88E-08,  avg # of iterations =  4.0

     total cpu time spent up to now is    10250.1 secs

     total energy              =    -701.16858730 Ry
     Harris-Foulkes estimate   =    -701.16858731 Ry
     estimated scf accuracy    <       0.00000006 Ry

     iteration # 33     ecut=    40.00 Ry     beta= 0.60
     Davidson diagonalization with overlap
     ethr =  8.79E-11,  avg # of iterations =  7.1

     total cpu time spent up to now is    10286.9 secs

     total energy              =    -701.16858752 Ry
     Harris-Foulkes estimate   =    -701.16858760 Ry
     estimated scf accuracy    <       0.00000056 Ry

     iteration # 34     ecut=    40.00 Ry     beta= 0.60
     Davidson diagonalization with overlap
     ethr =  8.79E-11,  avg # of iterations =  4.9

     total cpu time spent up to now is    10315.0 secs

     total energy              =    -701.16858755 Ry
     Harris-Foulkes estimate   =    -701.16858755 Ry
     estimated scf accuracy    <       0.00000002 Ry

     iteration # 35     ecut=    40.00 Ry     beta= 0.60
     Davidson diagonalization with overlap
     ethr =  3.03E-11,  avg # of iterations =  1.5

     total cpu time spent up to now is    10333.4 secs

     total energy              =    -701.16858755 Ry
     Harris-Foulkes estimate   =    -701.16858755 Ry
     estimated scf accuracy    <          4.8E-09 Ry

     iteration # 36     ecut=    40.00 Ry     beta= 0.60
     Davidson diagonalization with overlap
     ethr =  6.64E-12,  avg # of iterations =  5.1

     total cpu time spent up to now is    10361.6 secs

     total energy              =    -701.16858755 Ry
     Harris-Foulkes estimate   =    -701.16858755 Ry
     estimated scf accuracy    <          7.1E-09 Ry

     iteration # 37     ecut=    40.00 Ry     beta= 0.60
     Davidson diagonalization with overlap
     ethr =  6.64E-12,  avg # of iterations =  1.0

     total cpu time spent up to now is    10379.4 secs

     total energy              =    -701.16858755 Ry
     Harris-Foulkes estimate   =    -701.16858755 Ry
     estimated scf accuracy    <          4.0E-09 Ry

     iteration # 38     ecut=    40.00 Ry     beta= 0.60
     Davidson diagonalization with overlap
     ethr =  5.51E-12,  avg # of iterations =  2.9

     total cpu time spent up to now is    10400.2 secs

     total energy              =    -701.16858755 Ry
     Harris-Foulkes estimate   =    -701.16858755 Ry
     estimated scf accuracy    <          2.6E-11 Ry

     iteration # 39     ecut=    40.00 Ry     beta= 0.60
     Davidson diagonalization with overlap
     ethr =  1.00E-13,  avg # of iterations =  6.3

     total cpu time spent up to now is    10433.3 secs

     total energy              =    -701.16858755 Ry
     Harris-Foulkes estimate   =    -701.16858755 Ry
     estimated scf accuracy    <          2.0E-10 Ry

     iteration # 40     ecut=    40.00 Ry     beta= 0.60
     Davidson diagonalization with overlap
     ethr =  1.00E-13,  avg # of iterations =  1.0

     total cpu time spent up to now is    10451.1 secs

     total energy              =    -701.16858755 Ry
     Harris-Foulkes estimate   =    -701.16858755 Ry
     estimated scf accuracy    <          2.0E-10 Ry

     iteration # 41     ecut=    40.00 Ry     beta= 0.60
     Davidson diagonalization with overlap
     ethr =  1.00E-13,  avg # of iterations =  4.9

     total cpu time spent up to now is    10478.8 secs

     total energy              =    -701.16858755 Ry
     Harris-Foulkes estimate   =    -701.16858755 Ry
     estimated scf accuracy    <          6.9E-11 Ry

     iteration # 42     ecut=    40.00 Ry     beta= 0.60
     Davidson diagonalization with overlap
     ethr =  1.00E-13,  avg # of iterations =  1.0

     total cpu time spent up to now is    10496.6 secs

     total energy              =    -701.16858755 Ry
     Harris-Foulkes estimate   =    -701.16858755 Ry
     estimated scf accuracy    <          1.1E-11 Ry

     iteration # 43     ecut=    40.00 Ry     beta= 0.60
     Davidson diagonalization with overlap
     ethr =  1.00E-13,  avg # of iterations =  1.0

     total cpu time spent up to now is    10514.4 secs

     total energy              =    -701.16858755 Ry
     Harris-Foulkes estimate   =    -701.16858755 Ry
     estimated scf accuracy    <          3.1E-12 Ry

     iteration # 44     ecut=    40.00 Ry     beta= 0.60
     Davidson diagonalization with overlap
     ethr =  1.00E-13,  avg # of iterations =  1.0

     total cpu time spent up to now is    10532.2 secs

     total energy              =    -701.16858755 Ry
     Harris-Foulkes estimate   =    -701.16858755 Ry
     estimated scf accuracy    <          1.0E-12 Ry

     iteration # 45     ecut=    40.00 Ry     beta= 0.60
     Davidson diagonalization with overlap
     ethr =  1.00E-13,  avg # of iterations =  1.0

     total cpu time spent up to now is    10550.1 secs

     End of self-consistent calculation

     Number of k-points >= 100: set verbosity='high' to print the bands.

     the Fermi energy is    14.2564 ev

!    total energy              =    -701.16858755 Ry
     Harris-Foulkes estimate   =    -701.16858755 Ry
     estimated scf accuracy    <          1.8E-13 Ry

     The total energy is the sum of the following terms:

     one-electron contribution =    -223.87329037 Ry
     hartree contribution      =     137.17555963 Ry
     xc contribution           =     -91.04615317 Ry
     ewald contribution        =    -523.42095536 Ry
     smearing contrib. (-TS)   =      -0.00374827 Ry

     convergence has been achieved in  45 iterations

     Forces acting on atoms (cartesian axes, Ry/au):

     atom    1 type  2   force =     0.00000000    0.00005999   -0.00000000
     atom    2 type  2   force =     0.00000000    0.00000000   -0.00002655
     atom    3 type  2   force =     0.00005195   -0.00002999   -0.00000000
     atom    4 type  2   force =     0.00000000    0.00000000    0.00002655
     atom    5 type  2   force =    -0.00005195   -0.00002999    0.00000000
     atom    6 type  1   force =     0.00000000    0.00000000    0.00000000

     Total force =     0.000110     Total SCF correction =     0.000000


     Computing stress (Cartesian axis) and pressure

          total   stress  (Ry/bohr**3)                   (kbar)     P=   -6.97
  -0.00004598  -0.00000000   0.00000000         -6.76     -0.00      0.00
   0.00000000  -0.00004598   0.00000000          0.00     -6.76      0.00
   0.00000000   0.00000000  -0.00005013          0.00      0.00     -7.37

 
     init_run     :     21.54s CPU     22.05s WALL (       2 calls)
     electrons    :  10079.88s CPU  10314.33s WALL (      19 calls)
     update_pot   :     25.26s CPU     25.38s WALL (      17 calls)
     forces       :     53.00s CPU     54.92s WALL (      19 calls)
     stress       :    127.56s CPU    133.08s WALL (      19 calls)

     Called by init_run:
     wfcinit      :     18.93s CPU     19.26s WALL (       2 calls)
     potinit      :      0.92s CPU      0.95s WALL (       2 calls)
     hinit0       :      1.34s CPU      1.39s WALL (       2 calls)

     Called by electrons:
     c_bands      :   8653.83s CPU   8805.58s WALL (     370 calls)
     sum_band     :   1337.56s CPU   1385.39s WALL (     370 calls)
     v_of_rho     :     20.58s CPU     20.71s WALL (     376 calls)
     newd         :     68.45s CPU    102.10s WALL (     376 calls)
     mix_rho      :      2.33s CPU      2.35s WALL (     370 calls)

     Called by c_bands:
     init_us_2    :    106.01s CPU    107.72s WALL (  147420 calls)
     cegterg      :   8035.32s CPU   8137.09s WALL (   69930 calls)

     Called by sum_band:
     sum_band:bec :      3.38s CPU      3.37s WALL (   69930 calls)
     addusdens    :     79.05s CPU    109.46s WALL (     370 calls)

     Called by *egterg:
     h_psi        :   5450.69s CPU   5541.11s WALL (  321559 calls)
     s_psi        :    237.62s CPU    237.97s WALL (  321559 calls)
     g_psi        :     33.98s CPU     35.11s WALL (  251251 calls)
     cdiaghg      :   1316.61s CPU   1318.53s WALL (  315511 calls)

     Called by h_psi:
     h_psi:pot    :   5428.33s CPU   5518.10s WALL (  321559 calls)
     h_psi:calbec :    262.51s CPU    264.90s WALL (  321559 calls)
     vloc_psi     :   4917.23s CPU   5003.71s WALL (  321559 calls)
     add_vuspsi   :    246.97s CPU    247.43s WALL (  321559 calls)

     General routines
     calbec       :    374.29s CPU    377.25s WALL (  409444 calls)
     fft          :     13.29s CPU     13.53s WALL (    5374 calls)
     ffts         :      0.43s CPU      0.45s WALL (     746 calls)
     fftw         :   5353.91s CPU   5430.55s WALL (19115838 calls)
     interpolate  :      1.15s CPU      1.18s WALL (     376 calls)
 
     Parallel routines
     fft_scatt_xy :   1014.11s CPU   1028.35s WALL (19121958 calls)
     fft_scatt_yz :    981.99s CPU    993.84s WALL (19121958 calls)
 
     PWSCF        :     2h51m CPU       51h 2m WALL

      55h
 
   This run was terminated on:  16: 1:36  26Jan2020            

=------------------------------------------------------------------------------=
   JOB DONE.
=------------------------------------------------------------------------------=
