
     Program PWSCF v.6.3MaX starts on  2Feb2020 at 13:43: 4 

     This program is part of the open-source Quantum ESPRESSO suite
     for quantum simulation of materials; please cite
         "P. Giannozzi et al., J. Phys.:Condens. Matter 21 395502 (2009);
         "P. Giannozzi et al., J. Phys.:Condens. Matter 29 465901 (2017);
          URL http://www.quantum-espresso.org", 
     in publications or presentations arising from this work. More details at
     http://www.quantum-espresso.org/quote

     Parallel version (MPI), running on     4 processors

     MPI processes distributed on     1 nodes
     R & G space division:  proc/nbgrp/npool/nimage =       4
     Waiting for input...
     Reading input from standard input

     Current dimensions of program PWSCF are:
     Max number of different atomic species (ntypx) = 10
     Max number of k-points (npk) =  40000
     Max angular momentum in pseudopotentials (lmaxx) =  3
     Message from routine iosys:
     minimal I/O required, wf_collect reset to FALSE

     Subspace diagonalization in iterative solution of the eigenvalue problem:
     a serial algorithm will be used

 
     Parallelization info
     --------------------
     sticks:   dense  smooth     PW     G-vecs:    dense   smooth      PW
     Min         861     343    104                36404     9203    1522
     Max         862     344    105                36405     9204    1524
     Sum        3447    1375    417               145617    36815    6091
 


     bravais-lattice index     =            0
     lattice parameter (alat)  =       1.8897  a.u.
     unit-cell volume          =    1077.7903 (a.u.)^3
     number of atoms/cell      =            8
     number of atomic types    =            2
     number of electrons       =        97.00
     number of Kohn-Sham states=           59
     kinetic-energy cutoff     =      40.0000  Ry
     charge density cutoff     =     400.0000  Ry
     convergence threshold     =      1.0E-10
     mixing beta               =       0.6000
     number of iterations used =            8  plain     mixing
     Exchange-correlation      = SLA PW PBE PBE ( 1  4  3  4 0 0)
     nstep                     =           50


     celldm(1)=   1.889726  celldm(2)=   0.000000  celldm(3)=   0.000000
     celldm(4)=   0.000000  celldm(5)=   0.000000  celldm(6)=   0.000000

     crystal axes: (cart. coord. in units of alat)
               a(1) = (  -1.522502   2.637051   4.972461 )  
               a(2) = (  -1.522502   2.637051  -4.972461 )  
               a(3) = (  -4.567506  -2.637051   0.000000 )  

     reciprocal axes: (cart. coord. in units 2 pi/alat)
               b(1) = ( -0.082102  0.142204  0.100554 )  
               b(2) = ( -0.082102  0.142204 -0.100554 )  
               b(3) = ( -0.164203 -0.094803  0.000000 )  


     PseudoPot. # 1 for Nb read from file:
     ./Nb.pbe-nsp-van.UPF
     MD5 check sum: 0a22fc7fb0ba19a08ca5db297a5d2854
     Pseudo is Ultrasoft + core correction, Zval = 13.0
     Generated by new atomic code, or converted to UPF format
     Using radial grid of  887 points,  6 beta functions with: 
                l(1) =   0
                l(2) =   0
                l(3) =   1
                l(4) =   1
                l(5) =   2
                l(6) =   2
     Q(r) pseudized with  6 coefficients,  rinner =    1.000   1.000   1.000
                                                       1.000   1.000

     PseudoPot. # 2 for Ti read from file:
     ./Ti.pbe-sp-van_ak.UPF
     MD5 check sum: f98fea3e8887528921fefa5636a534ca
     Pseudo is Ultrasoft, Zval = 12.0
     Generated by new atomic code, or converted to UPF format
     Using radial grid of  851 points,  6 beta functions with: 
                l(1) =   0
                l(2) =   0
                l(3) =   1
                l(4) =   1
                l(5) =   2
                l(6) =   2
     Q(r) pseudized with  8 coefficients,  rinner =    1.000   1.000   1.000
                                                       1.000   1.000

     atomic species   valence    mass     pseudopotential
        Nb            13.00    92.90638     Nb( 1.00)
        Ti            12.00    47.86700     Ti( 1.00)

      4 Sym. Ops. (no inversion) found ( 2 have fractional translation)



   Cartesian axes

     site n.     atom                  positions (alat units)
         1           Ti  tau(   1) = (  -7.6125106   2.6370512   0.0000000  )
         2           Ti  tau(   2) = (  -3.0450027   3.5160674  -2.4862307  )
         3           Ti  tau(   3) = (  -4.5675063   2.6370512   0.0000000  )
         4           Ti  tau(   4) = (  -4.5675048   0.8790162  -2.4862307  )
         5           Ti  tau(   5) = (  -6.0900085   0.0000000   0.0000000  )
         6           Ti  tau(   6) = (  -3.0450027   3.5160674   2.4862307  )
         7           Ti  tau(   7) = (  -3.0450042   0.0000000   0.0000000  )
         8           Nb  tau(   8) = (  -4.5675048   0.8790162   2.4862307  )

     number of k points=   186  Marzari-Vanderbilt smearing, width (Ry)=  0.0200

     Number of k-points >= 100: set verbosity='high' to print them.

     Dense  grid:   145617 G-vectors     FFT dimensions: (  72,  72,  64)

     Smooth grid:    36815 G-vectors     FFT dimensions: (  45,  45,  45)

     Estimated max dynamical RAM per process >     335.83 MB

     Estimated total dynamical RAM >       1.31 GB

     Initial potential from superposition of free atoms

     starting charge   89.99696, renormalised to   97.00000
     Starting wfcs are   83 randomized atomic wfcs

     total cpu time spent up to now is       17.5 secs

     Self-consistent Calculation

     iteration #  1     ecut=    40.00 Ry     beta= 0.60
     Davidson diagonalization with overlap
     ethr =  1.00E-02,  avg # of iterations =  4.5

     total cpu time spent up to now is       72.3 secs

     total energy              =    -930.71415110 Ry
     Harris-Foulkes estimate   =    -936.87602882 Ry
     estimated scf accuracy    <       8.23388473 Ry

     iteration #  2     ecut=    40.00 Ry     beta= 0.60
     Davidson diagonalization with overlap
     ethr =  8.49E-03,  avg # of iterations =  5.0

     total cpu time spent up to now is      127.8 secs

     total energy              =    -928.56659979 Ry
     Harris-Foulkes estimate   =    -940.66084599 Ry
     estimated scf accuracy    <      39.87809615 Ry

     iteration #  3     ecut=    40.00 Ry     beta= 0.60
     Davidson diagonalization with overlap
     ethr =  8.49E-03,  avg # of iterations =  6.1

     total cpu time spent up to now is      188.9 secs

     total energy              =    -932.57901366 Ry
     Harris-Foulkes estimate   =    -935.83334973 Ry
     estimated scf accuracy    <      17.55640367 Ry

     iteration #  4     ecut=    40.00 Ry     beta= 0.60
     Davidson diagonalization with overlap
     ethr =  8.49E-03,  avg # of iterations =  5.6

     total cpu time spent up to now is      235.4 secs

     total energy              =    -933.27976132 Ry
     Harris-Foulkes estimate   =    -935.74509454 Ry
     estimated scf accuracy    <      26.10214950 Ry

     iteration #  5     ecut=    40.00 Ry     beta= 0.60
     Davidson diagonalization with overlap
     ethr =  8.49E-03,  avg # of iterations =  2.5

     total cpu time spent up to now is      267.7 secs

     total energy              =    -934.13034519 Ry
     Harris-Foulkes estimate   =    -934.34316599 Ry
     estimated scf accuracy    <       1.39100090 Ry

     iteration #  6     ecut=    40.00 Ry     beta= 0.60
     Davidson diagonalization with overlap
     ethr =  1.43E-03,  avg # of iterations =  5.4

     total cpu time spent up to now is      317.3 secs

     total energy              =    -934.42944498 Ry
     Harris-Foulkes estimate   =    -934.45894263 Ry
     estimated scf accuracy    <       0.36586721 Ry

     iteration #  7     ecut=    40.00 Ry     beta= 0.60
     Davidson diagonalization with overlap
     ethr =  3.77E-04,  avg # of iterations =  3.3

     total cpu time spent up to now is      351.8 secs

     total energy              =    -934.40197942 Ry
     Harris-Foulkes estimate   =    -934.43643881 Ry
     estimated scf accuracy    <       0.24469145 Ry

     iteration #  8     ecut=    40.00 Ry     beta= 0.60
     Davidson diagonalization with overlap
     ethr =  2.52E-04,  avg # of iterations =  4.1

     total cpu time spent up to now is      387.5 secs

     total energy              =    -934.38482101 Ry
     Harris-Foulkes estimate   =    -934.42831735 Ry
     estimated scf accuracy    <       0.25486781 Ry

     iteration #  9     ecut=    40.00 Ry     beta= 0.60
     Davidson diagonalization with overlap
     ethr =  2.52E-04,  avg # of iterations =  3.4

     total cpu time spent up to now is      420.1 secs

     total energy              =    -934.40072446 Ry
     Harris-Foulkes estimate   =    -934.40857093 Ry
     estimated scf accuracy    <       0.02996703 Ry

     iteration # 10     ecut=    40.00 Ry     beta= 0.60
     Davidson diagonalization with overlap
     ethr =  3.09E-05,  avg # of iterations =  7.8

     total cpu time spent up to now is      483.9 secs

     total energy              =    -934.40844707 Ry
     Harris-Foulkes estimate   =    -934.41335548 Ry
     estimated scf accuracy    <       0.04726488 Ry

     iteration # 11     ecut=    40.00 Ry     beta= 0.60
     Davidson diagonalization with overlap
     ethr =  3.09E-05,  avg # of iterations =  1.0

     total cpu time spent up to now is      511.7 secs

     total energy              =    -934.40899701 Ry
     Harris-Foulkes estimate   =    -934.40975700 Ry
     estimated scf accuracy    <       0.00918191 Ry

     iteration # 12     ecut=    40.00 Ry     beta= 0.60
     Davidson diagonalization with overlap
     ethr =  9.47E-06,  avg # of iterations =  5.6

     total cpu time spent up to now is      554.6 secs

     total energy              =    -934.41019044 Ry
     Harris-Foulkes estimate   =    -934.41043514 Ry
     estimated scf accuracy    <       0.00098083 Ry

     iteration # 13     ecut=    40.00 Ry     beta= 0.60
     Davidson diagonalization with overlap
     c_bands:  1 eigenvalues not converged
     c_bands:  1 eigenvalues not converged
     ethr =  1.01E-06,  avg # of iterations =  6.1

     total cpu time spent up to now is      601.3 secs

     total energy              =    -934.41037763 Ry
     Harris-Foulkes estimate   =    -934.41044829 Ry
     estimated scf accuracy    <       0.00069351 Ry

     iteration # 14     ecut=    40.00 Ry     beta= 0.60
     Davidson diagonalization with overlap
     ethr =  7.15E-07,  avg # of iterations =  1.1

     total cpu time spent up to now is      629.1 secs

     total energy              =    -934.41038498 Ry
     Harris-Foulkes estimate   =    -934.41039882 Ry
     estimated scf accuracy    <       0.00016907 Ry

     iteration # 15     ecut=    40.00 Ry     beta= 0.60
     Davidson diagonalization with overlap
     ethr =  1.74E-07,  avg # of iterations =  4.5

     total cpu time spent up to now is      667.8 secs

     total energy              =    -934.41040295 Ry
     Harris-Foulkes estimate   =    -934.41040374 Ry
     estimated scf accuracy    <       0.00000440 Ry

     iteration # 16     ecut=    40.00 Ry     beta= 0.60
     Davidson diagonalization with overlap
     c_bands:  1 eigenvalues not converged
     ethr =  4.53E-09,  avg # of iterations =  7.2

     total cpu time spent up to now is      724.0 secs

     total energy              =    -934.41040587 Ry
     Harris-Foulkes estimate   =    -934.41040692 Ry
     estimated scf accuracy    <       0.00001020 Ry

     iteration # 17     ecut=    40.00 Ry     beta= 0.60
     Davidson diagonalization with overlap
     ethr =  4.53E-09,  avg # of iterations =  1.2

     total cpu time spent up to now is      752.0 secs

     total energy              =    -934.41040594 Ry
     Harris-Foulkes estimate   =    -934.41040615 Ry
     estimated scf accuracy    <       0.00000234 Ry

     iteration # 18     ecut=    40.00 Ry     beta= 0.60
     Davidson diagonalization with overlap
     ethr =  2.41E-09,  avg # of iterations =  4.2

     total cpu time spent up to now is      790.8 secs

     total energy              =    -934.41040621 Ry
     Harris-Foulkes estimate   =    -934.41040627 Ry
     estimated scf accuracy    <       0.00000051 Ry

     iteration # 19     ecut=    40.00 Ry     beta= 0.60
     Davidson diagonalization with overlap
     ethr =  5.24E-10,  avg # of iterations =  3.8

     total cpu time spent up to now is      825.0 secs

     total energy              =    -934.41040622 Ry
     Harris-Foulkes estimate   =    -934.41040625 Ry
     estimated scf accuracy    <       0.00000018 Ry

     iteration # 20     ecut=    40.00 Ry     beta= 0.60
     Davidson diagonalization with overlap
     ethr =  1.89E-10,  avg # of iterations =  4.2

     total cpu time spent up to now is      862.4 secs

     total energy              =    -934.41040624 Ry
     Harris-Foulkes estimate   =    -934.41040625 Ry
     estimated scf accuracy    <       0.00000008 Ry

     iteration # 21     ecut=    40.00 Ry     beta= 0.60
     Davidson diagonalization with overlap
     ethr =  7.78E-11,  avg # of iterations =  3.0

     total cpu time spent up to now is      894.1 secs

     total energy              =    -934.41040624 Ry
     Harris-Foulkes estimate   =    -934.41040625 Ry
     estimated scf accuracy    <       0.00000004 Ry

     iteration # 22     ecut=    40.00 Ry     beta= 0.60
     Davidson diagonalization with overlap
     ethr =  3.96E-11,  avg # of iterations =  3.5

     total cpu time spent up to now is      927.2 secs

     total energy              =    -934.41040625 Ry
     Harris-Foulkes estimate   =    -934.41040625 Ry
     estimated scf accuracy    <          5.3E-09 Ry

     iteration # 23     ecut=    40.00 Ry     beta= 0.60
     Davidson diagonalization with overlap
     ethr =  5.44E-12,  avg # of iterations =  5.0

     total cpu time spent up to now is      971.3 secs

     total energy              =    -934.41040625 Ry
     Harris-Foulkes estimate   =    -934.41040625 Ry
     estimated scf accuracy    <          1.6E-09 Ry

     iteration # 24     ecut=    40.00 Ry     beta= 0.60
     Davidson diagonalization with overlap
     ethr =  1.62E-12,  avg # of iterations =  1.7

     total cpu time spent up to now is     1000.2 secs

     total energy              =    -934.41040625 Ry
     Harris-Foulkes estimate   =    -934.41040625 Ry
     estimated scf accuracy    <          5.0E-10 Ry

     iteration # 25     ecut=    40.00 Ry     beta= 0.60
     Davidson diagonalization with overlap
     ethr =  5.13E-13,  avg # of iterations =  4.6

     total cpu time spent up to now is     1041.8 secs

     total energy              =    -934.41040625 Ry
     Harris-Foulkes estimate   =    -934.41040625 Ry
     estimated scf accuracy    <          3.6E-10 Ry

     iteration # 26     ecut=    40.00 Ry     beta= 0.60
     Davidson diagonalization with overlap
     ethr =  3.74E-13,  avg # of iterations =  1.3

     total cpu time spent up to now is     1069.9 secs

     End of self-consistent calculation

     Number of k-points >= 100: set verbosity='high' to print the bands.

     the Fermi energy is    11.9281 ev

!    total energy              =    -934.41040625 Ry
     Harris-Foulkes estimate   =    -934.41040625 Ry
     estimated scf accuracy    <          2.8E-11 Ry

     The total energy is the sum of the following terms:

     one-electron contribution =    -352.78839453 Ry
     hartree contribution      =     200.47834031 Ry
     xc contribution           =    -119.27444202 Ry
     ewald contribution        =    -662.82314208 Ry
     smearing contrib. (-TS)   =      -0.00276792 Ry

     convergence has been achieved in  26 iterations

     Forces acting on atoms (cartesian axes, Ry/au):

     atom    1 type  2   force =     0.00086834    0.00050134    0.00233530
     atom    2 type  2   force =    -0.00016533    0.00036556    0.00000000
     atom    3 type  2   force =    -0.00102957   -0.00059442    0.00000000
     atom    4 type  2   force =     0.00057406    0.00033143    0.00000000
     atom    5 type  2   force =     0.00086834    0.00050134   -0.00233530
     atom    6 type  2   force =     0.00023392   -0.00032596    0.00000000
     atom    7 type  2   force =    -0.00102957   -0.00059442    0.00000000
     atom    8 type  1   force =    -0.00032020   -0.00018487    0.00000000

     Total force =     0.004080     Total SCF correction =     0.000006


     Computing stress (Cartesian axis) and pressure

          total   stress  (Ry/bohr**3)                   (kbar)     P= -134.60
  -0.00087711  -0.00000279   0.00000000       -129.03     -0.41      0.00
  -0.00000279  -0.00087389   0.00000000         -0.41   -128.55      0.00
  -0.00000000   0.00000000  -0.00099407         -0.00      0.00   -146.23


     BFGS Geometry Optimization

     number of scf cycles    =   1
     number of bfgs steps    =   0

     enthalpy new            =    -934.4104062469 Ry

     new trust radius        =       0.1631747394 bohr
     new conv_thr            =            1.0E-10 Ry

     new unit-cell volume =   1005.50117 a.u.^3 (   148.99990 Ang^3 )
     density =      4.76960 g/cm^3

CELL_PARAMETERS (alat=  1.88972599)
  -1.489300908   2.579545026   4.848886978
  -1.489300908   2.579545026  -4.848886978
  -4.467166755  -2.579120114   0.000000000

ATOMIC_POSITIONS (angstrom)
Ti      -7.445319157   2.580229406   0.001205074
Ti      -2.978563247   3.439652554  -2.424443489
Ti      -4.468067597   2.579449836   0.000000000
Ti      -4.467113481   0.860302291  -2.424443489
Ti      -5.956018250   0.000684381  -0.001205074
Ti      -2.978356579   3.439294596   2.424443489
Ti      -2.978766689  -0.000095189   0.000000000
Nb      -4.467576310   0.860035077   2.424443489


     NEW-OLD atomic charge density approx. for the potential
     extrapolated charge   90.52979, renormalised to   97.00000

     total cpu time spent up to now is     1089.2 secs

     Self-consistent Calculation

     iteration #  1     ecut=    40.00 Ry     beta= 0.60
     Davidson diagonalization with overlap
     c_bands:  1 eigenvalues not converged
     c_bands:  1 eigenvalues not converged
     c_bands:  4 eigenvalues not converged
     c_bands:  1 eigenvalues not converged
     c_bands:  1 eigenvalues not converged
     c_bands:  1 eigenvalues not converged
     c_bands:  2 eigenvalues not converged
     c_bands:  1 eigenvalues not converged
     c_bands:  1 eigenvalues not converged
     c_bands:  1 eigenvalues not converged
     c_bands:  1 eigenvalues not converged
     c_bands:  2 eigenvalues not converged
     c_bands:  2 eigenvalues not converged
     c_bands:  3 eigenvalues not converged
     c_bands:  2 eigenvalues not converged
     c_bands:  1 eigenvalues not converged
     c_bands:  1 eigenvalues not converged
     c_bands:  1 eigenvalues not converged
     c_bands:  1 eigenvalues not converged
     c_bands:  1 eigenvalues not converged
     c_bands:  1 eigenvalues not converged
     c_bands:  3 eigenvalues not converged
     c_bands:  1 eigenvalues not converged
     c_bands:  1 eigenvalues not converged
     c_bands:  1 eigenvalues not converged
     c_bands:  3 eigenvalues not converged
     c_bands:  1 eigenvalues not converged
     c_bands:  1 eigenvalues not converged
     c_bands:  2 eigenvalues not converged
     c_bands:  3 eigenvalues not converged
     c_bands:  1 eigenvalues not converged
     c_bands:  1 eigenvalues not converged
     c_bands:  1 eigenvalues not converged
     c_bands:  2 eigenvalues not converged
     c_bands:  4 eigenvalues not converged
     c_bands:  2 eigenvalues not converged
     c_bands:  1 eigenvalues not converged
     c_bands:  1 eigenvalues not converged
     c_bands:  1 eigenvalues not converged
     c_bands:  3 eigenvalues not converged
     c_bands:  4 eigenvalues not converged
     c_bands:  2 eigenvalues not converged
     ethr =  1.00E-06,  avg # of iterations = 16.2

     total cpu time spent up to now is     1215.5 secs

     total energy              =    -927.06555121 Ry
     Harris-Foulkes estimate   =    -951.28736818 Ry
     estimated scf accuracy    <       7.30588374 Ry

     iteration #  2     ecut=    40.00 Ry     beta= 0.60
     Davidson diagonalization with overlap
     ethr =  7.53E-03,  avg # of iterations =  4.3

     total cpu time spent up to now is     1274.5 secs

     total energy              =    -932.09510042 Ry
     Harris-Foulkes estimate   =    -943.37906874 Ry
     estimated scf accuracy    <      38.22839059 Ry

     iteration #  3     ecut=    40.00 Ry     beta= 0.60
     Davidson diagonalization with overlap
     ethr =  7.53E-03,  avg # of iterations =  3.0

     total cpu time spent up to now is     1312.0 secs

     total energy              =    -934.39964172 Ry
     Harris-Foulkes estimate   =    -936.01052314 Ry
     estimated scf accuracy    <       5.39280944 Ry

     iteration #  4     ecut=    40.00 Ry     beta= 0.60
     Davidson diagonalization with overlap
     ethr =  5.56E-03,  avg # of iterations =  2.7

     total cpu time spent up to now is     1345.4 secs

     total energy              =    -934.78467823 Ry
     Harris-Foulkes estimate   =    -935.14501389 Ry
     estimated scf accuracy    <       3.81178922 Ry

     iteration #  5     ecut=    40.00 Ry     beta= 0.60
     Davidson diagonalization with overlap
     ethr =  3.93E-03,  avg # of iterations =  1.0

     total cpu time spent up to now is     1373.4 secs

     total energy              =    -934.68150415 Ry
     Harris-Foulkes estimate   =    -934.87306327 Ry
     estimated scf accuracy    <       2.37405933 Ry

     iteration #  6     ecut=    40.00 Ry     beta= 0.60
     Davidson diagonalization with overlap
     ethr =  2.45E-03,  avg # of iterations =  1.0

     total cpu time spent up to now is     1401.5 secs

     total energy              =    -934.56383415 Ry
     Harris-Foulkes estimate   =    -934.71391960 Ry
     estimated scf accuracy    <       1.55387290 Ry

     iteration #  7     ecut=    40.00 Ry     beta= 0.60
     Davidson diagonalization with overlap
     ethr =  1.60E-03,  avg # of iterations =  1.2

     total cpu time spent up to now is     1430.0 secs

     total energy              =    -934.46426281 Ry
     Harris-Foulkes estimate   =    -934.59187600 Ry
     estimated scf accuracy    <       0.89650626 Ry

     iteration #  8     ecut=    40.00 Ry     beta= 0.60
     Davidson diagonalization with overlap
     ethr =  9.24E-04,  avg # of iterations =  3.0

     total cpu time spent up to now is     1462.3 secs

     total energy              =    -934.50029710 Ry
     Harris-Foulkes estimate   =    -934.50299827 Ry
     estimated scf accuracy    <       0.33246351 Ry

     iteration #  9     ecut=    40.00 Ry     beta= 0.60
     Davidson diagonalization with overlap
     ethr =  3.43E-04,  avg # of iterations =  5.1

     total cpu time spent up to now is     1498.8 secs

     total energy              =    -934.50287401 Ry
     Harris-Foulkes estimate   =    -934.51169297 Ry
     estimated scf accuracy    <       0.30147794 Ry

     iteration # 10     ecut=    40.00 Ry     beta= 0.60
     Davidson diagonalization with overlap
     ethr =  3.11E-04,  avg # of iterations =  1.2

     total cpu time spent up to now is     1527.2 secs

     total energy              =    -934.39960205 Ry
     Harris-Foulkes estimate   =    -934.50646998 Ry
     estimated scf accuracy    <       0.25980008 Ry

     iteration # 11     ecut=    40.00 Ry     beta= 0.60
     Davidson diagonalization with overlap
     ethr =  2.68E-04,  avg # of iterations =  4.8

     total cpu time spent up to now is     1571.8 secs

     total energy              =    -934.45651195 Ry
     Harris-Foulkes estimate   =    -934.46499951 Ry
     estimated scf accuracy    <       0.03816958 Ry

     iteration # 12     ecut=    40.00 Ry     beta= 0.60
     Davidson diagonalization with overlap
     c_bands:  1 eigenvalues not converged
     c_bands:  1 eigenvalues not converged
     c_bands:  1 eigenvalues not converged
     c_bands:  1 eigenvalues not converged
     ethr =  3.94E-05,  avg # of iterations =  9.7

     total cpu time spent up to now is     1624.8 secs

     total energy              =    -934.46210091 Ry
     Harris-Foulkes estimate   =    -934.46225706 Ry
     estimated scf accuracy    <       0.00097130 Ry

     iteration # 13     ecut=    40.00 Ry     beta= 0.60
     Davidson diagonalization with overlap
     c_bands:  1 eigenvalues not converged
     c_bands:  3 eigenvalues not converged
     c_bands:  1 eigenvalues not converged
     c_bands:  1 eigenvalues not converged
     c_bands:  1 eigenvalues not converged
     c_bands:  3 eigenvalues not converged
     c_bands:  1 eigenvalues not converged
     c_bands:  1 eigenvalues not converged
     c_bands:  1 eigenvalues not converged
     c_bands:  2 eigenvalues not converged
     c_bands:  2 eigenvalues not converged
     c_bands:  2 eigenvalues not converged
     c_bands:  2 eigenvalues not converged
     c_bands:  1 eigenvalues not converged
     c_bands:  1 eigenvalues not converged
     c_bands:  2 eigenvalues not converged
     c_bands:  2 eigenvalues not converged
     c_bands:  1 eigenvalues not converged
     c_bands:  1 eigenvalues not converged
     c_bands:  1 eigenvalues not converged
     c_bands:  1 eigenvalues not converged
     c_bands:  3 eigenvalues not converged
     c_bands:  2 eigenvalues not converged
     c_bands:  1 eigenvalues not converged
     c_bands:  1 eigenvalues not converged
     c_bands:  1 eigenvalues not converged
     c_bands:  2 eigenvalues not converged
     c_bands:  1 eigenvalues not converged
     c_bands:  1 eigenvalues not converged
     c_bands:  2 eigenvalues not converged
     c_bands:  1 eigenvalues not converged
     ethr =  1.00E-06,  avg # of iterations =  9.6

     total cpu time spent up to now is     1694.1 secs

     total energy              =    -934.46268551 Ry
     Harris-Foulkes estimate   =    -934.46321242 Ry
     estimated scf accuracy    <       0.00375860 Ry

     iteration # 14     ecut=    40.00 Ry     beta= 0.60
     Davidson diagonalization with overlap
     c_bands:  1 eigenvalues not converged
     ethr =  1.00E-06,  avg # of iterations =  5.4

     total cpu time spent up to now is     1736.4 secs

     total energy              =    -934.46284164 Ry
     Harris-Foulkes estimate   =    -934.46289460 Ry
     estimated scf accuracy    <       0.00038491 Ry

     iteration # 15     ecut=    40.00 Ry     beta= 0.60
     Davidson diagonalization with overlap
     ethr =  3.97E-07,  avg # of iterations =  2.0

     total cpu time spent up to now is     1766.3 secs

     total energy              =    -934.46283086 Ry
     Harris-Foulkes estimate   =    -934.46285803 Ry
     estimated scf accuracy    <       0.00010871 Ry

     iteration # 16     ecut=    40.00 Ry     beta= 0.60
     Davidson diagonalization with overlap
     ethr =  1.12E-07,  avg # of iterations =  4.8

     total cpu time spent up to now is     1810.2 secs

     total energy              =    -934.46285359 Ry
     Harris-Foulkes estimate   =    -934.46286378 Ry
     estimated scf accuracy    <       0.00005624 Ry

     iteration # 17     ecut=    40.00 Ry     beta= 0.60
     Davidson diagonalization with overlap
     ethr =  5.80E-08,  avg # of iterations =  3.0

     total cpu time spent up to now is     1842.7 secs

     total energy              =    -934.46285812 Ry
     Harris-Foulkes estimate   =    -934.46285868 Ry
     estimated scf accuracy    <       0.00000277 Ry

     iteration # 18     ecut=    40.00 Ry     beta= 0.60
     Davidson diagonalization with overlap
     ethr =  2.85E-09,  avg # of iterations =  6.0

     total cpu time spent up to now is     1893.9 secs

     total energy              =    -934.46285942 Ry
     Harris-Foulkes estimate   =    -934.46285968 Ry
     estimated scf accuracy    <       0.00000280 Ry

     iteration # 19     ecut=    40.00 Ry     beta= 0.60
     Davidson diagonalization with overlap
     ethr =  2.85E-09,  avg # of iterations =  1.0

     total cpu time spent up to now is     1922.1 secs

     total energy              =    -934.46285928 Ry
     Harris-Foulkes estimate   =    -934.46285949 Ry
     estimated scf accuracy    <       0.00000133 Ry

     iteration # 20     ecut=    40.00 Ry     beta= 0.60
     Davidson diagonalization with overlap
     ethr =  1.37E-09,  avg # of iterations =  3.4

     total cpu time spent up to now is     1958.0 secs

     total energy              =    -934.46285941 Ry
     Harris-Foulkes estimate   =    -934.46285944 Ry
     estimated scf accuracy    <       0.00000023 Ry

     iteration # 21     ecut=    40.00 Ry     beta= 0.60
     Davidson diagonalization with overlap
     ethr =  2.35E-10,  avg # of iterations =  3.4

     total cpu time spent up to now is     1991.9 secs

     total energy              =    -934.46285943 Ry
     Harris-Foulkes estimate   =    -934.46285943 Ry
     estimated scf accuracy    <       0.00000004 Ry

     iteration # 22     ecut=    40.00 Ry     beta= 0.60
     Davidson diagonalization with overlap
     ethr =  3.82E-11,  avg # of iterations =  4.9

     total cpu time spent up to now is     2035.7 secs

     total energy              =    -934.46285943 Ry
     Harris-Foulkes estimate   =    -934.46285944 Ry
     estimated scf accuracy    <       0.00000004 Ry

     iteration # 23     ecut=    40.00 Ry     beta= 0.60
     Davidson diagonalization with overlap
     ethr =  3.77E-11,  avg # of iterations =  1.8

     total cpu time spent up to now is     2066.5 secs

     total energy              =    -934.46285943 Ry
     Harris-Foulkes estimate   =    -934.46285943 Ry
     estimated scf accuracy    <          2.4E-09 Ry

     iteration # 24     ecut=    40.00 Ry     beta= 0.60
     Davidson diagonalization with overlap
     ethr =  2.45E-12,  avg # of iterations =  5.4

     total cpu time spent up to now is     2118.2 secs

     total energy              =    -934.46285943 Ry
     Harris-Foulkes estimate   =    -934.46285943 Ry
     estimated scf accuracy    <          2.4E-09 Ry

     iteration # 25     ecut=    40.00 Ry     beta= 0.60
     Davidson diagonalization with overlap
     ethr =  2.43E-12,  avg # of iterations =  1.0

     total cpu time spent up to now is     2147.6 secs

     total energy              =    -934.46285943 Ry
     Harris-Foulkes estimate   =    -934.46285943 Ry
     estimated scf accuracy    <          1.2E-09 Ry

     iteration # 26     ecut=    40.00 Ry     beta= 0.60
     Davidson diagonalization with overlap
     ethr =  1.29E-12,  avg # of iterations =  1.0

     total cpu time spent up to now is     2177.0 secs

     total energy              =    -934.46285943 Ry
     Harris-Foulkes estimate   =    -934.46285943 Ry
     estimated scf accuracy    <          5.4E-10 Ry

     iteration # 27     ecut=    40.00 Ry     beta= 0.60
     Davidson diagonalization with overlap
     ethr =  5.59E-13,  avg # of iterations =  4.5

     total cpu time spent up to now is     2218.2 secs

     End of self-consistent calculation

     Number of k-points >= 100: set verbosity='high' to print the bands.

     the Fermi energy is    12.9772 ev

!    total energy              =    -934.46285943 Ry
     Harris-Foulkes estimate   =    -934.46285943 Ry
     estimated scf accuracy    <          1.7E-11 Ry

     The total energy is the sum of the following terms:

     one-electron contribution =    -329.50139892 Ry
     hartree contribution      =     193.06059803 Ry
     xc contribution           =    -119.67914133 Ry
     ewald contribution        =    -678.33938141 Ry
     smearing contrib. (-TS)   =      -0.00353581 Ry

     convergence has been achieved in  27 iterations

     Forces acting on atoms (cartesian axes, Ry/au):

     atom    1 type  2   force =     0.00010352    0.00005977    0.00357300
     atom    2 type  2   force =     0.00041650   -0.00066935    0.00000000
     atom    3 type  2   force =    -0.00037833   -0.00021843    0.00000000
     atom    4 type  2   force =     0.00087643    0.00050601    0.00000000
     atom    5 type  2   force =     0.00010352    0.00005977   -0.00357300
     atom    6 type  2   force =    -0.00037142    0.00069538    0.00000000
     atom    7 type  2   force =    -0.00037833   -0.00021843    0.00000000
     atom    8 type  1   force =    -0.00037189   -0.00021471    0.00000000

     Total force =     0.005329     Total SCF correction =     0.000003


     Computing stress (Cartesian axis) and pressure

          total   stress  (Ry/bohr**3)                   (kbar)     P=  -74.55
  -0.00047448  -0.00000268   0.00000000        -69.80     -0.39      0.00
  -0.00000268  -0.00047139   0.00000000         -0.39    -69.34      0.00
   0.00000000   0.00000000  -0.00057449          0.00      0.00    -84.51


     number of scf cycles    =   2
     number of bfgs steps    =   1

     enthalpy old            =    -934.4104062469 Ry
     enthalpy new            =    -934.4628594341 Ry

     CASE: enthalpy_new < enthalpy_old

     new trust radius        =       0.1905707137 bohr
     new conv_thr            =            1.0E-10 Ry

     new unit-cell volume =    927.90881 a.u.^3 (   137.50190 Ang^3 )
     density =      5.16844 g/cm^3

CELL_PARAMETERS (alat=  1.88972599)
  -1.452922016   2.516534941   4.703181144
  -1.452922016   2.516534941  -4.703181144
  -4.356576948  -2.515271064   0.000000000

ATOMIC_POSITIONS (angstrom)
Ti      -7.261872884   2.518115261   0.004883157
Ti      -2.905123567   3.355071066  -2.351590572
Ti      -4.358589883   2.516636649   0.000000000
Ti      -4.356093957   0.840386034  -2.351590572
Ti      -5.808950868   0.001580320  -0.004883157
Ti      -2.905749823   3.356155772   2.351590572
Ti      -2.905667867   0.000101708   0.000000000
Nb      -4.357857918   0.839367611   2.351590572


     NEW-OLD atomic charge density approx. for the potential
     extrapolated charge   89.47439, renormalised to   97.00000

     total cpu time spent up to now is     2238.6 secs

     Self-consistent Calculation

     iteration #  1     ecut=    40.00 Ry     beta= 0.60
     Davidson diagonalization with overlap
     c_bands:  2 eigenvalues not converged
     c_bands:  2 eigenvalues not converged
     c_bands:  4 eigenvalues not converged
     c_bands:  1 eigenvalues not converged
     c_bands:  1 eigenvalues not converged
     c_bands:  2 eigenvalues not converged
     c_bands:  2 eigenvalues not converged
     c_bands:  1 eigenvalues not converged
     c_bands:  1 eigenvalues not converged
     c_bands:  1 eigenvalues not converged
     c_bands:  1 eigenvalues not converged
     c_bands:  2 eigenvalues not converged
     c_bands:  2 eigenvalues not converged
     c_bands:  3 eigenvalues not converged
     c_bands:  2 eigenvalues not converged
     c_bands:  1 eigenvalues not converged
     c_bands:  2 eigenvalues not converged
     c_bands:  1 eigenvalues not converged
     c_bands:  1 eigenvalues not converged
     c_bands:  1 eigenvalues not converged
     c_bands:  2 eigenvalues not converged
     c_bands:  1 eigenvalues not converged
     c_bands:  1 eigenvalues not converged
     c_bands:  3 eigenvalues not converged
     c_bands:  3 eigenvalues not converged
     c_bands:  3 eigenvalues not converged
     c_bands:  2 eigenvalues not converged
     c_bands:  3 eigenvalues not converged
     c_bands:  2 eigenvalues not converged
     c_bands:  1 eigenvalues not converged
     c_bands:  2 eigenvalues not converged
     c_bands:  1 eigenvalues not converged
     c_bands:  1 eigenvalues not converged
     c_bands:  4 eigenvalues not converged
     c_bands:  4 eigenvalues not converged
     c_bands:  1 eigenvalues not converged
     c_bands:  1 eigenvalues not converged
     c_bands:  1 eigenvalues not converged
     c_bands:  2 eigenvalues not converged
     c_bands:  2 eigenvalues not converged
     c_bands:  3 eigenvalues not converged
     ethr =  1.00E-06,  avg # of iterations = 15.7

     total cpu time spent up to now is     2371.7 secs

     total energy              =    -925.68438601 Ry
     Harris-Foulkes estimate   =    -952.70027793 Ry
     estimated scf accuracy    <       8.61076198 Ry

     iteration #  2     ecut=    40.00 Ry     beta= 0.60
     Davidson diagonalization with overlap
     ethr =  8.88E-03,  avg # of iterations =  4.1

     total cpu time spent up to now is     2433.3 secs

     total energy              =    -931.95325117 Ry
     Harris-Foulkes estimate   =    -944.28309690 Ry
     estimated scf accuracy    <      40.15817464 Ry

     iteration #  3     ecut=    40.00 Ry     beta= 0.60
     Davidson diagonalization with overlap
     ethr =  8.88E-03,  avg # of iterations =  3.0

     total cpu time spent up to now is     2472.2 secs

     total energy              =    -934.45478215 Ry
     Harris-Foulkes estimate   =    -936.14808683 Ry
     estimated scf accuracy    <       5.62759153 Ry

     iteration #  4     ecut=    40.00 Ry     beta= 0.60
     Davidson diagonalization with overlap
     ethr =  5.80E-03,  avg # of iterations =  2.6

     total cpu time spent up to now is     2507.0 secs

     total energy              =    -934.84869938 Ry
     Harris-Foulkes estimate   =    -935.24341161 Ry
     estimated scf accuracy    <       4.00439077 Ry

     iteration #  5     ecut=    40.00 Ry     beta= 0.60
     Davidson diagonalization with overlap
     ethr =  4.13E-03,  avg # of iterations =  1.0

     total cpu time spent up to now is     2536.1 secs

     total energy              =    -934.72106054 Ry
     Harris-Foulkes estimate   =    -934.94198176 Ry
     estimated scf accuracy    <       2.47935526 Ry

     iteration #  6     ecut=    40.00 Ry     beta= 0.60
     Davidson diagonalization with overlap
     ethr =  2.56E-03,  avg # of iterations =  1.0

     total cpu time spent up to now is     2565.3 secs

     total energy              =    -934.55096793 Ry
     Harris-Foulkes estimate   =    -934.75687764 Ry
     estimated scf accuracy    <       1.57760064 Ry

     iteration #  7     ecut=    40.00 Ry     beta= 0.60
     Davidson diagonalization with overlap
     ethr =  1.63E-03,  avg # of iterations =  1.7

     total cpu time spent up to now is     2595.9 secs

     total energy              =    -934.48716552 Ry
     Harris-Foulkes estimate   =    -934.59064870 Ry
     estimated scf accuracy    <       0.74447484 Ry

     iteration #  8     ecut=    40.00 Ry     beta= 0.60
     Davidson diagonalization with overlap
     ethr =  7.67E-04,  avg # of iterations =  3.3

     total cpu time spent up to now is     2631.1 secs

     total energy              =    -934.52453492 Ry
     Harris-Foulkes estimate   =    -934.52530497 Ry
     estimated scf accuracy    <       0.28520687 Ry

     iteration #  9     ecut=    40.00 Ry     beta= 0.60
     Davidson diagonalization with overlap
     ethr =  2.94E-04,  avg # of iterations =  5.2

     total cpu time spent up to now is     2669.7 secs

     total energy              =    -934.52664398 Ry
     Harris-Foulkes estimate   =    -934.53250370 Ry
     estimated scf accuracy    <       0.27522467 Ry

     iteration # 10     ecut=    40.00 Ry     beta= 0.60
     Davidson diagonalization with overlap
     ethr =  2.84E-04,  avg # of iterations =  1.2

     total cpu time spent up to now is     2699.2 secs

     total energy              =    -934.42337786 Ry
     Harris-Foulkes estimate   =    -934.52928581 Ry
     estimated scf accuracy    <       0.25371316 Ry

     iteration # 11     ecut=    40.00 Ry     beta= 0.60
     Davidson diagonalization with overlap
     ethr =  2.62E-04,  avg # of iterations =  4.5

     total cpu time spent up to now is     2743.6 secs

     total energy              =    -934.47511592 Ry
     Harris-Foulkes estimate   =    -934.47964970 Ry
     estimated scf accuracy    <       0.01672365 Ry

     iteration # 12     ecut=    40.00 Ry     beta= 0.60
     Davidson diagonalization with overlap
     ethr =  1.72E-05,  avg # of iterations =  9.2

     total cpu time spent up to now is     2816.2 secs

     total energy              =    -934.47981770 Ry
     Harris-Foulkes estimate   =    -934.48006619 Ry
     estimated scf accuracy    <       0.00131829 Ry

     iteration # 13     ecut=    40.00 Ry     beta= 0.60
     Davidson diagonalization with overlap
     ethr =  1.36E-06,  avg # of iterations =  3.1

     total cpu time spent up to now is     2851.0 secs

     total energy              =    -934.47984172 Ry
     Harris-Foulkes estimate   =    -934.47992488 Ry
     estimated scf accuracy    <       0.00044556 Ry

     iteration # 14     ecut=    40.00 Ry     beta= 0.60
     Davidson diagonalization with overlap
     ethr =  4.59E-07,  avg # of iterations =  4.0

     total cpu time spent up to now is     2892.0 secs

     total energy              =    -934.47990324 Ry
     Harris-Foulkes estimate   =    -934.47992019 Ry
     estimated scf accuracy    <       0.00010967 Ry

     iteration # 15     ecut=    40.00 Ry     beta= 0.60
     Davidson diagonalization with overlap
     ethr =  1.13E-07,  avg # of iterations =  3.3

     total cpu time spent up to now is     2927.5 secs

     total energy              =    -934.47990184 Ry
     Harris-Foulkes estimate   =    -934.47991380 Ry
     estimated scf accuracy    <       0.00005050 Ry

     iteration # 16     ecut=    40.00 Ry     beta= 0.60
     Davidson diagonalization with overlap
     ethr =  5.21E-08,  avg # of iterations =  3.7

     total cpu time spent up to now is     2965.9 secs

     total energy              =    -934.47990883 Ry
     Harris-Foulkes estimate   =    -934.47990954 Ry
     estimated scf accuracy    <       0.00000382 Ry

     iteration # 17     ecut=    40.00 Ry     beta= 0.60
     Davidson diagonalization with overlap
     ethr =  3.94E-09,  avg # of iterations =  5.0

     total cpu time spent up to now is     3014.3 secs

     total energy              =    -934.47990929 Ry
     Harris-Foulkes estimate   =    -934.47991033 Ry
     estimated scf accuracy    <       0.00000389 Ry

     iteration # 18     ecut=    40.00 Ry     beta= 0.60
     Davidson diagonalization with overlap
     ethr =  3.94E-09,  avg # of iterations =  3.5

     total cpu time spent up to now is     3052.8 secs

     total energy              =    -934.47990983 Ry
     Harris-Foulkes estimate   =    -934.47990988 Ry
     estimated scf accuracy    <       0.00000020 Ry

     iteration # 19     ecut=    40.00 Ry     beta= 0.60
     Davidson diagonalization with overlap
     ethr =  2.04E-10,  avg # of iterations =  5.2

     total cpu time spent up to now is     3101.6 secs

     total energy              =    -934.47990986 Ry
     Harris-Foulkes estimate   =    -934.47990993 Ry
     estimated scf accuracy    <       0.00000051 Ry

     iteration # 20     ecut=    40.00 Ry     beta= 0.60
     Davidson diagonalization with overlap
     ethr =  2.04E-10,  avg # of iterations =  4.1

     total cpu time spent up to now is     3139.2 secs

     total energy              =    -934.47990989 Ry
     Harris-Foulkes estimate   =    -934.47990990 Ry
     estimated scf accuracy    <       0.00000003 Ry

     iteration # 21     ecut=    40.00 Ry     beta= 0.60
     Davidson diagonalization with overlap
     ethr =  3.56E-11,  avg # of iterations =  4.7

     total cpu time spent up to now is     3184.9 secs

     total energy              =    -934.47990990 Ry
     Harris-Foulkes estimate   =    -934.47990990 Ry
     estimated scf accuracy    <       0.00000003 Ry

     iteration # 22     ecut=    40.00 Ry     beta= 0.60
     Davidson diagonalization with overlap
     ethr =  3.36E-11,  avg # of iterations =  1.1

     total cpu time spent up to now is     3214.2 secs

     total energy              =    -934.47990990 Ry
     Harris-Foulkes estimate   =    -934.47990990 Ry
     estimated scf accuracy    <          3.9E-09 Ry

     iteration # 23     ecut=    40.00 Ry     beta= 0.60
     Davidson diagonalization with overlap
     ethr =  4.00E-12,  avg # of iterations =  5.1

     total cpu time spent up to now is     3262.7 secs

     total energy              =    -934.47990990 Ry
     Harris-Foulkes estimate   =    -934.47990990 Ry
     estimated scf accuracy    <          5.8E-09 Ry

     iteration # 24     ecut=    40.00 Ry     beta= 0.60
     Davidson diagonalization with overlap
     ethr =  4.00E-12,  avg # of iterations =  1.0

     total cpu time spent up to now is     3292.0 secs

     total energy              =    -934.47990990 Ry
     Harris-Foulkes estimate   =    -934.47990990 Ry
     estimated scf accuracy    <          1.1E-09 Ry

     iteration # 25     ecut=    40.00 Ry     beta= 0.60
     Davidson diagonalization with overlap
     ethr =  1.09E-12,  avg # of iterations =  4.3

     total cpu time spent up to now is     3336.2 secs

     total energy              =    -934.47990990 Ry
     Harris-Foulkes estimate   =    -934.47990990 Ry
     estimated scf accuracy    <          1.5E-10 Ry

     iteration # 26     ecut=    40.00 Ry     beta= 0.60
     Davidson diagonalization with overlap
     ethr =  1.51E-13,  avg # of iterations =  2.5

     total cpu time spent up to now is     3369.2 secs

     total energy              =    -934.47990990 Ry
     Harris-Foulkes estimate   =    -934.47990990 Ry
     estimated scf accuracy    <          1.3E-10 Ry

     iteration # 27     ecut=    40.00 Ry     beta= 0.60
     Davidson diagonalization with overlap
     ethr =  1.39E-13,  avg # of iterations =  2.2

     total cpu time spent up to now is     3401.3 secs

     End of self-consistent calculation

     Number of k-points >= 100: set verbosity='high' to print the bands.

     the Fermi energy is    14.2742 ev

!    total energy              =    -934.47990990 Ry
     Harris-Foulkes estimate   =    -934.47990990 Ry
     estimated scf accuracy    <          1.2E-11 Ry

     The total energy is the sum of the following terms:

     one-electron contribution =    -302.13180021 Ry
     hartree contribution      =     184.58848096 Ry
     xc contribution           =    -120.19252280 Ry
     ewald contribution        =    -696.73969226 Ry
     smearing contrib. (-TS)   =      -0.00437559 Ry

     convergence has been achieved in  27 iterations

     Forces acting on atoms (cartesian axes, Ry/au):

     atom    1 type  2   force =    -0.00099107   -0.00057219    0.00441110
     atom    2 type  2   force =     0.00090342   -0.00145603    0.00000000
     atom    3 type  2   force =     0.00055484    0.00032034    0.00000000
     atom    4 type  2   force =     0.00123766    0.00071457    0.00000000
     atom    5 type  2   force =    -0.00099107   -0.00057219   -0.00441110
     atom    6 type  2   force =    -0.00080924    0.00151040    0.00000000
     atom    7 type  2   force =     0.00055484    0.00032034    0.00000000
     atom    8 type  1   force =    -0.00045940   -0.00026523    0.00000000

     Total force =     0.007110     Total SCF correction =     0.000006


     Computing stress (Cartesian axis) and pressure

          total   stress  (Ry/bohr**3)                   (kbar)     P=   16.69
   0.00012887  -0.00000220   0.00000000         18.96     -0.32      0.00
  -0.00000220   0.00013140   0.00000000         -0.32     19.33      0.00
  -0.00000000   0.00000000   0.00008006         -0.00      0.00     11.78


     number of scf cycles    =   3
     number of bfgs steps    =   2

     enthalpy old            =    -934.4628594341 Ry
     enthalpy new            =    -934.4799099010 Ry

     CASE: enthalpy_new < enthalpy_old

     new trust radius        =       0.0291309721 bohr
     new conv_thr            =            1.0E-10 Ry

     new unit-cell volume =    940.81695 a.u.^3 (   139.41469 Ang^3 )
     density =      5.09752 g/cm^3

CELL_PARAMETERS (alat=  1.88972599)
  -1.459893341   2.528609630   4.723486311
  -1.459893341   2.528609630  -4.723486311
  -4.377190488  -2.527172296   0.000000000

ATOMIC_POSITIONS (angstrom)
Ti      -7.296833789   2.530129745   0.006315880
Ti      -2.918690409   3.370674679  -2.361743155
Ti      -4.379100218   2.528944381   0.000000000
Ti      -4.376386646   0.844769623  -2.361743155
Ti      -5.836940448   0.001520115  -0.006315880
Ti      -2.919934087   3.372828792   2.361743155
Ti      -2.919206877   0.000334751   0.000000000
Nb      -4.378724046   0.843420125   2.361743155


     NEW-OLD atomic charge density approx. for the potential
     extrapolated charge   98.23477, renormalised to   97.00000

     total cpu time spent up to now is     3421.7 secs

     Self-consistent Calculation

     iteration #  1     ecut=    40.00 Ry     beta= 0.60
     Davidson diagonalization with overlap
     c_bands:  1 eigenvalues not converged
     c_bands:  1 eigenvalues not converged
     c_bands:  1 eigenvalues not converged
     c_bands:  1 eigenvalues not converged
     ethr =  1.00E-06,  avg # of iterations = 12.2

     total cpu time spent up to now is     3511.6 secs

     total energy              =    -934.35979719 Ry
     Harris-Foulkes estimate   =    -931.68987513 Ry
     estimated scf accuracy    <       0.10229447 Ry

     iteration #  2     ecut=    40.00 Ry     beta= 0.60
     Davidson diagonalization with overlap
     c_bands:  1 eigenvalues not converged
     ethr =  1.05E-04,  avg # of iterations =  5.3

     total cpu time spent up to now is     3576.2 secs

     total energy              =    -934.40125756 Ry
     Harris-Foulkes estimate   =    -934.60353030 Ry
     estimated scf accuracy    <       0.83118524 Ry

     iteration #  3     ecut=    40.00 Ry     beta= 0.60
     Davidson diagonalization with overlap
     ethr =  1.05E-04,  avg # of iterations =  4.7

     total cpu time spent up to now is     3628.3 secs

     total energy              =    -934.46059511 Ry
     Harris-Foulkes estimate   =    -934.51847541 Ry
     estimated scf accuracy    <       0.26918446 Ry

     iteration #  4     ecut=    40.00 Ry     beta= 0.60
     Davidson diagonalization with overlap
     ethr =  1.05E-04,  avg # of iterations =  4.3

     total cpu time spent up to now is     3671.1 secs

     total energy              =    -934.48210564 Ry
     Harris-Foulkes estimate   =    -934.49295731 Ry
     estimated scf accuracy    <       0.10476806 Ry

     iteration #  5     ecut=    40.00 Ry     beta= 0.60
     Davidson diagonalization with overlap
     ethr =  1.05E-04,  avg # of iterations =  1.0

     total cpu time spent up to now is     3700.5 secs

     total energy              =    -934.48516173 Ry
     Harris-Foulkes estimate   =    -934.48611680 Ry
     estimated scf accuracy    <       0.02929629 Ry

     iteration #  6     ecut=    40.00 Ry     beta= 0.60
     Davidson diagonalization with overlap
     ethr =  3.02E-05,  avg # of iterations =  1.6

     total cpu time spent up to now is     3731.1 secs

     total energy              =    -934.48465975 Ry
     Harris-Foulkes estimate   =    -934.48564179 Ry
     estimated scf accuracy    <       0.02552310 Ry

     iteration #  7     ecut=    40.00 Ry     beta= 0.60
     Davidson diagonalization with overlap
     ethr =  2.63E-05,  avg # of iterations =  1.0

     total cpu time spent up to now is     3760.6 secs

     total energy              =    -934.48226086 Ry
     Harris-Foulkes estimate   =    -934.48496662 Ry
     estimated scf accuracy    <       0.02141765 Ry

     iteration #  8     ecut=    40.00 Ry     beta= 0.60
     Davidson diagonalization with overlap
     ethr =  2.21E-05,  avg # of iterations =  2.8

     total cpu time spent up to now is     3793.6 secs

     total energy              =    -934.48120728 Ry
     Harris-Foulkes estimate   =    -934.48281831 Ry
     estimated scf accuracy    <       0.01190177 Ry

     iteration #  9     ecut=    40.00 Ry     beta= 0.60
     Davidson diagonalization with overlap
     ethr =  1.23E-05,  avg # of iterations =  3.6

     total cpu time spent up to now is     3829.8 secs

     total energy              =    -934.48109233 Ry
     Harris-Foulkes estimate   =    -934.48183309 Ry
     estimated scf accuracy    <       0.00586021 Ry

     iteration # 10     ecut=    40.00 Ry     beta= 0.60
     Davidson diagonalization with overlap
     ethr =  6.04E-06,  avg # of iterations =  3.1

     total cpu time spent up to now is     3863.6 secs

     total energy              =    -934.47986432 Ry
     Harris-Foulkes estimate   =    -934.48127712 Ry
     estimated scf accuracy    <       0.00357736 Ry

     iteration # 11     ecut=    40.00 Ry     beta= 0.60
     Davidson diagonalization with overlap
     ethr =  3.69E-06,  avg # of iterations =  4.8

     total cpu time spent up to now is     3908.9 secs

     total energy              =    -934.48059706 Ry
     Harris-Foulkes estimate   =    -934.48060205 Ry
     estimated scf accuracy    <       0.00002112 Ry

     iteration # 12     ecut=    40.00 Ry     beta= 0.60
     Davidson diagonalization with overlap
     c_bands:  1 eigenvalues not converged
     ethr =  2.18E-08,  avg # of iterations =  6.1

     total cpu time spent up to now is     3977.1 secs

     total energy              =    -934.48063893 Ry
     Harris-Foulkes estimate   =    -934.48064227 Ry
     estimated scf accuracy    <       0.00004094 Ry

     iteration # 13     ecut=    40.00 Ry     beta= 0.60
     Davidson diagonalization with overlap
     ethr =  2.18E-08,  avg # of iterations =  1.1

     total cpu time spent up to now is     4006.7 secs

     total energy              =    -934.48063755 Ry
     Harris-Foulkes estimate   =    -934.48063966 Ry
     estimated scf accuracy    <       0.00001924 Ry

     iteration # 14     ecut=    40.00 Ry     beta= 0.60
     Davidson diagonalization with overlap
     ethr =  1.98E-08,  avg # of iterations =  3.2

     total cpu time spent up to now is     4041.4 secs

     total energy              =    -934.48063768 Ry
     Harris-Foulkes estimate   =    -934.48063845 Ry
     estimated scf accuracy    <       0.00000416 Ry

     iteration # 15     ecut=    40.00 Ry     beta= 0.60
     Davidson diagonalization with overlap
     c_bands:  1 eigenvalues not converged
     ethr =  4.29E-09,  avg # of iterations =  5.2

     total cpu time spent up to now is     4088.4 secs

     total energy              =    -934.48063840 Ry
     Harris-Foulkes estimate   =    -934.48063860 Ry
     estimated scf accuracy    <       0.00000191 Ry

     iteration # 16     ecut=    40.00 Ry     beta= 0.60
     Davidson diagonalization with overlap
     ethr =  1.97E-09,  avg # of iterations =  1.9

     total cpu time spent up to now is     4119.6 secs

     total energy              =    -934.48063839 Ry
     Harris-Foulkes estimate   =    -934.48063847 Ry
     estimated scf accuracy    <       0.00000064 Ry

     iteration # 17     ecut=    40.00 Ry     beta= 0.60
     Davidson diagonalization with overlap
     ethr =  6.56E-10,  avg # of iterations =  3.8

     total cpu time spent up to now is     4158.6 secs

     total energy              =    -934.48063841 Ry
     Harris-Foulkes estimate   =    -934.48063845 Ry
     estimated scf accuracy    <       0.00000013 Ry

     iteration # 18     ecut=    40.00 Ry     beta= 0.60
     Davidson diagonalization with overlap
     ethr =  1.39E-10,  avg # of iterations =  4.9

     total cpu time spent up to now is     4205.6 secs

     total energy              =    -934.48063844 Ry
     Harris-Foulkes estimate   =    -934.48063846 Ry
     estimated scf accuracy    <       0.00000014 Ry

     iteration # 19     ecut=    40.00 Ry     beta= 0.60
     Davidson diagonalization with overlap
     ethr =  1.39E-10,  avg # of iterations =  1.2

     total cpu time spent up to now is     4235.4 secs

     total energy              =    -934.48063844 Ry
     Harris-Foulkes estimate   =    -934.48063845 Ry
     estimated scf accuracy    <       0.00000002 Ry

     iteration # 20     ecut=    40.00 Ry     beta= 0.60
     Davidson diagonalization with overlap
     ethr =  1.81E-11,  avg # of iterations =  5.4

     total cpu time spent up to now is     4285.3 secs

     total energy              =    -934.48063845 Ry
     Harris-Foulkes estimate   =    -934.48063845 Ry
     estimated scf accuracy    <       0.00000002 Ry

     iteration # 21     ecut=    40.00 Ry     beta= 0.60
     Davidson diagonalization with overlap
     ethr =  1.81E-11,  avg # of iterations =  1.0

     total cpu time spent up to now is     4314.7 secs

     total energy              =    -934.48063845 Ry
     Harris-Foulkes estimate   =    -934.48063845 Ry
     estimated scf accuracy    <          9.4E-09 Ry

     iteration # 22     ecut=    40.00 Ry     beta= 0.60
     Davidson diagonalization with overlap
     ethr =  9.72E-12,  avg # of iterations =  3.8

     total cpu time spent up to now is     4353.7 secs

     total energy              =    -934.48063845 Ry
     Harris-Foulkes estimate   =    -934.48063845 Ry
     estimated scf accuracy    <          2.8E-10 Ry

     iteration # 23     ecut=    40.00 Ry     beta= 0.60
     Davidson diagonalization with overlap
     ethr =  2.94E-13,  avg # of iterations =  5.1

     total cpu time spent up to now is     4400.3 secs

     total energy              =    -934.48063845 Ry
     Harris-Foulkes estimate   =    -934.48063845 Ry
     estimated scf accuracy    <          1.2E-10 Ry

     iteration # 24     ecut=    40.00 Ry     beta= 0.60
     Davidson diagonalization with overlap
     ethr =  1.21E-13,  avg # of iterations =  3.2

     total cpu time spent up to now is     4435.1 secs

     End of self-consistent calculation

     Number of k-points >= 100: set verbosity='high' to print the bands.

     the Fermi energy is    14.0452 ev

!    total energy              =    -934.48063845 Ry
     Harris-Foulkes estimate   =    -934.48063845 Ry
     estimated scf accuracy    <          2.7E-12 Ry

     The total energy is the sum of the following terms:

     one-electron contribution =    -306.86987448 Ry
     hartree contribution      =     186.03429856 Ry
     xc contribution           =    -120.10028036 Ry
     ewald contribution        =    -693.54049794 Ry
     smearing contrib. (-TS)   =      -0.00428423 Ry

     convergence has been achieved in  24 iterations

     Forces acting on atoms (cartesian axes, Ry/au):

     atom    1 type  2   force =    -0.00065681   -0.00037921    0.00360551
     atom    2 type  2   force =     0.00065194   -0.00092310    0.00000000
     atom    3 type  2   force =     0.00023535    0.00013588    0.00000000
     atom    4 type  2   force =     0.00116488    0.00067254    0.00000000
     atom    5 type  2   force =    -0.00065681   -0.00037921   -0.00360551
     atom    6 type  2   force =    -0.00047346    0.00102615    0.00000000
     atom    7 type  2   force =     0.00023535    0.00013588    0.00000000
     atom    8 type  1   force =    -0.00050044   -0.00028893    0.00000000

     Total force =     0.005656     Total SCF correction =     0.000003


     Computing stress (Cartesian axis) and pressure

          total   stress  (Ry/bohr**3)                   (kbar)     P=   -0.87
   0.00000961  -0.00000187  -0.00000000          1.41     -0.28     -0.00
  -0.00000187   0.00001177   0.00000000         -0.28      1.73      0.00
   0.00000000  -0.00000000  -0.00003910          0.00     -0.00     -5.75


     number of scf cycles    =   4
     number of bfgs steps    =   3

     enthalpy old            =    -934.4799099010 Ry
     enthalpy new            =    -934.4806384504 Ry

     CASE: enthalpy_new < enthalpy_old

     new trust radius        =       0.0059671051 bohr
     new conv_thr            =            1.0E-10 Ry

     new unit-cell volume =    940.43570 a.u.^3 (   139.35819 Ang^3 )
     density =      5.09959 g/cm^3

CELL_PARAMETERS (alat=  1.88972599)
  -1.460386476   2.529463765   4.718891752
  -1.460386476   2.529463765  -4.718891752
  -4.378197932  -2.527753944   0.000000000

ATOMIC_POSITIONS (angstrom)
Ti      -7.299163265   2.531062515   0.008113935
Ti      -2.919263662   3.371380630  -2.359445876
Ti      -4.380220220   2.530006018   0.000000000
Ti      -4.376963106   0.845575650  -2.359445876
Ti      -5.838776789   0.001598750  -0.008113935
Ti      -2.921088747   3.374541769   2.359445876
Ti      -2.919833744   0.000542253   0.000000000
Nb      -4.380139739   0.843741620   2.359445876


     NEW-OLD atomic charge density approx. for the potential
     extrapolated charge   96.96352, renormalised to   97.00000

     total cpu time spent up to now is     4455.5 secs

     Self-consistent Calculation

     iteration #  1     ecut=    40.00 Ry     beta= 0.60
     Davidson diagonalization with overlap
     ethr =  1.00E-06,  avg # of iterations =  3.2

     total cpu time spent up to now is     4509.9 secs

     total energy              =    -934.48054455 Ry
     Harris-Foulkes estimate   =    -934.56382682 Ry
     estimated scf accuracy    <       0.00016331 Ry

     iteration #  2     ecut=    40.00 Ry     beta= 0.60
     Davidson diagonalization with overlap
     ethr =  1.68E-07,  avg # of iterations =  5.6

     total cpu time spent up to now is     4575.6 secs

     total energy              =    -934.48045205 Ry
     Harris-Foulkes estimate   =    -934.48100227 Ry
     estimated scf accuracy    <       0.00298196 Ry

     iteration #  3     ecut=    40.00 Ry     beta= 0.60
     Davidson diagonalization with overlap
     ethr =  1.68E-07,  avg # of iterations =  5.9

     total cpu time spent up to now is     4630.1 secs

     total energy              =    -934.48068496 Ry
     Harris-Foulkes estimate   =    -934.48073972 Ry
     estimated scf accuracy    <       0.00022039 Ry

     iteration #  4     ecut=    40.00 Ry     beta= 0.60
     Davidson diagonalization with overlap
     ethr =  1.68E-07,  avg # of iterations =  4.0

     total cpu time spent up to now is     4669.1 secs

     total energy              =    -934.48069401 Ry
     Harris-Foulkes estimate   =    -934.48072104 Ry
     estimated scf accuracy    <       0.00017362 Ry

     iteration #  5     ecut=    40.00 Ry     beta= 0.60
     Davidson diagonalization with overlap
     ethr =  1.68E-07,  avg # of iterations =  1.0

     total cpu time spent up to now is     4698.5 secs

     total energy              =    -934.48070274 Ry
     Harris-Foulkes estimate   =    -934.48070547 Ry
     estimated scf accuracy    <       0.00002234 Ry

     iteration #  6     ecut=    40.00 Ry     beta= 0.60
     Davidson diagonalization with overlap
     ethr =  2.30E-08,  avg # of iterations =  4.6

     total cpu time spent up to now is     4743.7 secs

     total energy              =    -934.48070232 Ry
     Harris-Foulkes estimate   =    -934.48070767 Ry
     estimated scf accuracy    <       0.00002259 Ry

     iteration #  7     ecut=    40.00 Ry     beta= 0.60
     Davidson diagonalization with overlap
     ethr =  2.30E-08,  avg # of iterations =  2.8

     total cpu time spent up to now is     4777.2 secs

     total energy              =    -934.48070299 Ry
     Harris-Foulkes estimate   =    -934.48070397 Ry
     estimated scf accuracy    <       0.00001178 Ry

     iteration #  8     ecut=    40.00 Ry     beta= 0.60
     Davidson diagonalization with overlap
     ethr =  1.21E-08,  avg # of iterations =  2.6

     total cpu time spent up to now is     4811.6 secs

     total energy              =    -934.48070332 Ry
     Harris-Foulkes estimate   =    -934.48070398 Ry
     estimated scf accuracy    <       0.00000776 Ry

     iteration #  9     ecut=    40.00 Ry     beta= 0.60
     Davidson diagonalization with overlap
     ethr =  8.00E-09,  avg # of iterations =  1.1

     total cpu time spent up to now is     4841.1 secs

     total energy              =    -934.48070336 Ry
     Harris-Foulkes estimate   =    -934.48070357 Ry
     estimated scf accuracy    <       0.00000260 Ry

     iteration # 10     ecut=    40.00 Ry     beta= 0.60
     Davidson diagonalization with overlap
     ethr =  2.68E-09,  avg # of iterations =  3.9

     total cpu time spent up to now is     4878.9 secs

     total energy              =    -934.48070352 Ry
     Harris-Foulkes estimate   =    -934.48070355 Ry
     estimated scf accuracy    <       0.00000033 Ry

     iteration # 11     ecut=    40.00 Ry     beta= 0.60
     Davidson diagonalization with overlap
     ethr =  3.38E-10,  avg # of iterations =  4.7

     total cpu time spent up to now is     4923.4 secs

     total energy              =    -934.48070359 Ry
     Harris-Foulkes estimate   =    -934.48070359 Ry
     estimated scf accuracy    <       0.00000003 Ry

     iteration # 12     ecut=    40.00 Ry     beta= 0.60
     Davidson diagonalization with overlap
     ethr =  2.94E-11,  avg # of iterations =  5.1

     total cpu time spent up to now is     4970.0 secs

     total energy              =    -934.48070359 Ry
     Harris-Foulkes estimate   =    -934.48070359 Ry
     estimated scf accuracy    <          8.2E-09 Ry

     iteration # 13     ecut=    40.00 Ry     beta= 0.60
     Davidson diagonalization with overlap
     ethr =  8.42E-12,  avg # of iterations =  3.0

     total cpu time spent up to now is     5004.5 secs

     total energy              =    -934.48070359 Ry
     Harris-Foulkes estimate   =    -934.48070359 Ry
     estimated scf accuracy    <          1.5E-09 Ry

     iteration # 14     ecut=    40.00 Ry     beta= 0.60
     Davidson diagonalization with overlap
     ethr =  1.52E-12,  avg # of iterations =  4.9

     total cpu time spent up to now is     5050.2 secs

     total energy              =    -934.48070359 Ry
     Harris-Foulkes estimate   =    -934.48070359 Ry
     estimated scf accuracy    <          6.1E-10 Ry

     iteration # 15     ecut=    40.00 Ry     beta= 0.60
     Davidson diagonalization with overlap
     ethr =  6.25E-13,  avg # of iterations =  2.5

     total cpu time spent up to now is     5082.6 secs

     total energy              =    -934.48070359 Ry
     Harris-Foulkes estimate   =    -934.48070359 Ry
     estimated scf accuracy    <          2.1E-10 Ry

     iteration # 16     ecut=    40.00 Ry     beta= 0.60
     Davidson diagonalization with overlap
     ethr =  2.15E-13,  avg # of iterations =  4.2

     total cpu time spent up to now is     5123.7 secs

     End of self-consistent calculation

     Number of k-points >= 100: set verbosity='high' to print the bands.

     the Fermi energy is    14.0524 ev

!    total energy              =    -934.48070359 Ry
     Harris-Foulkes estimate   =    -934.48070359 Ry
     estimated scf accuracy    <          9.3E-11 Ry

     The total energy is the sum of the following terms:

     one-electron contribution =    -306.72975657 Ry
     hartree contribution      =     185.99009179 Ry
     xc contribution           =    -120.10266869 Ry
     ewald contribution        =    -693.63404367 Ry
     smearing contrib. (-TS)   =      -0.00432646 Ry

     convergence has been achieved in  16 iterations

     Forces acting on atoms (cartesian axes, Ry/au):

     atom    1 type  2   force =    -0.00056316   -0.00032514    0.00304150
     atom    2 type  2   force =     0.00050163   -0.00058305    0.00000000
     atom    3 type  2   force =     0.00013432    0.00007755    0.00000000
     atom    4 type  2   force =     0.00115514    0.00066692    0.00000000
     atom    5 type  2   force =    -0.00056316   -0.00032514   -0.00304150
     atom    6 type  2   force =    -0.00025412    0.00072595    0.00000000
     atom    7 type  2   force =     0.00013432    0.00007755    0.00000000
     atom    8 type  1   force =    -0.00054497   -0.00031464    0.00000000

     Total force =     0.004770     Total SCF correction =     0.000016


     Computing stress (Cartesian axis) and pressure

          total   stress  (Ry/bohr**3)                   (kbar)     P=   -0.39
   0.00000979  -0.00000157  -0.00000000          1.44     -0.23     -0.00
  -0.00000157   0.00001160   0.00000000         -0.23      1.71      0.00
   0.00000000  -0.00000000  -0.00002926          0.00     -0.00     -4.30


     number of scf cycles    =   5
     number of bfgs steps    =   4

     enthalpy old            =    -934.4806384504 Ry
     enthalpy new            =    -934.4807035935 Ry

     CASE: enthalpy_new < enthalpy_old


     WARNING: bfgs curvature condition failed, Theta= 0.991
     new trust radius        =       0.0065688751 bohr
     new conv_thr            =            1.0E-10 Ry

     new unit-cell volume =    940.30516 a.u.^3 (   139.33885 Ang^3 )
     density =      5.10030 g/cm^3

CELL_PARAMETERS (alat=  1.88972599)
  -1.461167720   2.530816919   4.713837738
  -1.461167720   2.530816919  -4.713837738
  -4.379940601  -2.528760074   0.000000000

ATOMIC_POSITIONS (angstrom)
Ti      -7.302907500   2.532509192   0.010416916
Ti      -2.920329223   3.372762935  -2.356918869
Ti      -4.382148327   2.531599133   0.000000000
Ti      -4.378029982   0.846763894  -2.356918869
Ti      -5.841739779   0.001692273  -0.010416916
Ti      -2.922768147   3.376987276   2.356918869
Ti      -2.920980606   0.000782214   0.000000000
Nb      -4.382490601   0.844188554   2.356918869


     NEW-OLD atomic charge density approx. for the potential
     extrapolated charge   96.98751, renormalised to   97.00000

     total cpu time spent up to now is     5144.2 secs

     Self-consistent Calculation

     iteration #  1     ecut=    40.00 Ry     beta= 0.60
     Davidson diagonalization with overlap
     ethr =  1.00E-06,  avg # of iterations =  3.7

     Threshold (ethr) on eigenvalues was too large:
     Diagonalizing with lowered threshold

     Davidson diagonalization with overlap
     ethr =  9.45E-08,  avg # of iterations =  2.1

     total cpu time spent up to now is     5232.8 secs

     total energy              =    -934.48069677 Ry
     Harris-Foulkes estimate   =    -934.50923182 Ry
     estimated scf accuracy    <       0.00009698 Ry

     iteration #  2     ecut=    40.00 Ry     beta= 0.60
     Davidson diagonalization with overlap
     ethr =  1.00E-07,  avg # of iterations =  6.1

     total cpu time spent up to now is     5294.2 secs

     total energy              =    -934.48055885 Ry
     Harris-Foulkes estimate   =    -934.48098063 Ry
     estimated scf accuracy    <       0.00257761 Ry

     iteration #  3     ecut=    40.00 Ry     beta= 0.60
     Davidson diagonalization with overlap
     ethr =  1.00E-07,  avg # of iterations =  6.1

     total cpu time spent up to now is     5350.3 secs

     total energy              =    -934.48074831 Ry
     Harris-Foulkes estimate   =    -934.48077903 Ry
     estimated scf accuracy    <       0.00016426 Ry

     iteration #  4     ecut=    40.00 Ry     beta= 0.60
     Davidson diagonalization with overlap
     ethr =  1.00E-07,  avg # of iterations =  4.0

     total cpu time spent up to now is     5388.0 secs

     total energy              =    -934.48076049 Ry
     Harris-Foulkes estimate   =    -934.48076849 Ry
     estimated scf accuracy    <       0.00003566 Ry

     iteration #  5     ecut=    40.00 Ry     beta= 0.60
     Davidson diagonalization with overlap
     ethr =  3.68E-08,  avg # of iterations =  3.4

     total cpu time spent up to now is     5425.7 secs

     total energy              =    -934.48076455 Ry
     Harris-Foulkes estimate   =    -934.48076588 Ry
     estimated scf accuracy    <       0.00000560 Ry

     iteration #  6     ecut=    40.00 Ry     beta= 0.60
     Davidson diagonalization with overlap
     ethr =  5.77E-09,  avg # of iterations =  4.5

     total cpu time spent up to now is     5469.7 secs

     total energy              =    -934.48076539 Ry
     Harris-Foulkes estimate   =    -934.48076606 Ry
     estimated scf accuracy    <       0.00000341 Ry

     iteration #  7     ecut=    40.00 Ry     beta= 0.60
     Davidson diagonalization with overlap
     ethr =  3.51E-09,  avg # of iterations =  4.3

     total cpu time spent up to now is     5509.9 secs

     total energy              =    -934.48076547 Ry
     Harris-Foulkes estimate   =    -934.48076606 Ry
     estimated scf accuracy    <       0.00000412 Ry

     iteration #  8     ecut=    40.00 Ry     beta= 0.60
     Davidson diagonalization with overlap
     ethr =  3.51E-09,  avg # of iterations =  1.4

     total cpu time spent up to now is     5540.0 secs

     total energy              =    -934.48076571 Ry
     Harris-Foulkes estimate   =    -934.48076575 Ry
     estimated scf accuracy    <       0.00000036 Ry

     iteration #  9     ecut=    40.00 Ry     beta= 0.60
     Davidson diagonalization with overlap
     ethr =  3.69E-10,  avg # of iterations =  5.2

     total cpu time spent up to now is     5588.3 secs

     total energy              =    -934.48076579 Ry
     Harris-Foulkes estimate   =    -934.48076582 Ry
     estimated scf accuracy    <       0.00000024 Ry

     iteration # 10     ecut=    40.00 Ry     beta= 0.60
     Davidson diagonalization with overlap
     ethr =  2.44E-10,  avg # of iterations =  1.0

     total cpu time spent up to now is     5617.8 secs

     total energy              =    -934.48076579 Ry
     Harris-Foulkes estimate   =    -934.48076580 Ry
     estimated scf accuracy    <       0.00000004 Ry

     iteration # 11     ecut=    40.00 Ry     beta= 0.60
     Davidson diagonalization with overlap
     ethr =  4.14E-11,  avg # of iterations =  5.0

     total cpu time spent up to now is     5666.0 secs

     total energy              =    -934.48076580 Ry
     Harris-Foulkes estimate   =    -934.48076581 Ry
     estimated scf accuracy    <       0.00000009 Ry

     iteration # 12     ecut=    40.00 Ry     beta= 0.60
     Davidson diagonalization with overlap
     ethr =  4.14E-11,  avg # of iterations =  2.1

     total cpu time spent up to now is     5697.7 secs

     total energy              =    -934.48076580 Ry
     Harris-Foulkes estimate   =    -934.48076580 Ry
     estimated scf accuracy    <       0.00000001 Ry

     iteration # 13     ecut=    40.00 Ry     beta= 0.60
     Davidson diagonalization with overlap
     ethr =  1.03E-11,  avg # of iterations =  4.9

     total cpu time spent up to now is     5744.4 secs

     total energy              =    -934.48076580 Ry
     Harris-Foulkes estimate   =    -934.48076580 Ry
     estimated scf accuracy    <          7.6E-09 Ry

     iteration # 14     ecut=    40.00 Ry     beta= 0.60
     Davidson diagonalization with overlap
     ethr =  7.82E-12,  avg # of iterations =  1.2

     total cpu time spent up to now is     5774.2 secs

     total energy              =    -934.48076580 Ry
     Harris-Foulkes estimate   =    -934.48076580 Ry
     estimated scf accuracy    <          6.1E-09 Ry

     iteration # 15     ecut=    40.00 Ry     beta= 0.60
     Davidson diagonalization with overlap
     ethr =  6.25E-12,  avg # of iterations =  1.1

     total cpu time spent up to now is     5803.8 secs

     total energy              =    -934.48076580 Ry
     Harris-Foulkes estimate   =    -934.48076580 Ry
     estimated scf accuracy    <          1.2E-09 Ry

     iteration # 16     ecut=    40.00 Ry     beta= 0.60
     Davidson diagonalization with overlap
     ethr =  1.22E-12,  avg # of iterations =  4.9

     total cpu time spent up to now is     5850.0 secs

     total energy              =    -934.48076580 Ry
     Harris-Foulkes estimate   =    -934.48076580 Ry
     estimated scf accuracy    <          6.2E-10 Ry

     iteration # 17     ecut=    40.00 Ry     beta= 0.60
     Davidson diagonalization with overlap
     ethr =  6.41E-13,  avg # of iterations =  1.0

     total cpu time spent up to now is     5879.5 secs

     total energy              =    -934.48076580 Ry
     Harris-Foulkes estimate   =    -934.48076580 Ry
     estimated scf accuracy    <          5.0E-10 Ry

     iteration # 18     ecut=    40.00 Ry     beta= 0.60
     Davidson diagonalization with overlap
     ethr =  5.19E-13,  avg # of iterations =  1.0

     total cpu time spent up to now is     5909.0 secs

     total energy              =    -934.48076580 Ry
     Harris-Foulkes estimate   =    -934.48076580 Ry
     estimated scf accuracy    <          2.5E-10 Ry

     iteration # 19     ecut=    40.00 Ry     beta= 0.60
     Davidson diagonalization with overlap
     ethr =  2.61E-13,  avg # of iterations =  3.5

     total cpu time spent up to now is     5944.5 secs

     End of self-consistent calculation

     Number of k-points >= 100: set verbosity='high' to print the bands.

     the Fermi energy is    14.0554 ev

!    total energy              =    -934.48076580 Ry
     Harris-Foulkes estimate   =    -934.48076580 Ry
     estimated scf accuracy    <          1.2E-11 Ry

     The total energy is the sum of the following terms:

     one-electron contribution =    -306.68254515 Ry
     hartree contribution      =     185.97449334 Ry
     xc contribution           =    -120.10328031 Ry
     ewald contribution        =    -693.66505950 Ry
     smearing contrib. (-TS)   =      -0.00437419 Ry

     convergence has been achieved in  19 iterations

     Forces acting on atoms (cartesian axes, Ry/au):

     atom    1 type  2   force =    -0.00044252   -0.00025549    0.00232884
     atom    2 type  2   force =     0.00030696   -0.00016197    0.00000000
     atom    3 type  2   force =     0.00001280    0.00000739    0.00000000
     atom    4 type  2   force =     0.00113309    0.00065419    0.00000000
     atom    5 type  2   force =    -0.00044252   -0.00025549   -0.00232884
     atom    6 type  2   force =     0.00001321    0.00034682    0.00000000
     atom    7 type  2   force =     0.00001280    0.00000739    0.00000000
     atom    8 type  1   force =    -0.00059381   -0.00034283    0.00000000

     Total force =     0.003714     Total SCF correction =     0.000005


     Computing stress (Cartesian axis) and pressure

          total   stress  (Ry/bohr**3)                   (kbar)     P=   -0.20
   0.00000727  -0.00000123   0.00000000          1.07     -0.18      0.00
  -0.00000123   0.00000869   0.00000000         -0.18      1.28      0.00
   0.00000000  -0.00000000  -0.00001996          0.00     -0.00     -2.94


     number of scf cycles    =   6
     number of bfgs steps    =   5

     enthalpy old            =    -934.4807035935 Ry
     enthalpy new            =    -934.4807658040 Ry

     CASE: enthalpy_new < enthalpy_old

     new trust radius        =       0.0098631924 bohr
     new conv_thr            =            1.0E-10 Ry

     new unit-cell volume =    940.21504 a.u.^3 (   139.32549 Ang^3 )
     density =      5.10079 g/cm^3

CELL_PARAMETERS (alat=  1.88972599)
  -1.462438386   2.533017777   4.706256716
  -1.462438386   2.533017777  -4.706256716
  -4.382764173  -2.530390264   0.000000000

ATOMIC_POSITIONS (angstrom)
Ti      -7.308998038   2.534861772   0.014145632
Ti      -2.922138330   3.375298693  -2.353128358
Ti      -4.385369301   2.534141219   0.000000000
Ti      -4.379508079   0.848844989  -2.353128358
Ti      -5.846559652   0.001843995  -0.014145632
Ti      -2.925288666   3.380755235   2.353128358
Ti      -2.922930915   0.001123442   0.000000000
Nb      -4.386484508   0.844817147   2.353128358


     NEW-OLD atomic charge density approx. for the potential
     extrapolated charge   96.99137, renormalised to   97.00000

     total cpu time spent up to now is     5964.9 secs

     Self-consistent Calculation

     iteration #  1     ecut=    40.00 Ry     beta= 0.60
     Davidson diagonalization with overlap
     ethr =  1.00E-06,  avg # of iterations =  4.0

     total cpu time spent up to now is     6027.7 secs

     total energy              =    -934.48070883 Ry
[...]
     c_bands:  2 eigenvalues not converged
     c_bands:  1 eigenvalues not converged
     c_bands:  1 eigenvalues not converged
     c_bands:  2 eigenvalues not converged
     c_bands:  2 eigenvalues not converged
     c_bands:  2 eigenvalues not converged
     c_bands:  2 eigenvalues not converged
     c_bands:  2 eigenvalues not converged
     c_bands:  2 eigenvalues not converged
     c_bands:  1 eigenvalues not converged
     c_bands:  2 eigenvalues not converged
     c_bands:  2 eigenvalues not converged
     c_bands:  3 eigenvalues not converged
     c_bands:  3 eigenvalues not converged
     c_bands:  3 eigenvalues not converged
     c_bands:  2 eigenvalues not converged
     c_bands:  2 eigenvalues not converged
     c_bands:  3 eigenvalues not converged
     c_bands:  3 eigenvalues not converged
     c_bands:  3 eigenvalues not converged
     c_bands:  2 eigenvalues not converged
     c_bands:  2 eigenvalues not converged
     c_bands:  1 eigenvalues not converged
     c_bands:  2 eigenvalues not converged
     c_bands:  1 eigenvalues not converged
     c_bands:  2 eigenvalues not converged
     c_bands:  1 eigenvalues not converged
     c_bands:  1 eigenvalues not converged
     c_bands:  1 eigenvalues not converged
     c_bands:  2 eigenvalues not converged
     c_bands:  2 eigenvalues not converged
     c_bands:  1 eigenvalues not converged
     c_bands:  1 eigenvalues not converged
     c_bands:  1 eigenvalues not converged
     c_bands:  1 eigenvalues not converged
     c_bands:  2 eigenvalues not converged
     c_bands:  2 eigenvalues not converged
     c_bands:  1 eigenvalues not converged
     c_bands:  2 eigenvalues not converged
     c_bands:  1 eigenvalues not converged
     c_bands:  1 eigenvalues not converged
     c_bands:  2 eigenvalues not converged
     c_bands:  3 eigenvalues not converged
     c_bands:  2 eigenvalues not converged
     c_bands:  1 eigenvalues not converged
     c_bands:  1 eigenvalues not converged
     c_bands:  1 eigenvalues not converged
     c_bands:  2 eigenvalues not converged
     c_bands:  1 eigenvalues not converged
     c_bands:  1 eigenvalues not converged
     c_bands:  2 eigenvalues not converged
     c_bands:  2 eigenvalues not converged
     c_bands:  2 eigenvalues not converged
     c_bands:  3 eigenvalues not converged
     c_bands:  1 eigenvalues not converged
     c_bands:  2 eigenvalues not converged
     c_bands:  2 eigenvalues not converged
     c_bands:  1 eigenvalues not converged
     c_bands:  1 eigenvalues not converged
     c_bands:  3 eigenvalues not converged
     c_bands:  2 eigenvalues not converged
     c_bands:  2 eigenvalues not converged
     c_bands:  1 eigenvalues not converged
     c_bands:  1 eigenvalues not converged
     c_bands:  4 eigenvalues not converged
     c_bands:  3 eigenvalues not converged
     c_bands:  3 eigenvalues not converged
     c_bands:  2 eigenvalues not converged
     c_bands:  2 eigenvalues not converged
     c_bands:  1 eigenvalues not converged
     c_bands:  2 eigenvalues not converged
     c_bands:  2 eigenvalues not converged
     c_bands:  2 eigenvalues not converged
     c_bands:  2 eigenvalues not converged
     c_bands:  1 eigenvalues not converged
     c_bands:  2 eigenvalues not converged
     c_bands:  2 eigenvalues not converged
     c_bands:  2 eigenvalues not converged
     c_bands:  2 eigenvalues not converged
     c_bands:  4 eigenvalues not converged
     c_bands:  1 eigenvalues not converged
     c_bands:  2 eigenvalues not converged
     c_bands:  2 eigenvalues not converged
     c_bands:  1 eigenvalues not converged
     c_bands:  2 eigenvalues not converged
     c_bands:  3 eigenvalues not converged
     c_bands:  3 eigenvalues not converged
     c_bands:  3 eigenvalues not converged
     c_bands:  2 eigenvalues not converged
     c_bands:  3 eigenvalues not converged
     c_bands:  1 eigenvalues not converged
     c_bands:  3 eigenvalues not converged
     c_bands:  1 eigenvalues not converged
     c_bands:  1 eigenvalues not converged
     c_bands:  1 eigenvalues not converged
     c_bands:  1 eigenvalues not converged
     c_bands:  2 eigenvalues not converged
     c_bands:  2 eigenvalues not converged
     c_bands:  1 eigenvalues not converged
     c_bands:  1 eigenvalues not converged
     c_bands:  2 eigenvalues not converged
     c_bands:  1 eigenvalues not converged
     c_bands:  1 eigenvalues not converged
     c_bands:  2 eigenvalues not converged
     c_bands:  2 eigenvalues not converged
     c_bands:  2 eigenvalues not converged
     c_bands:  2 eigenvalues not converged
     c_bands:  1 eigenvalues not converged
     c_bands:  1 eigenvalues not converged
     c_bands:  2 eigenvalues not converged
     c_bands:  1 eigenvalues not converged
     c_bands:  4 eigenvalues not converged
     c_bands:  1 eigenvalues not converged
     c_bands:  3 eigenvalues not converged
     c_bands:  4 eigenvalues not converged
     c_bands:  3 eigenvalues not converged
     c_bands:  2 eigenvalues not converged
     c_bands:  1 eigenvalues not converged
     c_bands:  3 eigenvalues not converged
     c_bands:  3 eigenvalues not converged
     c_bands:  2 eigenvalues not converged
     c_bands:  1 eigenvalues not converged
     c_bands:  1 eigenvalues not converged
     c_bands:  2 eigenvalues not converged
     c_bands:  1 eigenvalues not converged
     c_bands:  1 eigenvalues not converged
     c_bands:  2 eigenvalues not converged
     c_bands:  1 eigenvalues not converged
     c_bands:  1 eigenvalues not converged
     c_bands:  1 eigenvalues not converged
     c_bands:  3 eigenvalues not converged
     c_bands:  1 eigenvalues not converged
     c_bands:  1 eigenvalues not converged
     c_bands:  1 eigenvalues not converged
     ethr =  1.00E-06,  avg # of iterations = 19.7

     total cpu time spent up to now is    32499.1 secs

     total energy              =    -931.22751457 Ry
     Harris-Foulkes estimate   =    -936.75218264 Ry
     estimated scf accuracy    <       7.40454641 Ry

     iteration #  2     ecut=    40.00 Ry     beta= 0.60
     Davidson diagonalization with overlap
     ethr =  7.63E-03,  avg # of iterations =  5.0

     total cpu time spent up to now is    32543.1 secs

     total energy              =    -928.74345200 Ry
     Harris-Foulkes estimate   =    -939.63335654 Ry
     estimated scf accuracy    <      36.39775396 Ry

     iteration #  3     ecut=    40.00 Ry     beta= 0.60
     Davidson diagonalization with overlap
     ethr =  7.63E-03,  avg # of iterations =  5.7

     total cpu time spent up to now is    32593.5 secs

     total energy              =    -932.95241387 Ry
     Harris-Foulkes estimate   =    -935.90348150 Ry
     estimated scf accuracy    <      15.13367328 Ry

     iteration #  4     ecut=    40.00 Ry     beta= 0.60
     Davidson diagonalization with overlap
     ethr =  7.63E-03,  avg # of iterations =  4.8

     total cpu time spent up to now is    32631.2 secs

     total energy              =    -933.45250838 Ry
     Harris-Foulkes estimate   =    -935.48043813 Ry
     estimated scf accuracy    <      19.34692087 Ry

     iteration #  5     ecut=    40.00 Ry     beta= 0.60
     Davidson diagonalization with overlap
     ethr =  7.63E-03,  avg # of iterations =  2.1

     total cpu time spent up to now is    32657.7 secs

     total energy              =    -934.22843793 Ry
     Harris-Foulkes estimate   =    -934.35240570 Ry
     estimated scf accuracy    <       0.72323372 Ry

     iteration #  6     ecut=    40.00 Ry     beta= 0.60
     Davidson diagonalization with overlap
     ethr =  7.46E-04,  avg # of iterations =  5.7

     total cpu time spent up to now is    32707.6 secs

     total energy              =    -934.45230061 Ry
     Harris-Foulkes estimate   =    -934.52024980 Ry
     estimated scf accuracy    <       0.47818802 Ry

     iteration #  7     ecut=    40.00 Ry     beta= 0.60
     Davidson diagonalization with overlap
     ethr =  4.93E-04,  avg # of iterations =  1.1

     total cpu time spent up to now is    32732.2 secs

     total energy              =    -934.45696472 Ry
     Harris-Foulkes estimate   =    -934.48016750 Ry
     estimated scf accuracy    <       0.14876397 Ry

     iteration #  8     ecut=    40.00 Ry     beta= 0.60
     Davidson diagonalization with overlap
     ethr =  1.53E-04,  avg # of iterations =  4.4

     total cpu time spent up to now is    32767.9 secs

     total energy              =    -934.46527782 Ry
     Harris-Foulkes estimate   =    -934.47776004 Ry
     estimated scf accuracy    <       0.04401712 Ry

     iteration #  9     ecut=    40.00 Ry     beta= 0.60
     Davidson diagonalization with overlap
     ethr =  4.54E-05,  avg # of iterations =  4.8

     total cpu time spent up to now is    32806.2 secs

     total energy              =    -934.47098424 Ry
     Harris-Foulkes estimate   =    -934.47616333 Ry
     estimated scf accuracy    <       0.03807777 Ry

     iteration # 10     ecut=    40.00 Ry     beta= 0.60
     Davidson diagonalization with overlap
     ethr =  3.93E-05,  avg # of iterations =  1.6

     total cpu time spent up to now is    32831.7 secs

     total energy              =    -934.47222144 Ry
     Harris-Foulkes estimate   =    -934.47297124 Ry
     estimated scf accuracy    <       0.00781800 Ry

     iteration # 11     ecut=    40.00 Ry     beta= 0.60
     Davidson diagonalization with overlap
     ethr =  8.06E-06,  avg # of iterations =  8.4

     total cpu time spent up to now is    32880.7 secs

     total energy              =    -934.47320486 Ry
     Harris-Foulkes estimate   =    -934.47330352 Ry
     estimated scf accuracy    <       0.00050138 Ry

     iteration # 12     ecut=    40.00 Ry     beta= 0.60
     Davidson diagonalization with overlap
     c_bands:  1 eigenvalues not converged
     c_bands:  1 eigenvalues not converged
     ethr =  5.17E-07,  avg # of iterations =  6.0

     total cpu time spent up to now is    32924.4 secs

     total energy              =    -934.47329038 Ry
     Harris-Foulkes estimate   =    -934.47332238 Ry
     estimated scf accuracy    <       0.00015900 Ry

     iteration # 13     ecut=    40.00 Ry     beta= 0.60
     Davidson diagonalization with overlap
     ethr =  1.64E-07,  avg # of iterations =  3.9

     total cpu time spent up to now is    32956.9 secs

     total energy              =    -934.47330730 Ry
     Harris-Foulkes estimate   =    -934.47331701 Ry
     estimated scf accuracy    <       0.00005966 Ry

     iteration # 14     ecut=    40.00 Ry     beta= 0.60
     Davidson diagonalization with overlap
     ethr =  6.15E-08,  avg # of iterations =  3.1

     total cpu time spent up to now is    32986.5 secs

     total energy              =    -934.47331300 Ry
     Harris-Foulkes estimate   =    -934.47331342 Ry
     estimated scf accuracy    <       0.00000349 Ry

     iteration # 15     ecut=    40.00 Ry     beta= 0.60
     Davidson diagonalization with overlap
     ethr =  3.60E-09,  avg # of iterations =  5.3

     total cpu time spent up to now is    33030.0 secs

     total energy              =    -934.47331429 Ry
     Harris-Foulkes estimate   =    -934.47331479 Ry
     estimated scf accuracy    <       0.00000442 Ry

     iteration # 16     ecut=    40.00 Ry     beta= 0.60
     Davidson diagonalization with overlap
     ethr =  3.60E-09,  avg # of iterations =  1.0

     total cpu time spent up to now is    33054.5 secs

     total energy              =    -934.47331416 Ry
     Harris-Foulkes estimate   =    -934.47331442 Ry
     estimated scf accuracy    <       0.00000141 Ry

     iteration # 17     ecut=    40.00 Ry     beta= 0.60
     Davidson diagonalization with overlap
     ethr =  1.45E-09,  avg # of iterations =  4.2

     total cpu time spent up to now is    33090.7 secs

     total energy              =    -934.47331441 Ry
     Harris-Foulkes estimate   =    -934.47331448 Ry
     estimated scf accuracy    <       0.00000064 Ry

     iteration # 18     ecut=    40.00 Ry     beta= 0.60
     Davidson diagonalization with overlap
     ethr =  6.57E-10,  avg # of iterations =  1.4

     total cpu time spent up to now is    33115.8 secs

     total energy              =    -934.47331442 Ry
     Harris-Foulkes estimate   =    -934.47331443 Ry
     estimated scf accuracy    <       0.00000012 Ry

     iteration # 19     ecut=    40.00 Ry     beta= 0.60
     Davidson diagonalization with overlap
     ethr =  1.21E-10,  avg # of iterations =  4.6

     total cpu time spent up to now is    33154.1 secs

     total energy              =    -934.47331444 Ry
     Harris-Foulkes estimate   =    -934.47331444 Ry
     estimated scf accuracy    <       0.00000002 Ry

     iteration # 20     ecut=    40.00 Ry     beta= 0.60
     Davidson diagonalization with overlap
     ethr =  2.57E-11,  avg # of iterations =  1.8

     total cpu time spent up to now is    33180.1 secs

     total energy              =    -934.47331444 Ry
     Harris-Foulkes estimate   =    -934.47331444 Ry
     estimated scf accuracy    <          6.8E-09 Ry

     iteration # 21     ecut=    40.00 Ry     beta= 0.60
     Davidson diagonalization with overlap
     ethr =  7.05E-12,  avg # of iterations =  4.1

     total cpu time spent up to now is    33215.6 secs

     total energy              =    -934.47331444 Ry
     Harris-Foulkes estimate   =    -934.47331444 Ry
     estimated scf accuracy    <          1.5E-09 Ry

     iteration # 22     ecut=    40.00 Ry     beta= 0.60
     Davidson diagonalization with overlap
     ethr =  1.50E-12,  avg # of iterations =  2.4

     total cpu time spent up to now is    33242.9 secs

     total energy              =    -934.47331444 Ry
     Harris-Foulkes estimate   =    -934.47331444 Ry
     estimated scf accuracy    <          4.2E-10 Ry

     iteration # 23     ecut=    40.00 Ry     beta= 0.60
     Davidson diagonalization with overlap
     ethr =  4.35E-13,  avg # of iterations =  4.4

     total cpu time spent up to now is    33280.3 secs

     total energy              =    -934.47331444 Ry
     Harris-Foulkes estimate   =    -934.47331444 Ry
     estimated scf accuracy    <          1.6E-10 Ry

     iteration # 24     ecut=    40.00 Ry     beta= 0.60
     Davidson diagonalization with overlap
     ethr =  1.66E-13,  avg # of iterations =  1.8

     total cpu time spent up to now is    33306.1 secs

     total energy              =    -934.47331444 Ry
     Harris-Foulkes estimate   =    -934.47331444 Ry
     estimated scf accuracy    <          3.0E-11 Ry

     iteration # 25     ecut=    40.00 Ry     beta= 0.60
     Davidson diagonalization with overlap
     ethr =  1.00E-13,  avg # of iterations =  3.8

     total cpu time spent up to now is    33337.3 secs

     total energy              =    -934.47331444 Ry
     Harris-Foulkes estimate   =    -934.47331444 Ry
     estimated scf accuracy    <          4.1E-12 Ry

     iteration # 26     ecut=    40.00 Ry     beta= 0.60
     Davidson diagonalization with overlap
     ethr =  1.00E-13,  avg # of iterations =  1.0

     total cpu time spent up to now is    33361.7 secs

     total energy              =    -934.47331444 Ry
     Harris-Foulkes estimate   =    -934.47331444 Ry
     estimated scf accuracy    <          1.0E-12 Ry

     iteration # 27     ecut=    40.00 Ry     beta= 0.60
     Davidson diagonalization with overlap
     ethr =  1.00E-13,  avg # of iterations =  1.0

     total cpu time spent up to now is    33386.2 secs

     End of self-consistent calculation

     Number of k-points >= 100: set verbosity='high' to print the bands.

     the Fermi energy is    14.0399 ev

!    total energy              =    -934.47331444 Ry
     Harris-Foulkes estimate   =    -934.47331444 Ry
     estimated scf accuracy    <          1.9E-13 Ry

     The total energy is the sum of the following terms:

     one-electron contribution =    -306.41408054 Ry
     hartree contribution      =     185.91305671 Ry
     xc contribution           =    -120.10777288 Ry
     ewald contribution        =    -693.86230650 Ry
     smearing contrib. (-TS)   =      -0.00221124 Ry

     convergence has been achieved in  27 iterations

     Forces acting on atoms (cartesian axes, Ry/au):

     atom    1 type  2   force =     0.00009507    0.00005489   -0.00006575
     atom    2 type  2   force =     0.00011335    0.00002934   -0.00000000
     atom    3 type  2   force =    -0.00005058   -0.00002920   -0.00000000
     atom    4 type  2   force =    -0.00021940   -0.00012667   -0.00000000
     atom    5 type  2   force =     0.00009507    0.00005489    0.00006575
     atom    6 type  2   force =     0.00008209    0.00008350    0.00000000
     atom    7 type  2   force =    -0.00005058   -0.00002920   -0.00000000
     atom    8 type  1   force =    -0.00006502   -0.00003754   -0.00000000

     Total force =     0.000370     Total SCF correction =     0.000000


     Computing stress (Cartesian axis) and pressure

          total   stress  (Ry/bohr**3)                   (kbar)     P=   -7.51
  -0.00004534   0.00000539   0.00000000         -6.67      0.79      0.00
   0.00000539  -0.00005157  -0.00000000          0.79     -7.59     -0.00
   0.00000000  -0.00000000  -0.00005628          0.00     -0.00     -8.28

 
     init_run     :     30.13s CPU     30.86s WALL (       2 calls)
     electrons    :  31923.76s CPU  32434.74s WALL (      46 calls)
     update_pot   :     79.61s CPU     79.73s WALL (      44 calls)
     forces       :    214.64s CPU    220.82s WALL (      46 calls)
     stress       :    591.98s CPU    608.69s WALL (      46 calls)

     Called by init_run:
     wfcinit      :     27.12s CPU     27.60s WALL (       2 calls)
     potinit      :      0.91s CPU      0.93s WALL (       2 calls)
     hinit0       :      1.62s CPU      1.64s WALL (       2 calls)

     Called by electrons:
     c_bands      :  27876.61s CPU  28175.01s WALL (     767 calls)
     sum_band     :   3818.41s CPU   3942.77s WALL (     767 calls)
     v_of_rho     :     35.46s CPU     35.58s WALL (     788 calls)
     newd         :    199.61s CPU    288.22s WALL (     788 calls)
     mix_rho      :      4.44s CPU      4.48s WALL (     767 calls)

     Called by c_bands:
     init_us_2    :    308.67s CPU    310.00s WALL (  302808 calls)
     cegterg      :  25820.67s CPU  26080.56s WALL (  142663 calls)

     Called by sum_band:
     sum_band:bec :     12.59s CPU     12.75s WALL (  142662 calls)
     addusdens    :    217.81s CPU    297.04s WALL (     767 calls)

     Called by *egterg:
     h_psi        :  15631.91s CPU  15857.00s WALL (  684385 calls)
     s_psi        :   1024.07s CPU   1026.31s WALL (  684385 calls)
     g_psi        :    129.92s CPU    128.14s WALL (  541350 calls)
     cdiaghg      :   5056.13s CPU   5064.27s WALL (  671178 calls)

     Called by h_psi:
     h_psi:pot    :  15562.97s CPU  15787.18s WALL (  684385 calls)
     h_psi:calbec :   1167.21s CPU   1173.76s WALL (  684385 calls)
     vloc_psi     :  13355.17s CPU  13568.35s WALL (  684385 calls)
     add_vuspsi   :   1037.23s CPU   1040.75s WALL (  684385 calls)

     General routines
     calbec       :   1699.54s CPU   1709.27s WALL (  869827 calls)
     fft          :     24.30s CPU     24.73s WALL (   11417 calls)
     ffts         :      0.97s CPU      0.96s WALL (    1555 calls)
     fftw         :  14575.53s CPU  14797.22s WALL (52540972 calls)
     interpolate  :      2.11s CPU      2.12s WALL (     788 calls)
 
     Parallel routines
     fft_scatt_xy :   2646.29s CPU   2704.97s WALL (52553944 calls)
     fft_scatt_yz :   2796.12s CPU   2864.16s WALL (52553944 calls)
 
     PWSCF        :     9h 7m CPU        7h 9m WALL

      16h
 
   This run was terminated on:  22:59:44   2Feb2020            

=------------------------------------------------------------------------------=
   JOB DONE.
=------------------------------------------------------------------------------=
