
     Program PWSCF v.6.3MaX starts on  8Feb2020 at 12:35:53 

     This program is part of the open-source Quantum ESPRESSO suite
     for quantum simulation of materials; please cite
         "P. Giannozzi et al., J. Phys.:Condens. Matter 21 395502 (2009);
         "P. Giannozzi et al., J. Phys.:Condens. Matter 29 465901 (2017);
          URL http://www.quantum-espresso.org", 
     in publications or presentations arising from this work. More details at
     http://www.quantum-espresso.org/quote

     Parallel version (MPI), running on     4 processors

     MPI processes distributed on     1 nodes
     R & G space division:  proc/nbgrp/npool/nimage =       4
     Waiting for input...
     Reading input from standard input

     Current dimensions of program PWSCF are:
     Max number of different atomic species (ntypx) = 10
     Max number of k-points (npk) =  40000
     Max angular momentum in pseudopotentials (lmaxx) =  3
     Message from routine iosys:
     minimal I/O required, wf_collect reset to FALSE

     Subspace diagonalization in iterative solution of the eigenvalue problem:
     a serial algorithm will be used

     warning: symmetry operation #  2 not compatible with FFT grid. 
   0   1  -1
   1   0  -1
   0   0  -1
     warning: symmetry operation #  3 not compatible with FFT grid. 
   0   1  -1
   0   1   0
  -1   1   0
     warning: symmetry operation #  4 not compatible with FFT grid. 
   1   0   0
   1   0  -1
   1  -1   0
 
     Parallelization info
     --------------------
     sticks:   dense  smooth     PW     G-vecs:    dense   smooth      PW
     Min         972     390    117                36389     9193    1516
     Max         973     391    119                36391     9194    1517
     Sum        3891    1561    471               145561    36775    6065
 


     bravais-lattice index     =            0
     lattice parameter (alat)  =       1.8897  a.u.
     unit-cell volume          =    1077.7903 (a.u.)^3
     number of atoms/cell      =            8
     number of atomic types    =            2
     number of electrons       =       103.00
     number of Kohn-Sham states=           62
     kinetic-energy cutoff     =      40.0000  Ry
     charge density cutoff     =     400.0000  Ry
     convergence threshold     =      1.0E-10
     mixing beta               =       0.6000
     number of iterations used =            8  plain     mixing
     Exchange-correlation      = SLA PW PBE PBE ( 1  4  3  4 0 0)
     nstep                     =           50


     celldm(1)=   1.889726  celldm(2)=   0.000000  celldm(3)=   0.000000
     celldm(4)=   0.000000  celldm(5)=   0.000000  celldm(6)=   0.000000

     crystal axes: (cart. coord. in units of alat)
               a(1) = (   4.567506   2.637051  -4.972461 )  
               a(2) = (   6.090008   0.000000   0.000000 )  
               a(3) = (   1.522502  -2.637051  -4.972461 )  

     reciprocal axes: (cart. coord. in units 2 pi/alat)
               b(1) = (  0.000000  0.189606 -0.100554 )  
               b(2) = (  0.164203 -0.094803  0.100554 )  
               b(3) = (  0.000000 -0.189606 -0.100554 )  


     PseudoPot. # 1 for Nb read from file:
     ./Nb.pbe-nsp-van.UPF
     MD5 check sum: 0a22fc7fb0ba19a08ca5db297a5d2854
     Pseudo is Ultrasoft + core correction, Zval = 13.0
     Generated by new atomic code, or converted to UPF format
     Using radial grid of  887 points,  6 beta functions with: 
                l(1) =   0
                l(2) =   0
                l(3) =   1
                l(4) =   1
                l(5) =   2
                l(6) =   2
     Q(r) pseudized with  6 coefficients,  rinner =    1.000   1.000   1.000
                                                       1.000   1.000

     PseudoPot. # 2 for Ti read from file:
     ./Ti.pbe-sp-van_ak.UPF
     MD5 check sum: f98fea3e8887528921fefa5636a534ca
     Pseudo is Ultrasoft, Zval = 12.0
     Generated by new atomic code, or converted to UPF format
     Using radial grid of  851 points,  6 beta functions with: 
                l(1) =   0
                l(2) =   0
                l(3) =   1
                l(4) =   1
                l(5) =   2
                l(6) =   2
     Q(r) pseudized with  8 coefficients,  rinner =    1.000   1.000   1.000
                                                       1.000   1.000

     atomic species   valence    mass     pseudopotential
        Nb            13.00    92.90638     Nb( 1.00)
        Ti            12.00    47.86700     Ti( 1.00)

     No symmetry found



   Cartesian axes

     site n.     atom                  positions (alat units)
         1           Ti  tau(   1) = (   6.0900085   0.0000000  -4.9724614  )
         2           Nb  tau(   2) = (   4.5675079   0.8790162  -2.4862307  )
         3           Nb  tau(   3) = (   9.1350127   0.0000000  -4.9724614  )
         4           Nb  tau(   4) = (   7.6125121   0.8790162  -2.4862307  )
         5           Nb  tau(   5) = (   9.1350127   0.0000000  -9.9449228  )
         6           Nb  tau(   6) = (   7.6125121   0.8790162  -7.4586921  )
         7           Nb  tau(   7) = (  12.1800169   0.0000000  -9.9449228  )
         8           Nb  tau(   8) = (  10.6575163   0.8790162  -7.4586921  )

     number of k points=   504  Marzari-Vanderbilt smearing, width (Ry)=  0.0200

     Number of k-points >= 100: set verbosity='high' to print them.

     Dense  grid:   145561 G-vectors     FFT dimensions: (  90,  75,  72)

     Smooth grid:    36775 G-vectors     FFT dimensions: (  60,  48,  45)

     Estimated max dynamical RAM per process >     694.55 MB

     Estimated total dynamical RAM >       2.71 GB

     Check: negative/imaginary core charge=   -0.000001    0.000000

     Initial potential from superposition of free atoms

     starting charge  101.98082, renormalised to  103.00000
     Starting wfcs are  101 randomized atomic wfcs

     total cpu time spent up to now is       59.7 secs

     Self-consistent Calculation

     iteration #  1     ecut=    40.00 Ry     beta= 0.60
     Davidson diagonalization with overlap
     ethr =  1.00E-02,  avg # of iterations =  2.0

     total cpu time spent up to now is      171.2 secs

     total energy              =    -919.63333204 Ry
     Harris-Foulkes estimate   =    -944.58328923 Ry
     estimated scf accuracy    <      31.23120129 Ry

     iteration #  2     ecut=    40.00 Ry     beta= 0.60
     Davidson diagonalization with overlap
     ethr =  1.00E-02,  avg # of iterations =  5.1

     total cpu time spent up to now is      364.6 secs

     total energy              =    -925.83715513 Ry
     Harris-Foulkes estimate   =    -975.43089065 Ry
     estimated scf accuracy    <     154.81999137 Ry

     iteration #  3     ecut=    40.00 Ry     beta= 0.60
     Davidson diagonalization with overlap
     ethr =  1.00E-02,  avg # of iterations =  5.0

     total cpu time spent up to now is      548.4 secs

     total energy              =    -942.39034940 Ry
     Harris-Foulkes estimate   =    -946.38831882 Ry
     estimated scf accuracy    <      22.36229780 Ry

     iteration #  4     ecut=    40.00 Ry     beta= 0.60
     Davidson diagonalization with overlap
     ethr =  1.00E-02,  avg # of iterations =  2.5

     total cpu time spent up to now is      655.4 secs

     total energy              =    -943.31123223 Ry
     Harris-Foulkes estimate   =    -943.87524800 Ry
     estimated scf accuracy    <       7.27990282 Ry

     iteration #  5     ecut=    40.00 Ry     beta= 0.60
     Davidson diagonalization with overlap
     ethr =  7.07E-03,  avg # of iterations =  1.2

     total cpu time spent up to now is      749.2 secs

     total energy              =    -943.03191933 Ry
     Harris-Foulkes estimate   =    -943.49626859 Ry
     estimated scf accuracy    <       5.27239630 Ry

     iteration #  6     ecut=    40.00 Ry     beta= 0.60
     Davidson diagonalization with overlap
     ethr =  5.12E-03,  avg # of iterations =  1.1

     total cpu time spent up to now is      841.4 secs

     total energy              =    -942.56893180 Ry
     Harris-Foulkes estimate   =    -943.10009770 Ry
     estimated scf accuracy    <       4.40171875 Ry

     iteration #  7     ecut=    40.00 Ry     beta= 0.60
     Davidson diagonalization with overlap
     ethr =  4.27E-03,  avg # of iterations =  1.0

     total cpu time spent up to now is      933.5 secs

     total energy              =    -941.83836641 Ry
     Harris-Foulkes estimate   =    -942.65773255 Ry
     estimated scf accuracy    <       3.42484304 Ry

     iteration #  8     ecut=    40.00 Ry     beta= 0.60
     Davidson diagonalization with overlap
     ethr =  3.33E-03,  avg # of iterations =  2.4

     total cpu time spent up to now is     1035.0 secs

     total energy              =    -941.85583435 Ry
     Harris-Foulkes estimate   =    -941.97777779 Ry
     estimated scf accuracy    <       0.97875051 Ry

     iteration #  9     ecut=    40.00 Ry     beta= 0.60
     Davidson diagonalization with overlap
     ethr =  9.50E-04,  avg # of iterations =  4.8

     total cpu time spent up to now is     1175.1 secs

     total energy              =    -941.97853418 Ry
     Harris-Foulkes estimate   =    -941.97498559 Ry
     estimated scf accuracy    <       0.02930972 Ry

     iteration # 10     ecut=    40.00 Ry     beta= 0.60
     Davidson diagonalization with overlap
     ethr =  2.85E-05,  avg # of iterations =  7.1

     total cpu time spent up to now is     1375.5 secs

     total energy              =    -941.84997855 Ry
     Harris-Foulkes estimate   =    -942.06851205 Ry
     estimated scf accuracy    <       0.98146343 Ry

     iteration # 11     ecut=    40.00 Ry     beta= 0.60
     Davidson diagonalization with overlap
     ethr =  2.85E-05,  avg # of iterations =  5.6

     total cpu time spent up to now is     1574.2 secs

     total energy              =    -941.94237523 Ry
     Harris-Foulkes estimate   =    -941.98743118 Ry
     estimated scf accuracy    <       0.37860784 Ry

     iteration # 12     ecut=    40.00 Ry     beta= 0.60
     Davidson diagonalization with overlap
     ethr =  2.85E-05,  avg # of iterations =  5.0

     total cpu time spent up to now is     1738.6 secs

     total energy              =    -941.97098377 Ry
     Harris-Foulkes estimate   =    -941.96976944 Ry
     estimated scf accuracy    <       0.01334073 Ry

     iteration # 13     ecut=    40.00 Ry     beta= 0.60
     Davidson diagonalization with overlap
     ethr =  1.30E-05,  avg # of iterations =  4.0

     total cpu time spent up to now is     1852.7 secs

     total energy              =    -941.96597424 Ry
     Harris-Foulkes estimate   =    -941.97301317 Ry
     estimated scf accuracy    <       0.05852463 Ry

     iteration # 14     ecut=    40.00 Ry     beta= 0.60
     Davidson diagonalization with overlap
     ethr =  1.30E-05,  avg # of iterations =  4.2

     total cpu time spent up to now is     1973.3 secs

     total energy              =    -941.96856830 Ry
     Harris-Foulkes estimate   =    -941.96877763 Ry
     estimated scf accuracy    <       0.00140817 Ry

     iteration # 15     ecut=    40.00 Ry     beta= 0.60
     Davidson diagonalization with overlap
     ethr =  1.37E-06,  avg # of iterations =  5.3

     total cpu time spent up to now is     2104.6 secs

     total energy              =    -941.96873203 Ry
     Harris-Foulkes estimate   =    -941.96876329 Ry
     estimated scf accuracy    <       0.00030644 Ry

     iteration # 16     ecut=    40.00 Ry     beta= 0.60
     Davidson diagonalization with overlap
     ethr =  2.98E-07,  avg # of iterations =  2.6

     total cpu time spent up to now is     2206.2 secs

     total energy              =    -941.96876306 Ry
     Harris-Foulkes estimate   =    -941.96875726 Ry
     estimated scf accuracy    <       0.00024009 Ry

     iteration # 17     ecut=    40.00 Ry     beta= 0.60
     Davidson diagonalization with overlap
     ethr =  2.33E-07,  avg # of iterations =  1.1

     total cpu time spent up to now is     2296.5 secs

     total energy              =    -941.96872297 Ry
     Harris-Foulkes estimate   =    -941.96877326 Ry
     estimated scf accuracy    <       0.00051993 Ry

     iteration # 18     ecut=    40.00 Ry     beta= 0.60
     Davidson diagonalization with overlap
     ethr =  2.33E-07,  avg # of iterations =  1.6

     total cpu time spent up to now is     2389.0 secs

     total energy              =    -941.96872984 Ry
     Harris-Foulkes estimate   =    -941.96873728 Ry
     estimated scf accuracy    <       0.00009565 Ry

     iteration # 19     ecut=    40.00 Ry     beta= 0.60
     Davidson diagonalization with overlap
     ethr =  9.29E-08,  avg # of iterations =  3.2

     total cpu time spent up to now is     2496.4 secs

     total energy              =    -941.96873434 Ry
     Harris-Foulkes estimate   =    -941.96873615 Ry
     estimated scf accuracy    <       0.00000871 Ry

     iteration # 20     ecut=    40.00 Ry     beta= 0.60
     Davidson diagonalization with overlap
     ethr =  8.45E-09,  avg # of iterations =  4.2

     total cpu time spent up to now is     2624.7 secs

     total energy              =    -941.96873586 Ry
     Harris-Foulkes estimate   =    -941.96873670 Ry
     estimated scf accuracy    <       0.00000827 Ry

     iteration # 21     ecut=    40.00 Ry     beta= 0.60
     Davidson diagonalization with overlap
     ethr =  8.03E-09,  avg # of iterations =  1.0

     total cpu time spent up to now is     2714.3 secs

     total energy              =    -941.96873579 Ry
     Harris-Foulkes estimate   =    -941.96873610 Ry
     estimated scf accuracy    <       0.00000240 Ry

     iteration # 22     ecut=    40.00 Ry     beta= 0.60
     Davidson diagonalization with overlap
     ethr =  2.33E-09,  avg # of iterations =  3.6

     total cpu time spent up to now is     2832.3 secs

     total energy              =    -941.96873595 Ry
     Harris-Foulkes estimate   =    -941.96873619 Ry
     estimated scf accuracy    <       0.00000125 Ry

     iteration # 23     ecut=    40.00 Ry     beta= 0.60
     Davidson diagonalization with overlap
     ethr =  1.22E-09,  avg # of iterations =  2.6

     total cpu time spent up to now is     2933.3 secs

     total energy              =    -941.96873606 Ry
     Harris-Foulkes estimate   =    -941.96873606 Ry
     estimated scf accuracy    <       0.00000005 Ry

     iteration # 24     ecut=    40.00 Ry     beta= 0.60
     Davidson diagonalization with overlap
     ethr =  4.51E-11,  avg # of iterations =  4.3

     total cpu time spent up to now is     3072.3 secs

     total energy              =    -941.96873607 Ry
     Harris-Foulkes estimate   =    -941.96873608 Ry
     estimated scf accuracy    <       0.00000003 Ry

     iteration # 25     ecut=    40.00 Ry     beta= 0.60
     Davidson diagonalization with overlap
     ethr =  3.27E-11,  avg # of iterations =  1.2

     total cpu time spent up to now is     3162.9 secs

     total energy              =    -941.96873607 Ry
     Harris-Foulkes estimate   =    -941.96873607 Ry
     estimated scf accuracy    <       0.00000001 Ry

     iteration # 26     ecut=    40.00 Ry     beta= 0.60
     Davidson diagonalization with overlap
     ethr =  1.34E-11,  avg # of iterations =  3.0

     total cpu time spent up to now is     3272.1 secs

     total energy              =    -941.96873607 Ry
     Harris-Foulkes estimate   =    -941.96873607 Ry
     estimated scf accuracy    <          2.5E-09 Ry

     iteration # 27     ecut=    40.00 Ry     beta= 0.60
     Davidson diagonalization with overlap
     ethr =  2.46E-12,  avg # of iterations =  3.3

     total cpu time spent up to now is     3395.0 secs

     total energy              =    -941.96873607 Ry
     Harris-Foulkes estimate   =    -941.96873607 Ry
     estimated scf accuracy    <          2.2E-09 Ry

     iteration # 28     ecut=    40.00 Ry     beta= 0.60
     Davidson diagonalization with overlap
     ethr =  2.16E-12,  avg # of iterations =  3.0

     total cpu time spent up to now is     3503.2 secs

     total energy              =    -941.96873607 Ry
     Harris-Foulkes estimate   =    -941.96873607 Ry
     estimated scf accuracy    <          1.2E-09 Ry

     iteration # 29     ecut=    40.00 Ry     beta= 0.60
     Davidson diagonalization with overlap
     ethr =  1.16E-12,  avg # of iterations =  2.0

     total cpu time spent up to now is     3602.4 secs

     total energy              =    -941.96873607 Ry
     Harris-Foulkes estimate   =    -941.96873607 Ry
     estimated scf accuracy    <          1.8E-10 Ry

     iteration # 30     ecut=    40.00 Ry     beta= 0.60
     Davidson diagonalization with overlap
     ethr =  1.79E-13,  avg # of iterations =  3.8

     total cpu time spent up to now is     3728.7 secs

     total energy              =    -941.96873607 Ry
     Harris-Foulkes estimate   =    -941.96873607 Ry
     estimated scf accuracy    <          2.8E-10 Ry

     iteration # 31     ecut=    40.00 Ry     beta= 0.60
     Davidson diagonalization with overlap
     ethr =  1.79E-13,  avg # of iterations =  2.9

     total cpu time spent up to now is     3835.5 secs

     End of self-consistent calculation

     Number of k-points >= 100: set verbosity='high' to print the bands.

     the Fermi energy is    15.6993 ev

!    total energy              =    -941.96873607 Ry
     Harris-Foulkes estimate   =    -941.96873607 Ry
     estimated scf accuracy    <          6.3E-11 Ry

     The total energy is the sum of the following terms:

     one-electron contribution =    -191.77819610 Ry
     hartree contribution      =     139.90071744 Ry
     xc contribution           =    -142.75549815 Ry
     ewald contribution        =    -747.33382021 Ry
     smearing contrib. (-TS)   =      -0.00193905 Ry

     convergence has been achieved in  31 iterations

     Forces acting on atoms (cartesian axes, Ry/au):

     atom    1 type  2   force =     0.00065222    0.00037548   -0.00000042
     atom    2 type  1   force =     0.00127072    0.00073350    0.00000025
     atom    3 type  1   force =    -0.00115795    0.00647244    0.00000035
     atom    4 type  1   force =    -0.00113717   -0.00065599   -0.00630354
     atom    5 type  1   force =     0.00502623   -0.00423872   -0.00000010
     atom    6 type  1   force =    -0.00113731   -0.00065688    0.00630342
     atom    7 type  1   force =    -0.00478768   -0.00276398    0.00000037
     atom    8 type  1   force =     0.00127095    0.00073415   -0.00000032

     Total force =     0.014311     Total SCF correction =     0.000012


     Computing stress (Cartesian axis) and pressure

          total   stress  (Ry/bohr**3)                   (kbar)     P= -108.11
  -0.00088579   0.00000133   0.00000000       -130.30      0.20      0.00
   0.00000133  -0.00088732   0.00000000          0.20   -130.53      0.00
   0.00000000   0.00000000  -0.00043158          0.00      0.00    -63.49


     BFGS Geometry Optimization

     number of scf cycles    =   1
     number of bfgs steps    =   0

     enthalpy new            =    -941.9687360730 Ry

     new trust radius        =       0.1456531561 bohr
     new conv_thr            =            1.0E-10 Ry

     new unit-cell volume =   1019.42446 a.u.^3 (   151.06312 Ang^3 )
     density =      7.67499 g/cm^3

CELL_PARAMETERS (alat=  1.88972599)
   4.466447147   2.578704473  -4.918809831
   5.955146246   0.000202213   0.000000120
   1.488698903  -2.578502689  -4.918810119

ATOMIC_POSITIONS (angstrom)
Ti       5.955483651   0.000396299  -4.918810135
Nb       4.467047867   0.860047930  -2.459404761
Nb       8.932120193   0.003652173  -4.918809675
Nb       7.443374983   0.859430021  -2.462704531
Nb       8.935319965  -0.001890298  -9.837619941
Nb       7.443374815   0.859429346  -7.374915229
Nb      11.907814822  -0.001026280  -9.837619639
Nb      10.422194134   0.860250267  -7.378214971


     NEW-OLD atomic charge density approx. for the potential

     Check: negative/imaginary core charge=   -0.000001    0.000000
     extrapolated charge   97.16122, renormalised to  103.00000

     total cpu time spent up to now is     3878.8 secs

     Self-consistent Calculation

     iteration #  1     ecut=    40.00 Ry     beta= 0.60
     Davidson diagonalization with overlap
     c_bands:  1 eigenvalues not converged
     c_bands:  1 eigenvalues not converged
     c_bands:  1 eigenvalues not converged
     c_bands:  1 eigenvalues not converged
     c_bands:  1 eigenvalues not converged
     c_bands:  1 eigenvalues not converged
     c_bands:  1 eigenvalues not converged
     c_bands:  1 eigenvalues not converged
     c_bands:  1 eigenvalues not converged
     c_bands:  1 eigenvalues not converged
     c_bands:  1 eigenvalues not converged
     c_bands:  1 eigenvalues not converged
     c_bands:  1 eigenvalues not converged
     c_bands:  1 eigenvalues not converged
     c_bands:  1 eigenvalues not converged
     c_bands:  1 eigenvalues not converged
     c_bands:  1 eigenvalues not converged
     c_bands:  1 eigenvalues not converged
     c_bands:  1 eigenvalues not converged
     c_bands:  1 eigenvalues not converged
     c_bands:  1 eigenvalues not converged
     c_bands:  1 eigenvalues not converged
     c_bands:  1 eigenvalues not converged
     c_bands:  1 eigenvalues not converged
     c_bands:  1 eigenvalues not converged
     c_bands:  1 eigenvalues not converged
     c_bands:  1 eigenvalues not converged
     c_bands:  1 eigenvalues not converged
     c_bands:  1 eigenvalues not converged
     c_bands:  1 eigenvalues not converged
     c_bands:  1 eigenvalues not converged
     c_bands:  2 eigenvalues not converged
     c_bands:  1 eigenvalues not converged
     c_bands:  1 eigenvalues not converged
     c_bands:  1 eigenvalues not converged
     c_bands:  1 eigenvalues not converged
     c_bands:  2 eigenvalues not converged
     c_bands:  1 eigenvalues not converged
     c_bands:  1 eigenvalues not converged
     c_bands:  1 eigenvalues not converged
     c_bands:  1 eigenvalues not converged
     c_bands:  1 eigenvalues not converged
     c_bands:  1 eigenvalues not converged
     c_bands:  1 eigenvalues not converged
     c_bands:  1 eigenvalues not converged
     c_bands:  1 eigenvalues not converged
     c_bands:  1 eigenvalues not converged
     c_bands:  1 eigenvalues not converged
     c_bands:  1 eigenvalues not converged
     c_bands:  1 eigenvalues not converged
     c_bands:  1 eigenvalues not converged
     c_bands:  1 eigenvalues not converged
     c_bands:  1 eigenvalues not converged
     c_bands:  1 eigenvalues not converged
     c_bands:  1 eigenvalues not converged
     c_bands:  1 eigenvalues not converged
     c_bands:  1 eigenvalues not converged
     c_bands:  1 eigenvalues not converged
     c_bands:  1 eigenvalues not converged
     c_bands:  1 eigenvalues not converged
     c_bands:  1 eigenvalues not converged
     c_bands:  1 eigenvalues not converged
     c_bands:  1 eigenvalues not converged
     c_bands:  1 eigenvalues not converged
     c_bands:  1 eigenvalues not converged
     c_bands:  1 eigenvalues not converged
     c_bands:  1 eigenvalues not converged
     c_bands:  1 eigenvalues not converged
     c_bands:  1 eigenvalues not converged
     c_bands:  1 eigenvalues not converged
     c_bands:  1 eigenvalues not converged
     c_bands:  1 eigenvalues not converged
     c_bands:  1 eigenvalues not converged
     c_bands:  1 eigenvalues not converged
     c_bands:  1 eigenvalues not converged
     c_bands:  1 eigenvalues not converged
     c_bands:  1 eigenvalues not converged
     c_bands:  1 eigenvalues not converged
     c_bands:  1 eigenvalues not converged
     c_bands:  1 eigenvalues not converged
     c_bands:  1 eigenvalues not converged
     c_bands:  1 eigenvalues not converged
     c_bands:  1 eigenvalues not converged
     c_bands:  1 eigenvalues not converged
     c_bands:  1 eigenvalues not converged
     c_bands:  1 eigenvalues not converged
     c_bands:  1 eigenvalues not converged
     c_bands:  1 eigenvalues not converged
     c_bands:  1 eigenvalues not converged
     c_bands:  1 eigenvalues not converged
     c_bands:  1 eigenvalues not converged
     c_bands:  1 eigenvalues not converged
     c_bands:  1 eigenvalues not converged
     c_bands:  1 eigenvalues not converged
     c_bands:  1 eigenvalues not converged
     c_bands:  1 eigenvalues not converged
     c_bands:  1 eigenvalues not converged
     c_bands:  1 eigenvalues not converged
     c_bands:  1 eigenvalues not converged
     c_bands:  1 eigenvalues not converged
     c_bands:  1 eigenvalues not converged
     c_bands:  1 eigenvalues not converged
     c_bands:  1 eigenvalues not converged
     c_bands:  1 eigenvalues not converged
     c_bands:  1 eigenvalues not converged
     c_bands:  1 eigenvalues not converged
     c_bands:  1 eigenvalues not converged
     c_bands:  1 eigenvalues not converged
     c_bands:  1 eigenvalues not converged
     c_bands:  1 eigenvalues not converged
     c_bands:  1 eigenvalues not converged
     c_bands:  1 eigenvalues not converged
     c_bands:  1 eigenvalues not converged
     c_bands:  1 eigenvalues not converged
     c_bands:  1 eigenvalues not converged
     c_bands:  1 eigenvalues not converged
     c_bands:  1 eigenvalues not converged
     c_bands:  1 eigenvalues not converged
     c_bands:  1 eigenvalues not converged
     c_bands:  1 eigenvalues not converged
     c_bands:  1 eigenvalues not converged
     c_bands:  1 eigenvalues not converged
     c_bands:  1 eigenvalues not converged
     c_bands:  2 eigenvalues not converged
     c_bands:  1 eigenvalues not converged
     c_bands:  1 eigenvalues not converged
     c_bands:  1 eigenvalues not converged
     c_bands:  1 eigenvalues not converged
     c_bands:  1 eigenvalues not converged
     c_bands:  1 eigenvalues not converged
     c_bands:  1 eigenvalues not converged
     c_bands:  1 eigenvalues not converged
     c_bands:  2 eigenvalues not converged
     c_bands:  2 eigenvalues not converged
     c_bands:  2 eigenvalues not converged
     ethr =  1.00E-06,  avg # of iterations = 15.4

     total cpu time spent up to now is     4257.2 secs

     total energy              =    -937.92990331 Ry
     Harris-Foulkes estimate   =    -948.98012483 Ry
     estimated scf accuracy    <       4.28193847 Ry

     iteration #  2     ecut=    40.00 Ry     beta= 0.60
     Davidson diagonalization with overlap
     ethr =  4.16E-03,  avg # of iterations =  5.3

     total cpu time spent up to now is     4428.8 secs

     total energy              =    -942.09530797 Ry
     Harris-Foulkes estimate   =    -947.02850750 Ry
     estimated scf accuracy    <      13.88973105 Ry

     iteration #  3     ecut=    40.00 Ry     beta= 0.60
     Davidson diagonalization with overlap
     ethr =  4.16E-03,  avg # of iterations =  3.0

     total cpu time spent up to now is     4547.2 secs

     total energy              =    -942.36337472 Ry
     Harris-Foulkes estimate   =    -943.10428774 Ry
     estimated scf accuracy    <       4.48117135 Ry

     iteration #  4     ecut=    40.00 Ry     beta= 0.60
     Davidson diagonalization with overlap
     ethr =  4.16E-03,  avg # of iterations =  1.1

     total cpu time spent up to now is     4640.2 secs

     total energy              =    -942.02652967 Ry
     Harris-Foulkes estimate   =    -942.64912996 Ry
     estimated scf accuracy    <       3.26140271 Ry

     iteration #  5     ecut=    40.00 Ry     beta= 0.60
     Davidson diagonalization with overlap
     ethr =  3.17E-03,  avg # of iterations =  1.8

     total cpu time spent up to now is     4736.3 secs

     total energy              =    -941.93799479 Ry
     Harris-Foulkes estimate   =    -942.14158002 Ry
     estimated scf accuracy    <       1.53961912 Ry

     iteration #  6     ecut=    40.00 Ry     beta= 0.60
     Davidson diagonalization with overlap
     ethr =  1.49E-03,  avg # of iterations =  3.8

     total cpu time spent up to now is     4849.0 secs

     total energy              =    -942.00316922 Ry
     Harris-Foulkes estimate   =    -942.04035124 Ry
     estimated scf accuracy    <       0.42444036 Ry

     iteration #  7     ecut=    40.00 Ry     beta= 0.60
     Davidson diagonalization with overlap
     ethr =  4.12E-04,  avg # of iterations =  3.8

     total cpu time spent up to now is     4971.8 secs

     total energy              =    -942.05381403 Ry
     Harris-Foulkes estimate   =    -942.03842231 Ry
     estimated scf accuracy    <       0.17526889 Ry

     iteration #  8     ecut=    40.00 Ry     beta= 0.60
     Davidson diagonalization with overlap
     ethr =  1.70E-04,  avg # of iterations =  2.1

     total cpu time spent up to now is     5070.0 secs

     total energy              =    -942.04096427 Ry
     Harris-Foulkes estimate   =    -942.06267589 Ry
     estimated scf accuracy    <       0.39525160 Ry

     iteration #  9     ecut=    40.00 Ry     beta= 0.60
     Davidson diagonalization with overlap
     ethr =  1.70E-04,  avg # of iterations =  1.0

     total cpu time spent up to now is     5162.0 secs

     total energy              =    -941.97452805 Ry
     Harris-Foulkes estimate   =    -942.04276825 Ry
     estimated scf accuracy    <       0.29522518 Ry

     iteration # 10     ecut=    40.00 Ry     beta= 0.60
     Davidson diagonalization with overlap
     ethr =  1.70E-04,  avg # of iterations =  4.9

     total cpu time spent up to now is     5293.0 secs

     total energy              =    -942.00703764 Ry
     Harris-Foulkes estimate   =    -942.00443670 Ry
     estimated scf accuracy    <       0.01988640 Ry

     iteration # 11     ecut=    40.00 Ry     beta= 0.60
     Davidson diagonalization with overlap
     ethr =  1.93E-05,  avg # of iterations =  6.3

     total cpu time spent up to now is     5481.0 secs

     total energy              =    -941.98721380 Ry
     Harris-Foulkes estimate   =    -942.01950612 Ry
     estimated scf accuracy    <       0.32332307 Ry

     iteration # 12     ecut=    40.00 Ry     beta= 0.60
     Davidson diagonalization with overlap
     ethr =  1.93E-05,  avg # of iterations =  5.7

     total cpu time spent up to now is     5642.1 secs

     total energy              =    -942.00171150 Ry
     Harris-Foulkes estimate   =    -942.00247710 Ry
     estimated scf accuracy    <       0.00216587 Ry

     iteration # 13     ecut=    40.00 Ry     beta= 0.60
     Davidson diagonalization with overlap
     ethr =  2.10E-06,  avg # of iterations =  5.8

     total cpu time spent up to now is     5810.0 secs

     total energy              =    -942.00218911 Ry
     Harris-Foulkes estimate   =    -942.00265441 Ry
     estimated scf accuracy    <       0.00535678 Ry

     iteration # 14     ecut=    40.00 Ry     beta= 0.60
     Davidson diagonalization with overlap
     ethr =  2.10E-06,  avg # of iterations =  1.1

     total cpu time spent up to now is     5902.4 secs

     total energy              =    -942.00233938 Ry
     Harris-Foulkes estimate   =    -942.00228945 Ry
     estimated scf accuracy    <       0.00185488 Ry

     iteration # 15     ecut=    40.00 Ry     beta= 0.60
     Davidson diagonalization with overlap
     ethr =  1.80E-06,  avg # of iterations =  1.0

     total cpu time spent up to now is     5994.4 secs

     total energy              =    -942.00237278 Ry
     Harris-Foulkes estimate   =    -942.00235572 Ry
     estimated scf accuracy    <       0.00230849 Ry

     iteration # 16     ecut=    40.00 Ry     beta= 0.60
     Davidson diagonalization with overlap
     ethr =  1.80E-06,  avg # of iterations =  1.0

     total cpu time spent up to now is     6086.5 secs

     total energy              =    -942.00233555 Ry
     Harris-Foulkes estimate   =    -942.00237939 Ry
     estimated scf accuracy    <       0.00235472 Ry

     iteration # 17     ecut=    40.00 Ry     beta= 0.60
     Davidson diagonalization with overlap
     ethr =  1.80E-06,  avg # of iterations =  1.0

     total cpu time spent up to now is     6178.5 secs

     total energy              =    -942.00233202 Ry
     Harris-Foulkes estimate   =    -942.00234478 Ry
     estimated scf accuracy    <       0.00173196 Ry

     iteration # 18     ecut=    40.00 Ry     beta= 0.60
     Davidson diagonalization with overlap
     ethr =  1.68E-06,  avg # of iterations =  1.0

     total cpu time spent up to now is     6270.6 secs

     total energy              =    -942.00219194 Ry
     Harris-Foulkes estimate   =    -942.00233655 Ry
     estimated scf accuracy    <       0.00148676 Ry

     iteration # 19     ecut=    40.00 Ry     beta= 0.60
     Davidson diagonalization with overlap
     ethr =  1.44E-06,  avg # of iterations =  3.0

     total cpu time spent up to now is     6375.5 secs

     total energy              =    -942.00223832 Ry
     Harris-Foulkes estimate   =    -942.00225421 Ry
     estimated scf accuracy    <       0.00017596 Ry

     iteration # 20     ecut=    40.00 Ry     beta= 0.60
     Davidson diagonalization with overlap
     ethr =  1.71E-07,  avg # of iterations =  3.5

     total cpu time spent up to now is     6488.5 secs

     total energy              =    -942.00224994 Ry
     Harris-Foulkes estimate   =    -942.00225321 Ry
     estimated scf accuracy    <       0.00001962 Ry

     iteration # 21     ecut=    40.00 Ry     beta= 0.60
     Davidson diagonalization with overlap
     ethr =  1.90E-08,  avg # of iterations =  3.8

     total cpu time spent up to now is     6609.0 secs

     total energy              =    -942.00225217 Ry
     Harris-Foulkes estimate   =    -942.00225264 Ry
     estimated scf accuracy    <       0.00000176 Ry

     iteration # 22     ecut=    40.00 Ry     beta= 0.60
     Davidson diagonalization with overlap
     ethr =  1.71E-09,  avg # of iterations =  3.8

     total cpu time spent up to now is     6740.2 secs

     total energy              =    -942.00225229 Ry
     Harris-Foulkes estimate   =    -942.00225275 Ry
     estimated scf accuracy    <       0.00000230 Ry

     iteration # 23     ecut=    40.00 Ry     beta= 0.60
     Davidson diagonalization with overlap
     ethr =  1.71E-09,  avg # of iterations =  3.0

     total cpu time spent up to now is     6857.4 secs

     total energy              =    -942.00225248 Ry
     Harris-Foulkes estimate   =    -942.00225263 Ry
     estimated scf accuracy    <       0.00000089 Ry

     iteration # 24     ecut=    40.00 Ry     beta= 0.60
     Davidson diagonalization with overlap
     ethr =  8.66E-10,  avg # of iterations =  1.7

     total cpu time spent up to now is     6953.2 secs

     total energy              =    -942.00225251 Ry
     Harris-Foulkes estimate   =    -942.00225254 Ry
     estimated scf accuracy    <       0.00000017 Ry

     iteration # 25     ecut=    40.00 Ry     beta= 0.60
     Davidson diagonalization with overlap
     ethr =  1.63E-10,  avg # of iterations =  3.8

     total cpu time spent up to now is     7080.4 secs

     total energy              =    -942.00225253 Ry
     Harris-Foulkes estimate   =    -942.00225255 Ry
     estimated scf accuracy    <       0.00000008 Ry

     iteration # 26     ecut=    40.00 Ry     beta= 0.60
     Davidson diagonalization with overlap
     ethr =  7.41E-11,  avg # of iterations =  2.1

     total cpu time spent up to now is     7179.5 secs

     total energy              =    -942.00225254 Ry
     Harris-Foulkes estimate   =    -942.00225254 Ry
     estimated scf accuracy    <       0.00000001 Ry

     iteration # 27     ecut=    40.00 Ry     beta= 0.60
     Davidson diagonalization with overlap
     ethr =  1.15E-11,  avg # of iterations =  3.4

     total cpu time spent up to now is     7304.6 secs

     total energy              =    -942.00225254 Ry
     Harris-Foulkes estimate   =    -942.00225254 Ry
     estimated scf accuracy    <          9.1E-09 Ry

     iteration # 28     ecut=    40.00 Ry     beta= 0.60
     Davidson diagonalization with overlap
     ethr =  8.80E-12,  avg # of iterations =  2.9

     total cpu time spent up to now is     7416.1 secs

     total energy              =    -942.00225254 Ry
     Harris-Foulkes estimate   =    -942.00225254 Ry
     estimated scf accuracy    <          5.6E-09 Ry

     iteration # 29     ecut=    40.00 Ry     beta= 0.60
     Davidson diagonalization with overlap
     ethr =  5.41E-12,  avg # of iterations =  2.3

     total cpu time spent up to now is     7515.8 secs

     total energy              =    -942.00225254 Ry
     Harris-Foulkes estimate   =    -942.00225254 Ry
     estimated scf accuracy    <          5.1E-10 Ry

     iteration # 30     ecut=    40.00 Ry     beta= 0.60
     Davidson diagonalization with overlap
     ethr =  4.93E-13,  avg # of iterations =  4.0

     total cpu time spent up to now is     7654.8 secs

     total energy              =    -942.00225254 Ry
     Harris-Foulkes estimate   =    -942.00225254 Ry
     estimated scf accuracy    <          1.6E-09 Ry

     iteration # 31     ecut=    40.00 Ry     beta= 0.60
     Davidson diagonalization with overlap
     ethr =  4.93E-13,  avg # of iterations =  3.2

     total cpu time spent up to now is     7781.0 secs

     total energy              =    -942.00225254 Ry
     Harris-Foulkes estimate   =    -942.00225254 Ry
     estimated scf accuracy    <          4.3E-10 Ry

     iteration # 32     ecut=    40.00 Ry     beta= 0.60
     Davidson diagonalization with overlap
     ethr =  4.14E-13,  avg # of iterations =  2.8

     total cpu time spent up to now is     7888.6 secs

     total energy              =    -942.00225254 Ry
     Harris-Foulkes estimate   =    -942.00225254 Ry
     estimated scf accuracy    <          2.4E-10 Ry

     iteration # 33     ecut=    40.00 Ry     beta= 0.60
     Davidson diagonalization with overlap
     ethr =  2.35E-13,  avg # of iterations =  2.2

     total cpu time spent up to now is     7989.2 secs

     End of self-consistent calculation

     Number of k-points >= 100: set verbosity='high' to print the bands.

     the Fermi energy is    16.7487 ev

!    total energy              =    -942.00225254 Ry
     Harris-Foulkes estimate   =    -942.00225254 Ry
     estimated scf accuracy    <          7.3E-11 Ry

     The total energy is the sum of the following terms:

     one-electron contribution =    -171.77738938 Ry
     hartree contribution      =     134.30305062 Ry
     xc contribution           =    -143.20272331 Ry
     ewald contribution        =    -761.32411000 Ry
     smearing contrib. (-TS)   =      -0.00108048 Ry

     convergence has been achieved in  33 iterations

     Forces acting on atoms (cartesian axes, Ry/au):

     atom    1 type  2   force =     0.00031328    0.00018066    0.00000052
     atom    2 type  1   force =     0.00211116    0.00121898   -0.00000018
     atom    3 type  1   force =    -0.00077829    0.00522085    0.00000031
     atom    4 type  1   force =    -0.00208926   -0.00120635   -0.00697646
     atom    5 type  1   force =     0.00413196   -0.00328432    0.00000031
     atom    6 type  1   force =    -0.00208993   -0.00120649    0.00697577
     atom    7 type  1   force =    -0.00371080   -0.00214244    0.00000016
     atom    8 type  1   force =     0.00211189    0.00121912   -0.00000043

     Total force =     0.013967     Total SCF correction =     0.000012


     Computing stress (Cartesian axis) and pressure

          total   stress  (Ry/bohr**3)                   (kbar)     P=  -37.08
  -0.00041816   0.00000286  -0.00000000        -61.51      0.42     -0.00
   0.00000286  -0.00042146   0.00000000          0.42    -62.00      0.00
  -0.00000000   0.00000000   0.00008343         -0.00      0.00     12.27


     number of scf cycles    =   2
     number of bfgs steps    =   1

     enthalpy old            =    -941.9687360730 Ry
     enthalpy new            =    -942.0022525393 Ry

     CASE: enthalpy_new < enthalpy_old

     new trust radius        =       0.1253983376 bohr
     new conv_thr            =            1.0E-10 Ry

     new unit-cell volume =    982.00078 a.u.^3 (   145.51750 Ang^3 )
     density =      7.96748 g/cm^3

CELL_PARAMETERS (alat=  1.88972599)
   4.379679600   2.528608716  -4.929250109
   5.839040760   0.000921483  -0.000000024
   1.459361192  -2.527687820  -4.929250404

ATOMIC_POSITIONS (angstrom)
Ti       5.839663766   0.001280092  -4.929250070
Nb       4.381854185   0.844737655  -2.464625103
Nb       8.757275283   0.009286034  -4.929249814
Nb       7.296589350   0.842435878  -2.474251139
Nb       8.764763110  -0.003683730  -9.858500320
Nb       7.296588738   0.842434969  -7.384249964
Nb      11.672356263  -0.001463025  -9.858500185
Nb      10.220895684   0.845659332  -7.393875910


     NEW-OLD atomic charge density approx. for the potential

     Check: negative/imaginary core charge=   -0.000001    0.000000
     extrapolated charge   99.11355, renormalised to  103.00000

     total cpu time spent up to now is     8033.8 secs

     Self-consistent Calculation

     iteration #  1     ecut=    40.00 Ry     beta= 0.60
     Davidson diagonalization with overlap
     ethr =  1.00E-06,  avg # of iterations = 11.9

     total cpu time spent up to now is     8406.7 secs

     total energy              =    -940.94806272 Ry
     Harris-Foulkes estimate   =    -946.28892164 Ry
     estimated scf accuracy    <       1.04199172 Ry

     iteration #  2     ecut=    40.00 Ry     beta= 0.60
     Davidson diagonalization with overlap
     ethr =  1.01E-03,  avg # of iterations =  6.2

     total cpu time spent up to now is     8611.6 secs

     total energy              =    -941.89145460 Ry
     Harris-Foulkes estimate   =    -943.56390402 Ry
     estimated scf accuracy    <       5.59464556 Ry

     iteration #  3     ecut=    40.00 Ry     beta= 0.60
     Davidson diagonalization with overlap
     ethr =  1.01E-03,  avg # of iterations =  4.1

     total cpu time spent up to now is     8755.6 secs

     total energy              =    -942.02708630 Ry
     Harris-Foulkes estimate   =    -942.26986757 Ry
     estimated scf accuracy    <       1.34075166 Ry

     iteration #  4     ecut=    40.00 Ry     beta= 0.60
     Davidson diagonalization with overlap
     ethr =  1.01E-03,  avg # of iterations =  2.4

     total cpu time spent up to now is     8857.1 secs

     total energy              =    -941.98443585 Ry
     Harris-Foulkes estimate   =    -942.14395278 Ry
     estimated scf accuracy    <       1.03316344 Ry

     iteration #  5     ecut=    40.00 Ry     beta= 0.60
     Davidson diagonalization with overlap
     ethr =  1.00E-03,  avg # of iterations =  2.1

     total cpu time spent up to now is     8975.8 secs

     total energy              =    -942.01136237 Ry
     Harris-Foulkes estimate   =    -942.03661339 Ry
     estimated scf accuracy    <       0.22224440 Ry

     iteration #  6     ecut=    40.00 Ry     beta= 0.60
     Davidson diagonalization with overlap
     ethr =  2.16E-04,  avg # of iterations =  4.2

     total cpu time spent up to now is     9093.3 secs

     total energy              =    -942.02072797 Ry
     Harris-Foulkes estimate   =    -942.02589280 Ry
     estimated scf accuracy    <       0.07237601 Ry

     iteration #  7     ecut=    40.00 Ry     beta= 0.60
     Davidson diagonalization with overlap
     ethr =  7.03E-05,  avg # of iterations =  3.7

     total cpu time spent up to now is     9202.7 secs

     total energy              =    -942.02060204 Ry
     Harris-Foulkes estimate   =    -942.02339690 Ry
     estimated scf accuracy    <       0.06189395 Ry

     iteration #  8     ecut=    40.00 Ry     beta= 0.60
     Davidson diagonalization with overlap
     ethr =  6.01E-05,  avg # of iterations =  1.1

     total cpu time spent up to now is     9295.1 secs

     total energy              =    -942.01610817 Ry
     Harris-Foulkes estimate   =    -942.02117269 Ry
     estimated scf accuracy    <       0.05626278 Ry

     iteration #  9     ecut=    40.00 Ry     beta= 0.60
     Davidson diagonalization with overlap
     ethr =  5.46E-05,  avg # of iterations =  1.0

     total cpu time spent up to now is     9387.2 secs

     total energy              =    -942.00578614 Ry
     Harris-Foulkes estimate   =    -942.01667988 Ry
     estimated scf accuracy    <       0.03531230 Ry

     iteration # 10     ecut=    40.00 Ry     beta= 0.60
     Davidson diagonalization with overlap
     ethr =  3.43E-05,  avg # of iterations =  6.6

     total cpu time spent up to now is     9548.2 secs

     total energy              =    -942.01295530 Ry
     Harris-Foulkes estimate   =    -942.01356599 Ry
     estimated scf accuracy    <       0.01882660 Ry

     iteration # 11     ecut=    40.00 Ry     beta= 0.60
     Davidson diagonalization with overlap
     ethr =  1.83E-05,  avg # of iterations =  1.0

     total cpu time spent up to now is     9640.3 secs

     total energy              =    -942.01130042 Ry
     Harris-Foulkes estimate   =    -942.01305392 Ry
     estimated scf accuracy    <       0.01190926 Ry

     iteration # 12     ecut=    40.00 Ry     beta= 0.60
     Davidson diagonalization with overlap
     ethr =  1.16E-05,  avg # of iterations =  3.3

     total cpu time spent up to now is     9748.0 secs

     total energy              =    -942.01227755 Ry
     Harris-Foulkes estimate   =    -942.01229986 Ry
     estimated scf accuracy    <       0.00015326 Ry

     iteration # 13     ecut=    40.00 Ry     beta= 0.60
     Davidson diagonalization with overlap
     ethr =  1.49E-07,  avg # of iterations =  5.8

     total cpu time spent up to now is     9909.1 secs

     total energy              =    -942.01234729 Ry
     Harris-Foulkes estimate   =    -942.01235131 Ry
     estimated scf accuracy    <       0.00004428 Ry

     iteration # 14     ecut=    40.00 Ry     beta= 0.60
     Davidson diagonalization with overlap
     ethr =  4.30E-08,  avg # of iterations =  1.0

     total cpu time spent up to now is    10001.2 secs

     total energy              =    -942.01234671 Ry
     Harris-Foulkes estimate   =    -942.01234830 Ry
     estimated scf accuracy    <       0.00001339 Ry

     iteration # 15     ecut=    40.00 Ry     beta= 0.60
     Davidson diagonalization with overlap
     ethr =  1.30E-08,  avg # of iterations =  3.2

     total cpu time spent up to now is    10113.0 secs

     total energy              =    -942.01234776 Ry
     Harris-Foulkes estimate   =    -942.01234793 Ry
     estimated scf accuracy    <       0.00000045 Ry

     iteration # 16     ecut=    40.00 Ry     beta= 0.60
     Davidson diagonalization with overlap
     ethr =  4.39E-10,  avg # of iterations =  4.2

     total cpu time spent up to now is    10253.4 secs

     total energy              =    -942.01234785 Ry
     Harris-Foulkes estimate   =    -942.01234801 Ry
     estimated scf accuracy    <       0.00000104 Ry

     iteration # 17     ecut=    40.00 Ry     beta= 0.60
     Davidson diagonalization with overlap
     ethr =  4.39E-10,  avg # of iterations =  3.0

     total cpu time spent up to now is    10372.5 secs

     total energy              =    -942.01234791 Ry
     Harris-Foulkes estimate   =    -942.01234794 Ry
     estimated scf accuracy    <       0.00000034 Ry

     iteration # 18     ecut=    40.00 Ry     beta= 0.60
     Davidson diagonalization with overlap
     ethr =  3.29E-10,  avg # of iterations =  1.0

     total cpu time spent up to now is    10464.7 secs

     total energy              =    -942.01234791 Ry
     Harris-Foulkes estimate   =    -942.01234792 Ry
     estimated scf accuracy    <       0.00000014 Ry

     iteration # 19     ecut=    40.00 Ry     beta= 0.60
     Davidson diagonalization with overlap
     ethr =  1.38E-10,  avg # of iterations =  2.7

     total cpu time spent up to now is    10568.7 secs

     total energy              =    -942.01234791 Ry
     Harris-Foulkes estimate   =    -942.01234792 Ry
     estimated scf accuracy    <       0.00000007 Ry

     iteration # 20     ecut=    40.00 Ry     beta= 0.60
     Davidson diagonalization with overlap
     ethr =  6.53E-11,  avg # of iterations =  3.2

     total cpu time spent up to now is    10679.1 secs

     total energy              =    -942.01234792 Ry
     Harris-Foulkes estimate   =    -942.01234792 Ry
     estimated scf accuracy    <          4.2E-09 Ry

     iteration # 21     ecut=    40.00 Ry     beta= 0.60
     Davidson diagonalization with overlap
     ethr =  4.06E-12,  avg # of iterations =  3.6

     total cpu time spent up to now is    10804.2 secs

     total energy              =    -942.01234792 Ry
     Harris-Foulkes estimate   =    -942.01234792 Ry
     estimated scf accuracy    <          8.3E-09 Ry

     iteration # 22     ecut=    40.00 Ry     beta= 0.60
     Davidson diagonalization with overlap
     ethr =  4.06E-12,  avg # of iterations =  2.8

     total cpu time spent up to now is    10906.7 secs

     total energy              =    -942.01234792 Ry
     Harris-Foulkes estimate   =    -942.01234792 Ry
     estimated scf accuracy    <          4.7E-10 Ry

     iteration # 23     ecut=    40.00 Ry     beta= 0.60
     Davidson diagonalization with overlap
     ethr =  4.54E-13,  avg # of iterations =  4.0

     total cpu time spent up to now is    11038.3 secs

     End of self-consistent calculation

     Number of k-points >= 100: set verbosity='high' to print the bands.

     the Fermi energy is    17.4755 ev

!    total energy              =    -942.01234792 Ry
     Harris-Foulkes estimate   =    -942.01234792 Ry
     estimated scf accuracy    <          5.7E-11 Ry

     The total energy is the sum of the following terms:

     one-electron contribution =    -158.40854514 Ry
     hartree contribution      =     130.68983770 Ry
     xc contribution           =    -143.52497584 Ry
     ewald contribution        =    -770.76795323 Ry
     smearing contrib. (-TS)   =      -0.00071140 Ry

     convergence has been achieved in  23 iterations

     Forces acting on atoms (cartesian axes, Ry/au):

     atom    1 type  2   force =    -0.00050247   -0.00028977    0.00000040
     atom    2 type  1   force =     0.00196019    0.00113176   -0.00000010
     atom    3 type  1   force =     0.00030085    0.00215390    0.00000010
     atom    4 type  1   force =    -0.00219995   -0.00127056   -0.00504828
     atom    5 type  1   force =     0.00201523   -0.00081618    0.00000029
     atom    6 type  1   force =    -0.00220020   -0.00127028    0.00504795
     atom    7 type  1   force =    -0.00133424   -0.00077033   -0.00000022
     atom    8 type  1   force =     0.00196058    0.00113147   -0.00000013

     Total force =     0.009289     Total SCF correction =     0.000010


     Computing stress (Cartesian axis) and pressure

          total   stress  (Ry/bohr**3)                   (kbar)     P=   19.31
  -0.00003074   0.00000463   0.00000000         -4.52      0.68      0.00
   0.00000463  -0.00003608  -0.00000000          0.68     -5.31     -0.00
   0.00000000  -0.00000000   0.00046067          0.00     -0.00     67.77


     number of scf cycles    =   3
     number of bfgs steps    =   2

     enthalpy old            =    -942.0022525393 Ry
     enthalpy new            =    -942.0123479161 Ry

     CASE: enthalpy_new < enthalpy_old

     new trust radius        =       0.0730379879 bohr
     new conv_thr            =            1.0E-10 Ry

     new unit-cell volume =    976.37978 a.u.^3 (   144.68455 Ang^3 )
     density =      8.01335 g/cm^3

CELL_PARAMETERS (alat=  1.88972599)
   4.342758507   2.507292266  -4.986693941
   5.789245600   0.001903793   0.000000072
   1.446486974  -2.505388982  -4.986694235

ATOMIC_POSITIONS (angstrom)
Ti       5.789690539   0.002159747  -4.986693529
Nb       4.346242648   0.839043145  -2.493347061
Nb       8.682525959   0.013410540  -4.986693389
Nb       7.232772494   0.835322551  -2.508144448
Nb       8.692337444  -0.003584455  -9.973387698
Nb       7.232771531   0.835321751  -7.465244556
Nb      11.570976054  -0.000531627  -9.973387822
Nb      10.135489283   0.840947086  -7.480041772


     NEW-OLD atomic charge density approx. for the potential

     Check: negative/imaginary core charge=   -0.000001    0.000000
     extrapolated charge  102.41290, renormalised to  103.00000

     total cpu time spent up to now is    11082.7 secs

     Self-consistent Calculation

     iteration #  1     ecut=    40.00 Ry     beta= 0.60
     Davidson diagonalization with overlap
     c_bands:  1 eigenvalues not converged
     c_bands:  1 eigenvalues not converged
     c_bands:  1 eigenvalues not converged
     c_bands:  1 eigenvalues not converged
     c_bands:  1 eigenvalues not converged
     c_bands:  1 eigenvalues not converged
     c_bands:  1 eigenvalues not converged
     c_bands:  1 eigenvalues not converged
     c_bands:  1 eigenvalues not converged
     c_bands:  1 eigenvalues not converged
     c_bands:  1 eigenvalues not converged
     c_bands:  1 eigenvalues not converged
     c_bands:  1 eigenvalues not converged
     c_bands:  1 eigenvalues not converged
     c_bands:  1 eigenvalues not converged
     c_bands:  1 eigenvalues not converged
     c_bands:  1 eigenvalues not converged
     c_bands:  1 eigenvalues not converged
     c_bands:  1 eigenvalues not converged
     c_bands:  1 eigenvalues not converged
     c_bands:  1 eigenvalues not converged
     c_bands:  1 eigenvalues not converged
     c_bands:  1 eigenvalues not converged
     c_bands:  1 eigenvalues not converged
     c_bands:  1 eigenvalues not converged
     c_bands:  1 eigenvalues not converged
     c_bands:  1 eigenvalues not converged
     c_bands:  1 eigenvalues not converged
     c_bands:  1 eigenvalues not converged
     c_bands:  1 eigenvalues not converged
     c_bands:  1 eigenvalues not converged
     c_bands:  1 eigenvalues not converged
     c_bands:  1 eigenvalues not converged
     c_bands:  1 eigenvalues not converged
     c_bands:  1 eigenvalues not converged
     c_bands:  1 eigenvalues not converged
     c_bands:  1 eigenvalues not converged
     c_bands:  1 eigenvalues not converged
     c_bands:  1 eigenvalues not converged
     ethr =  1.00E-06,  avg # of iterations = 11.2

     total cpu time spent up to now is    11373.1 secs

     total energy              =    -942.00155026 Ry
     Harris-Foulkes estimate   =    -942.64883807 Ry
     estimated scf accuracy    <       0.01518683 Ry

     iteration #  2     ecut=    40.00 Ry     beta= 0.60
     Davidson diagonalization with overlap
     c_bands:  1 eigenvalues not converged
     ethr =  1.47E-05,  avg # of iterations =  7.6

     total cpu time spent up to now is    11589.9 secs

     total energy              =    -941.99398204 Ry
     Harris-Foulkes estimate   =    -942.05327763 Ry
     estimated scf accuracy    <       0.37836445 Ry

     iteration #  3     ecut=    40.00 Ry     beta= 0.60
     Davidson diagonalization with overlap
     ethr =  1.47E-05,  avg # of iterations =  5.2

     total cpu time spent up to now is    11778.0 secs

     total energy              =    -942.01689911 Ry
     Harris-Foulkes estimate   =    -942.02022532 Ry
     estimated scf accuracy    <       0.00886263 Ry

     iteration #  4     ecut=    40.00 Ry     beta= 0.60
     Davidson diagonalization with overlap
     ethr =  8.60E-06,  avg # of iterations =  3.4

     total cpu time spent up to now is    11919.8 secs

     total energy              =    -942.01731886 Ry
     Harris-Foulkes estimate   =    -942.01902804 Ry
     estimated scf accuracy    <       0.01197142 Ry

     iteration #  5     ecut=    40.00 Ry     beta= 0.60
     Davidson diagonalization with overlap
     ethr =  8.60E-06,  avg # of iterations =  1.7

     total cpu time spent up to now is    12029.9 secs

     total energy              =    -942.01761634 Ry
     Harris-Foulkes estimate   =    -942.01803239 Ry
     estimated scf accuracy    <       0.00314227 Ry

     iteration #  6     ecut=    40.00 Ry     beta= 0.60
     Davidson diagonalization with overlap
     ethr =  3.05E-06,  avg # of iterations =  2.4

     total cpu time spent up to now is    12146.9 secs

     total energy              =    -942.01748958 Ry
     Harris-Foulkes estimate   =    -942.01776230 Ry
     estimated scf accuracy    <       0.00138146 Ry

     iteration #  7     ecut=    40.00 Ry     beta= 0.60
     Davidson diagonalization with overlap
     ethr =  1.34E-06,  avg # of iterations =  3.1

     total cpu time spent up to now is    12274.0 secs

     total energy              =    -942.01752743 Ry
     Harris-Foulkes estimate   =    -942.01760720 Ry
     estimated scf accuracy    <       0.00033326 Ry

     iteration #  8     ecut=    40.00 Ry     beta= 0.60
     Davidson diagonalization with overlap
     ethr =  3.24E-07,  avg # of iterations =  3.8

     total cpu time spent up to now is    12421.2 secs

     total energy              =    -942.01756636 Ry
     Harris-Foulkes estimate   =    -942.01758388 Ry
     estimated scf accuracy    <       0.00015926 Ry

     iteration #  9     ecut=    40.00 Ry     beta= 0.60
     Davidson diagonalization with overlap
     ethr =  1.55E-07,  avg # of iterations =  1.1

     total cpu time spent up to now is    12526.3 secs

     total energy              =    -942.01756366 Ry
     Harris-Foulkes estimate   =    -942.01757273 Ry
     estimated scf accuracy    <       0.00005775 Ry

     iteration # 10     ecut=    40.00 Ry     beta= 0.60
     Davidson diagonalization with overlap
     ethr =  5.61E-08,  avg # of iterations =  3.0

     total cpu time spent up to now is    12656.5 secs

     total energy              =    -942.01756903 Ry
     Harris-Foulkes estimate   =    -942.01756993 Ry
     estimated scf accuracy    <       0.00000341 Ry

     iteration # 11     ecut=    40.00 Ry     beta= 0.60
     Davidson diagonalization with overlap
<<<<<<< HEAD
=======
<<<<<<< HEAD
>>>>>>> 5e9e5684d371b66e74b3227e06fdcc8ee35ef154
     ethr =  3.31E-09,  avg # of iterations =  3.2

     total cpu time spent up to now is    12800.1 secs

     total energy              =    -942.01756956 Ry
     Harris-Foulkes estimate   =    -942.01756967 Ry
     estimated scf accuracy    <       0.00000092 Ry

     iteration # 12     ecut=    40.00 Ry     beta= 0.60
     Davidson diagonalization with overlap
     ethr =  8.92E-10,  avg # of iterations =  2.7

     total cpu time spent up to now is    12920.3 secs

     total energy              =    -942.01756960 Ry
     Harris-Foulkes estimate   =    -942.01756962 Ry
     estimated scf accuracy    <       0.00000011 Ry

     iteration # 13     ecut=    40.00 Ry     beta= 0.60
     Davidson diagonalization with overlap
     ethr =  1.10E-10,  avg # of iterations =  4.0

     total cpu time spent up to now is    13078.6 secs

     total energy              =    -942.01756962 Ry
     Harris-Foulkes estimate   =    -942.01756963 Ry
     estimated scf accuracy    <       0.00000004 Ry

     iteration # 14     ecut=    40.00 Ry     beta= 0.60
     Davidson diagonalization with overlap
     ethr =  4.26E-11,  avg # of iterations =  2.1

     total cpu time spent up to now is    13195.9 secs

     total energy              =    -942.01756962 Ry
     Harris-Foulkes estimate   =    -942.01756963 Ry
     estimated scf accuracy    <       0.00000003 Ry

     iteration # 15     ecut=    40.00 Ry     beta= 0.60
     Davidson diagonalization with overlap
     ethr =  2.51E-11,  avg # of iterations =  2.5

     total cpu time spent up to now is    13316.1 secs

     total energy              =    -942.01756963 Ry
     Harris-Foulkes estimate   =    -942.01756963 Ry
     estimated scf accuracy    <          2.2E-09 Ry

     iteration # 16     ecut=    40.00 Ry     beta= 0.60
     Davidson diagonalization with overlap
     ethr =  2.16E-12,  avg # of iterations =  3.9

     total cpu time spent up to now is    13468.0 secs

     total energy              =    -942.01756963 Ry
     Harris-Foulkes estimate   =    -942.01756963 Ry
     estimated scf accuracy    <          7.0E-10 Ry

     iteration # 17     ecut=    40.00 Ry     beta= 0.60
     Davidson diagonalization with overlap
     ethr =  6.77E-13,  avg # of iterations =  3.1

     total cpu time spent up to now is    13611.1 secs

     total energy              =    -942.01756963 Ry
     Harris-Foulkes estimate   =    -942.01756963 Ry
     estimated scf accuracy    <          1.4E-09 Ry

     iteration # 18     ecut=    40.00 Ry     beta= 0.60
     Davidson diagonalization with overlap
     ethr =  6.77E-13,  avg # of iterations =  3.4

     total cpu time spent up to now is    13750.6 secs

     total energy              =    -942.01756963 Ry
     Harris-Foulkes estimate   =    -942.01756963 Ry
     estimated scf accuracy    <          1.1E-10 Ry

     iteration # 19     ecut=    40.00 Ry     beta= 0.60
     Davidson diagonalization with overlap
     ethr =  1.03E-13,  avg # of iterations =  3.0

     total cpu time spent up to now is    13889.0 secs

     End of self-consistent calculation

     Number of k-points >= 100: set verbosity='high' to print the bands.

     the Fermi energy is    17.5787 ev

!    total energy              =    -942.01756963 Ry
     Harris-Foulkes estimate   =    -942.01756963 Ry
     estimated scf accuracy    <          7.8E-11 Ry

     The total energy is the sum of the following terms:

     one-electron contribution =    -156.72185838 Ry
     hartree contribution      =     130.32767535 Ry
     xc contribution           =    -143.58550614 Ry
     ewald contribution        =    -772.03714972 Ry
     smearing contrib. (-TS)   =      -0.00073074 Ry

     convergence has been achieved in  19 iterations

     Forces acting on atoms (cartesian axes, Ry/au):

     atom    1 type  2   force =    -0.00087488   -0.00050462    0.00000018
     atom    2 type  1   force =     0.00091851    0.00053016    0.00000006
     atom    3 type  1   force =     0.00095189   -0.00002788   -0.00000010
     atom    4 type  1   force =    -0.00140161   -0.00080965   -0.00266916
     atom    5 type  1   force =     0.00045137    0.00083865    0.00000008
     atom    6 type  1   force =    -0.00140150   -0.00080931    0.00266903
     atom    7 type  1   force =     0.00043764    0.00025274   -0.00000004
     atom    8 type  1   force =     0.00091858    0.00052992   -0.00000005

     Total force =     0.004983     Total SCF correction =     0.000024


     Computing stress (Cartesian axis) and pressure

          total   stress  (Ry/bohr**3)                   (kbar)     P=   28.06
   0.00005802   0.00000508  -0.00000000          8.53      0.75     -0.00
   0.00000508   0.00005216  -0.00000000          0.75      7.67     -0.00
  -0.00000000  -0.00000000   0.00046204         -0.00     -0.00     67.97


     number of scf cycles    =   4
     number of bfgs steps    =   3

     enthalpy old            =    -942.0123479161 Ry
     enthalpy new            =    -942.0175696263 Ry

     CASE: enthalpy_new < enthalpy_old

     new trust radius        =       0.1079845613 bohr
     new conv_thr            =            1.0E-10 Ry

     new unit-cell volume =    977.56746 a.u.^3 (   144.86055 Ang^3 )
     density =      8.00361 g/cm^3

CELL_PARAMETERS (alat=  1.88972599)
   4.309648672   2.488176423  -5.072859905
   5.744233276   0.003403347  -0.000000036
   1.434584649  -2.484773372  -5.072860017

ATOMIC_POSITIONS (angstrom)
Ti       5.744152217   0.003355904  -5.072859139
Nb       4.314260307   0.834321841  -2.536430073
Nb       8.615396552   0.017805900  -5.072859297
Nb       7.174828370   0.829355662  -2.556957469
Nb       8.626871593  -0.002070668 -10.145719302
Nb       7.174827350   0.829355129  -7.588763851
Nb      11.479705529   0.001748348 -10.145719678
Nb      10.058495006   0.837725326  -7.609290932


     NEW-OLD atomic charge density approx. for the potential

     Check: negative/imaginary core charge=   -0.000001    0.000000
     extrapolated charge  103.12390, renormalised to  103.00000

     total cpu time spent up to now is    13941.3 secs

     Self-consistent Calculation

     iteration #  1     ecut=    40.00 Ry     beta= 0.60
     Davidson diagonalization with overlap
     c_bands:  1 eigenvalues not converged
     c_bands:  1 eigenvalues not converged
     c_bands:  1 eigenvalues not converged
     c_bands:  1 eigenvalues not converged
     c_bands:  1 eigenvalues not converged
     c_bands:  1 eigenvalues not converged
     c_bands:  1 eigenvalues not converged
     c_bands:  1 eigenvalues not converged
     c_bands:  1 eigenvalues not converged
     c_bands:  1 eigenvalues not converged
     c_bands:  1 eigenvalues not converged
     c_bands:  1 eigenvalues not converged
     c_bands:  1 eigenvalues not converged
     c_bands:  1 eigenvalues not converged
     c_bands:  1 eigenvalues not converged
     c_bands:  1 eigenvalues not converged
     c_bands:  1 eigenvalues not converged
     c_bands:  1 eigenvalues not converged
     c_bands:  1 eigenvalues not converged
     c_bands:  1 eigenvalues not converged
     c_bands:  1 eigenvalues not converged
     c_bands:  1 eigenvalues not converged
     c_bands:  1 eigenvalues not converged
     c_bands:  1 eigenvalues not converged
     c_bands:  1 eigenvalues not converged
     c_bands:  1 eigenvalues not converged
     c_bands:  1 eigenvalues not converged
     c_bands:  1 eigenvalues not converged
     c_bands:  1 eigenvalues not converged
     c_bands:  1 eigenvalues not converged
     c_bands:  1 eigenvalues not converged
     c_bands:  1 eigenvalues not converged
     c_bands:  1 eigenvalues not converged
     c_bands:  1 eigenvalues not converged
     c_bands:  1 eigenvalues not converged
     c_bands:  1 eigenvalues not converged
     c_bands:  1 eigenvalues not converged
     c_bands:  1 eigenvalues not converged
     c_bands:  1 eigenvalues not converged
     ethr =  1.00E-06,  avg # of iterations = 10.8

     total cpu time spent up to now is    14275.0 secs

     total energy              =    -942.02243361 Ry
     Harris-Foulkes estimate   =    -941.88937932 Ry
     estimated scf accuracy    <       0.00140806 Ry

     iteration #  2     ecut=    40.00 Ry     beta= 0.60
     Davidson diagonalization with overlap
     ethr =  1.37E-06,  avg # of iterations =  5.0

     total cpu time spent up to now is    14501.3 secs

     total energy              =    -942.02133816 Ry
     Harris-Foulkes estimate   =    -942.02473729 Ry
     estimated scf accuracy    <       0.01805117 Ry

     iteration #  3     ecut=    40.00 Ry     beta= 0.60
     Davidson diagonalization with overlap
     ethr =  1.37E-06,  avg # of iterations =  4.6

     total cpu time spent up to now is    14684.3 secs

     total energy              =    -942.02295993 Ry
     Harris-Foulkes estimate   =    -942.02331119 Ry
     estimated scf accuracy    <       0.00137121 Ry

     iteration #  4     ecut=    40.00 Ry     beta= 0.60
     Davidson diagonalization with overlap
     ethr =  1.33E-06,  avg # of iterations =  5.1

     total cpu time spent up to now is    14842.5 secs

     total energy              =    -942.02286282 Ry
     Harris-Foulkes estimate   =    -942.02338232 Ry
     estimated scf accuracy    <       0.00310039 Ry

     iteration #  5     ecut=    40.00 Ry     beta= 0.60
     Davidson diagonalization with overlap
     ethr =  1.33E-06,  avg # of iterations =  4.1

     total cpu time spent up to now is    14984.1 secs

     total energy              =    -942.02312621 Ry
     Harris-Foulkes estimate   =    -942.02316479 Ry
     estimated scf accuracy    <       0.00017390 Ry

     iteration #  6     ecut=    40.00 Ry     beta= 0.60
     Davidson diagonalization with overlap
     ethr =  1.69E-07,  avg # of iterations =  3.5

     total cpu time spent up to now is    15134.0 secs

     total energy              =    -942.02311959 Ry
     Harris-Foulkes estimate   =    -942.02319706 Ry
     estimated scf accuracy    <       0.00042619 Ry

     iteration #  7     ecut=    40.00 Ry     beta= 0.60
     Davidson diagonalization with overlap
     ethr =  1.69E-07,  avg # of iterations =  3.0

     total cpu time spent up to now is    15270.1 secs

     total energy              =    -942.02315605 Ry
     Harris-Foulkes estimate   =    -942.02315767 Ry
     estimated scf accuracy    <       0.00000543 Ry

     iteration #  8     ecut=    40.00 Ry     beta= 0.60
     Davidson diagonalization with overlap
     ethr =  5.27E-09,  avg # of iterations =  4.1

     total cpu time spent up to now is    15435.2 secs

     total energy              =    -942.02315715 Ry
     Harris-Foulkes estimate   =    -942.02315869 Ry
     estimated scf accuracy    <       0.00000706 Ry

     iteration #  9     ecut=    40.00 Ry     beta= 0.60
     Davidson diagonalization with overlap
     ethr =  5.27E-09,  avg # of iterations =  2.9

     total cpu time spent up to now is    15567.6 secs

     total energy              =    -942.02315789 Ry
     Harris-Foulkes estimate   =    -942.02315798 Ry
     estimated scf accuracy    <       0.00000036 Ry

     iteration # 10     ecut=    40.00 Ry     beta= 0.60
     Davidson diagonalization with overlap
     ethr =  3.52E-10,  avg # of iterations =  3.0

     total cpu time spent up to now is    15709.3 secs

     total energy              =    -942.02315796 Ry
     Harris-Foulkes estimate   =    -942.02315798 Ry
     estimated scf accuracy    <       0.00000010 Ry

     iteration # 11     ecut=    40.00 Ry     beta= 0.60
     Davidson diagonalization with overlap
     ethr =  9.82E-11,  avg # of iterations =  2.3

     total cpu time spent up to now is    15834.5 secs

     total energy              =    -942.02315796 Ry
     Harris-Foulkes estimate   =    -942.02315797 Ry
     estimated scf accuracy    <       0.00000002 Ry

     iteration # 12     ecut=    40.00 Ry     beta= 0.60
     Davidson diagonalization with overlap
     ethr =  1.83E-11,  avg # of iterations =  3.9

     total cpu time spent up to now is    15988.3 secs

     total energy              =    -942.02315796 Ry
     Harris-Foulkes estimate   =    -942.02315797 Ry
     estimated scf accuracy    <       0.00000001 Ry

     iteration # 13     ecut=    40.00 Ry     beta= 0.60
     Davidson diagonalization with overlap
     ethr =  1.31E-11,  avg # of iterations =  3.1

     total cpu time spent up to now is    16124.7 secs

     total energy              =    -942.02315797 Ry
     Harris-Foulkes estimate   =    -942.02315797 Ry
     estimated scf accuracy    <          8.4E-09 Ry

     iteration # 14     ecut=    40.00 Ry     beta= 0.60
     Davidson diagonalization with overlap
     ethr =  8.16E-12,  avg # of iterations =  2.0

     total cpu time spent up to now is    16240.2 secs

     total energy              =    -942.02315797 Ry
     Harris-Foulkes estimate   =    -942.02315797 Ry
     estimated scf accuracy    <          1.2E-09 Ry

     iteration # 15     ecut=    40.00 Ry     beta= 0.60
     Davidson diagonalization with overlap
     ethr =  1.18E-12,  avg # of iterations =  3.1

     total cpu time spent up to now is    16376.2 secs

     End of self-consistent calculation

     Number of k-points >= 100: set verbosity='high' to print the bands.

     the Fermi energy is    17.5402 ev

!    total energy              =    -942.02315797 Ry
     Harris-Foulkes estimate   =    -942.02315797 Ry
     estimated scf accuracy    <          4.1E-11 Ry

     The total energy is the sum of the following terms:

     one-electron contribution =    -157.95694207 Ry
     hartree contribution      =     130.84878838 Ry
     xc contribution           =    -143.59573537 Ry
     ewald contribution        =    -771.31824535 Ry
     smearing contrib. (-TS)   =      -0.00102356 Ry

     convergence has been achieved in  15 iterations

     Forces acting on atoms (cartesian axes, Ry/au):

     atom    1 type  2   force =    -0.00098798   -0.00057005   -0.00000004
     atom    2 type  1   force =    -0.00067317   -0.00038878    0.00000026
     atom    3 type  1   force =     0.00133579   -0.00213629   -0.00000036
     atom    4 type  1   force =    -0.00003458   -0.00002033   -0.00013579
     atom    5 type  1   force =    -0.00118262    0.00222536   -0.00000013
     atom    6 type  1   force =    -0.00003416   -0.00001998    0.00013611
     atom    7 type  1   force =     0.00224999    0.00129911   -0.00000028
     atom    8 type  1   force =    -0.00067326   -0.00038903    0.00000022

     Total force =     0.004690     Total SCF correction =     0.000024


     Computing stress (Cartesian axis) and pressure

          total   stress  (Ry/bohr**3)                   (kbar)     P=   25.75
   0.00009830   0.00000473   0.00000000         14.46      0.70      0.00
   0.00000473   0.00009283  -0.00000000          0.70     13.66     -0.00
   0.00000000  -0.00000000   0.00033397          0.00     -0.00     49.13


     number of scf cycles    =   5
     number of bfgs steps    =   4

     enthalpy old            =    -942.0175696263 Ry
     enthalpy new            =    -942.0231579659 Ry

     CASE: enthalpy_new < enthalpy_old

     new trust radius        =       0.1593223728 bohr
     new conv_thr            =            1.0E-10 Ry

     new unit-cell volume =    988.87662 a.u.^3 (   146.53639 Ang^3 )
     density =      7.91208 g/cm^3

CELL_PARAMETERS (alat=  1.88972599)
   4.282543593   2.472527083  -5.202108629
   5.706626093   0.005944584   0.000000067
   1.424082384  -2.466582559  -5.202108647

ATOMIC_POSITIONS (angstrom)
Ti       5.705379828   0.005224938  -5.202107501
Nb       4.287242127   0.830849610  -2.601054102
Nb       8.560271972   0.022303998  -5.202108142
Nb       7.126497320   0.825704897  -2.627845585
Nb       8.571697210   0.002512904 -10.404216538
Nb       7.126496403   0.825704838  -7.776372975
Nb      11.404869570   0.007049724 -10.404217306
Nb       9.993869830   0.836794163  -7.803163836


     NEW-OLD atomic charge density approx. for the potential
     extrapolated charge  104.16629, renormalised to  103.00000

     total cpu time spent up to now is    16428.6 secs

     Self-consistent Calculation

     iteration #  1     ecut=    40.00 Ry     beta= 0.60
     Davidson diagonalization with overlap
     c_bands:  1 eigenvalues not converged
     c_bands:  1 eigenvalues not converged
     c_bands:  1 eigenvalues not converged
     c_bands:  1 eigenvalues not converged
     c_bands:  1 eigenvalues not converged
     c_bands:  1 eigenvalues not converged
     c_bands:  1 eigenvalues not converged
     c_bands:  1 eigenvalues not converged
     c_bands:  1 eigenvalues not converged
     c_bands:  1 eigenvalues not converged
     c_bands:  1 eigenvalues not converged
     c_bands:  1 eigenvalues not converged
     c_bands:  1 eigenvalues not converged
     c_bands:  1 eigenvalues not converged
     c_bands:  1 eigenvalues not converged
     c_bands:  1 eigenvalues not converged
     c_bands:  1 eigenvalues not converged
     c_bands:  1 eigenvalues not converged
     c_bands:  1 eigenvalues not converged
     c_bands:  1 eigenvalues not converged
     ethr =  1.00E-06,  avg # of iterations = 12.2

     total cpu time spent up to now is    16809.5 secs

     total energy              =    -941.98399149 Ry
     Harris-Foulkes estimate   =    -940.72542169 Ry
     estimated scf accuracy    <       0.03306518 Ry

     iteration #  2     ecut=    40.00 Ry     beta= 0.60
     Davidson diagonalization with overlap
     ethr =  3.21E-05,  avg # of iterations =  6.3

     total cpu time spent up to now is    17069.1 secs

     total energy              =    -941.94921830 Ry
     Harris-Foulkes estimate   =    -942.10662243 Ry
     estimated scf accuracy    <       1.36404112 Ry

     iteration #  3     ecut=    40.00 Ry     beta= 0.60
     Davidson diagonalization with overlap
     ethr =  3.21E-05,  avg # of iterations =  5.8

     total cpu time spent up to now is    17281.6 secs

     total energy              =    -942.02062720 Ry
     Harris-Foulkes estimate   =    -942.03782630 Ry
     estimated scf accuracy    <       0.05824956 Ry

     iteration #  4     ecut=    40.00 Ry     beta= 0.60
     Davidson diagonalization with overlap
     ethr =  3.21E-05,  avg # of iterations =  4.2

     total cpu time spent up to now is    17440.7 secs

     total energy              =    -942.02439050 Ry
     Harris-Foulkes estimate   =    -942.03455180 Ry
     estimated scf accuracy    <       0.07724896 Ry

     iteration #  5     ecut=    40.00 Ry     beta= 0.60
     Davidson diagonalization with overlap
     ethr =  3.21E-05,  avg # of iterations =  2.4

     total cpu time spent up to now is    17558.3 secs

     total energy              =    -942.02736233 Ry
     Harris-Foulkes estimate   =    -942.02846084 Ry
     estimated scf accuracy    <       0.00980593 Ry

     iteration #  6     ecut=    40.00 Ry     beta= 0.60
     Davidson diagonalization with overlap
     ethr =  9.52E-06,  avg # of iterations =  3.4

     total cpu time spent up to now is    17685.5 secs

     total energy              =    -942.02662891 Ry
     Harris-Foulkes estimate   =    -942.02786103 Ry
     estimated scf accuracy    <       0.00719373 Ry

     iteration #  7     ecut=    40.00 Ry     beta= 0.60
     Davidson diagonalization with overlap
     ethr =  6.98E-06,  avg # of iterations =  1.5

     total cpu time spent up to now is    17794.4 secs

     total energy              =    -942.02654462 Ry
     Harris-Foulkes estimate   =    -942.02695509 Ry
     estimated scf accuracy    <       0.00299694 Ry

     iteration #  8     ecut=    40.00 Ry     beta= 0.60
     Davidson diagonalization with overlap
     ethr =  2.91E-06,  avg # of iterations =  3.7

     total cpu time spent up to now is    17928.5 secs

     total energy              =    -942.02665433 Ry
     Harris-Foulkes estimate   =    -942.02674041 Ry
     estimated scf accuracy    <       0.00106831 Ry

     iteration #  9     ecut=    40.00 Ry     beta= 0.60
     Davidson diagonalization with overlap
     ethr =  1.04E-06,  avg # of iterations =  1.4

     total cpu time spent up to now is    18036.9 secs

     total energy              =    -942.02665335 Ry
     Harris-Foulkes estimate   =    -942.02668495 Ry
     estimated scf accuracy    <       0.00057089 Ry

     iteration # 10     ecut=    40.00 Ry     beta= 0.60
     Davidson diagonalization with overlap
     ethr =  5.54E-07,  avg # of iterations =  2.3

     total cpu time spent up to now is    18153.7 secs

     total energy              =    -942.02663407 Ry
     Harris-Foulkes estimate   =    -942.02666786 Ry
     estimated scf accuracy    <       0.00024837 Ry

     iteration # 11     ecut=    40.00 Ry     beta= 0.60
     Davidson diagonalization with overlap
     ethr =  2.41E-07,  avg # of iterations =  3.2

     total cpu time spent up to now is    18283.0 secs

     total energy              =    -942.02665137 Ry
     Harris-Foulkes estimate   =    -942.02665323 Ry
     estimated scf accuracy    <       0.00001199 Ry

     iteration # 12     ecut=    40.00 Ry     beta= 0.60
     Davidson diagonalization with overlap
     ethr =  1.16E-08,  avg # of iterations =  4.4

     total cpu time spent up to now is    18449.4 secs

     total energy              =    -942.02665500 Ry
     Harris-Foulkes estimate   =    -942.02665545 Ry
     estimated scf accuracy    <       0.00000254 Ry

     iteration # 13     ecut=    40.00 Ry     beta= 0.60
     Davidson diagonalization with overlap
     ethr =  2.46E-09,  avg # of iterations =  2.2

     total cpu time spent up to now is    18566.4 secs

     total energy              =    -942.02665517 Ry
     Harris-Foulkes estimate   =    -942.02665522 Ry
     estimated scf accuracy    <       0.00000021 Ry

[...]

     iteration #  1     ecut=    40.00 Ry     beta= 0.60
     Davidson diagonalization with overlap
     ethr =  1.00E-06,  avg # of iterations =  3.7

     Threshold (ethr) on eigenvalues was too large:
     Diagonalizing with lowered threshold

     Davidson diagonalization with overlap
     ethr =  1.96E-08,  avg # of iterations =  2.7

     total cpu time spent up to now is   111275.9 secs

     total energy              =    -942.08024237 Ry
     Harris-Foulkes estimate   =    -942.07523729 Ry
     estimated scf accuracy    <       0.00002094 Ry

     iteration #  2     ecut=    40.00 Ry     beta= 0.60
     Davidson diagonalization with overlap
     ethr =  2.03E-08,  avg # of iterations =  4.0

     total cpu time spent up to now is   111421.4 secs

     total energy              =    -942.08022150 Ry
     Harris-Foulkes estimate   =    -942.08028491 Ry
     estimated scf accuracy    <       0.00032629 Ry

     iteration #  3     ecut=    40.00 Ry     beta= 0.60
     Davidson diagonalization with overlap
     ethr =  2.03E-08,  avg # of iterations =  4.1

     total cpu time spent up to now is   111555.4 secs

     total energy              =    -942.08025187 Ry
     Harris-Foulkes estimate   =    -942.08025619 Ry
     estimated scf accuracy    <       0.00001605 Ry

     iteration #  4     ecut=    40.00 Ry     beta= 0.60
     Davidson diagonalization with overlap
     ethr =  1.56E-08,  avg # of iterations =  3.8

     total cpu time spent up to now is   111670.4 secs

     total energy              =    -942.08025274 Ry
     Harris-Foulkes estimate   =    -942.08025613 Ry
     estimated scf accuracy    <       0.00002178 Ry

     iteration #  5     ecut=    40.00 Ry     beta= 0.60
     Davidson diagonalization with overlap
     ethr =  1.56E-08,  avg # of iterations =  1.9

     total cpu time spent up to now is   111763.8 secs

     total energy              =    -942.08025411 Ry
     Harris-Foulkes estimate   =    -942.08025420 Ry
     estimated scf accuracy    <       0.00000042 Ry

     iteration #  6     ecut=    40.00 Ry     beta= 0.60
     Davidson diagonalization with overlap
     ethr =  4.06E-10,  avg # of iterations =  4.8

     total cpu time spent up to now is   111912.3 secs

     total energy              =    -942.08025444 Ry
     Harris-Foulkes estimate   =    -942.08025456 Ry
     estimated scf accuracy    <       0.00000099 Ry

     iteration #  7     ecut=    40.00 Ry     beta= 0.60
     Davidson diagonalization with overlap
     ethr =  4.06E-10,  avg # of iterations =  2.9

     total cpu time spent up to now is   112019.7 secs

     total energy              =    -942.08025444 Ry
     Harris-Foulkes estimate   =    -942.08025452 Ry
     estimated scf accuracy    <       0.00000061 Ry

     iteration #  8     ecut=    40.00 Ry     beta= 0.60
     Davidson diagonalization with overlap
     ethr =  4.06E-10,  avg # of iterations =  1.8

     total cpu time spent up to now is   112111.2 secs

     total energy              =    -942.08025445 Ry
     Harris-Foulkes estimate   =    -942.08025447 Ry
     estimated scf accuracy    <       0.00000014 Ry

     iteration #  9     ecut=    40.00 Ry     beta= 0.60
     Davidson diagonalization with overlap
     ethr =  1.33E-10,  avg # of iterations =  3.2

     total cpu time spent up to now is   112223.5 secs

     total energy              =    -942.08025446 Ry
     Harris-Foulkes estimate   =    -942.08025447 Ry
     estimated scf accuracy    <       0.00000001 Ry

     iteration # 10     ecut=    40.00 Ry     beta= 0.60
     Davidson diagonalization with overlap
     ethr =  1.31E-11,  avg # of iterations =  3.3

     total cpu time spent up to now is   112343.6 secs

     total energy              =    -942.08025446 Ry
     Harris-Foulkes estimate   =    -942.08025447 Ry
     estimated scf accuracy    <       0.00000001 Ry

     iteration # 11     ecut=    40.00 Ry     beta= 0.60
     Davidson diagonalization with overlap
     ethr =  1.14E-11,  avg # of iterations =  2.9

     total cpu time spent up to now is   112445.5 secs

     total energy              =    -942.08025447 Ry
     Harris-Foulkes estimate   =    -942.08025447 Ry
     estimated scf accuracy    <          1.2E-09 Ry

     iteration # 12     ecut=    40.00 Ry     beta= 0.60
     Davidson diagonalization with overlap
     ethr =  1.13E-12,  avg # of iterations =  3.8

     total cpu time spent up to now is   112575.3 secs

     total energy              =    -942.08025447 Ry
     Harris-Foulkes estimate   =    -942.08025447 Ry
     estimated scf accuracy    <          9.8E-10 Ry

     iteration # 13     ecut=    40.00 Ry     beta= 0.60
     Davidson diagonalization with overlap
     ethr =  9.54E-13,  avg # of iterations =  2.2

     total cpu time spent up to now is   112675.9 secs

     total energy              =    -942.08025447 Ry
     Harris-Foulkes estimate   =    -942.08025447 Ry
     estimated scf accuracy    <          1.9E-10 Ry

     iteration # 14     ecut=    40.00 Ry     beta= 0.60
     Davidson diagonalization with overlap
     ethr =  1.88E-13,  avg # of iterations =  2.9

     total cpu time spent up to now is   112788.0 secs

     total energy              =    -942.08025447 Ry
     Harris-Foulkes estimate   =    -942.08025447 Ry
     estimated scf accuracy    <          9.6E-11 Ry

     iteration # 15     ecut=    40.00 Ry     beta= 0.60
     Davidson diagonalization with overlap
     ethr =  1.00E-13,  avg # of iterations =  2.4

     total cpu time spent up to now is   112885.8 secs

     End of self-consistent calculation

     Number of k-points >= 100: set verbosity='high' to print the bands.

     the Fermi energy is    17.1703 ev

!    total energy              =    -942.08025447 Ry
     Harris-Foulkes estimate   =    -942.08025447 Ry
     estimated scf accuracy    <          4.8E-12 Ry

     The total energy is the sum of the following terms:

     one-electron contribution =    -164.56350831 Ry
     hartree contribution      =     133.05430604 Ry
     xc contribution           =    -143.55766592 Ry
     ewald contribution        =    -767.01442501 Ry
     smearing contrib. (-TS)   =       0.00103873 Ry

     convergence has been achieved in  15 iterations

     Forces acting on atoms (cartesian axes, Ry/au):

     atom    1 type  2   force =    -0.00061096    0.00016048    0.00000001
     atom    2 type  1   force =     0.00051845   -0.00045165    0.00009164
     atom    3 type  1   force =    -0.00059710    0.00078917    0.00000043
     atom    4 type  1   force =     0.00029939   -0.00039884    0.00000054
     atom    5 type  1   force =    -0.00034514    0.00021350    0.00000016
     atom    6 type  1   force =     0.00029911   -0.00039877   -0.00000115
     atom    7 type  1   force =    -0.00008205    0.00053787    0.00000016
     atom    8 type  1   force =     0.00051827   -0.00045177   -0.00009179

     Total force =     0.001816     Total SCF correction =     0.000003


     Computing stress (Cartesian axis) and pressure

          total   stress  (Ry/bohr**3)                   (kbar)     P=   -0.05
   0.00000462  -0.00000160   0.00000000          0.68     -0.24      0.00
  -0.00000160  -0.00000285  -0.00000000         -0.24     -0.42     -0.00
   0.00000000  -0.00000000  -0.00000273          0.00     -0.00     -0.40


     number of scf cycles    =  49
     number of bfgs steps    =  40

     enthalpy old            =    -942.0802495793 Ry
     enthalpy new            =    -942.0802544653 Ry

     CASE: enthalpy_new < enthalpy_old

     new trust radius        =       0.0070947404 bohr
     new conv_thr            =            7.9E-11 Ry

     new unit-cell volume =    988.89842 a.u.^3 (   146.53963 Ang^3 )
     density =      7.91191 g/cm^3

CELL_PARAMETERS (alat=  1.88972599)
   4.822623261   2.777600600  -4.970146009
   6.150308064   0.485445896   0.000000567
   1.327683062  -2.292157910  -4.970146222

ATOMIC_POSITIONS (angstrom)
Ti       6.263698636   0.553857145  -4.970146588
Nb       4.533354466   1.078060953  -2.484506332
Nb       9.382563613   0.834356184  -4.970148242
Nb       7.593198733   1.313009185  -2.538137191
Nb       9.391614987   0.817454668  -9.940291365
Nb       7.593199838   1.313008205  -7.402152452
Nb      12.491949020   1.084656221  -9.940290298
Nb      10.683664025   1.563507243  -7.455785331


     NEW-OLD atomic charge density approx. for the potential
     extrapolated charge  103.00620, renormalised to  103.00000

     total cpu time spent up to now is   112928.9 secs

     Self-consistent Calculation

     iteration #  1     ecut=    40.00 Ry     beta= 0.60
     Davidson diagonalization with overlap
     ethr =  1.00E-06,  avg # of iterations =  4.0

     Threshold (ethr) on eigenvalues was too large:
     Diagonalizing with lowered threshold

     Davidson diagonalization with overlap
     ethr =  4.50E-08,  avg # of iterations =  2.0

     total cpu time spent up to now is   113194.1 secs

     total energy              =    -942.08023560 Ry
     Harris-Foulkes estimate   =    -942.07329367 Ry
     estimated scf accuracy    <       0.00004699 Ry

     iteration #  2     ecut=    40.00 Ry     beta= 0.60
     Davidson diagonalization with overlap
     ethr =  4.56E-08,  avg # of iterations =  4.0

     total cpu time spent up to now is   113338.2 secs

     total energy              =    -942.08018916 Ry
     Harris-Foulkes estimate   =    -942.08032975 Ry
     estimated scf accuracy    <       0.00071843 Ry

     iteration #  3     ecut=    40.00 Ry     beta= 0.60
     Davidson diagonalization with overlap
     ethr =  4.56E-08,  avg # of iterations =  4.1

     total cpu time spent up to now is   113471.9 secs

     total energy              =    -942.08025677 Ry
     Harris-Foulkes estimate   =    -942.08026609 Ry
     estimated scf accuracy    <       0.00003448 Ry

     iteration #  4     ecut=    40.00 Ry     beta= 0.60
     Davidson diagonalization with overlap
     ethr =  3.35E-08,  avg # of iterations =  3.7

     total cpu time spent up to now is   113589.3 secs

     total energy              =    -942.08025850 Ry
     Harris-Foulkes estimate   =    -942.08026597 Ry
     estimated scf accuracy    <       0.00004787 Ry

     iteration #  5     ecut=    40.00 Ry     beta= 0.60
     Davidson diagonalization with overlap
     ethr =  3.35E-08,  avg # of iterations =  2.0

     total cpu time spent up to now is   113683.9 secs

     total energy              =    -942.08026160 Ry
     Harris-Foulkes estimate   =    -942.08026178 Ry
     estimated scf accuracy    <       0.00000079 Ry

     iteration #  6     ecut=    40.00 Ry     beta= 0.60
     Davidson diagonalization with overlap
     ethr =  7.66E-10,  avg # of iterations =  4.8

     total cpu time spent up to now is   113832.4 secs

     total energy              =    -942.08026229 Ry
     Harris-Foulkes estimate   =    -942.08026255 Ry
     estimated scf accuracy    <       0.00000213 Ry

     iteration #  7     ecut=    40.00 Ry     beta= 0.60
     Davidson diagonalization with overlap
     ethr =  7.66E-10,  avg # of iterations =  3.0

     total cpu time spent up to now is   113943.2 secs

     total energy              =    -942.08026229 Ry
     Harris-Foulkes estimate   =    -942.08026246 Ry
     estimated scf accuracy    <       0.00000130 Ry

     iteration #  8     ecut=    40.00 Ry     beta= 0.60
     Davidson diagonalization with overlap
     ethr =  7.66E-10,  avg # of iterations =  2.2

     total cpu time spent up to now is   114037.8 secs

     total energy              =    -942.08026233 Ry
     Harris-Foulkes estimate   =    -942.08026236 Ry
     estimated scf accuracy    <       0.00000028 Ry

     iteration #  9     ecut=    40.00 Ry     beta= 0.60
     Davidson diagonalization with overlap
     ethr =  2.68E-10,  avg # of iterations =  3.2

     total cpu time spent up to now is   114147.3 secs

     total energy              =    -942.08026235 Ry
     Harris-Foulkes estimate   =    -942.08026236 Ry
     estimated scf accuracy    <       0.00000002 Ry

     iteration # 10     ecut=    40.00 Ry     beta= 0.60
     Davidson diagonalization with overlap
     ethr =  2.21E-11,  avg # of iterations =  3.5

     total cpu time spent up to now is   114269.4 secs

     total energy              =    -942.08026235 Ry
     Harris-Foulkes estimate   =    -942.08026236 Ry
     estimated scf accuracy    <       0.00000002 Ry

     iteration # 11     ecut=    40.00 Ry     beta= 0.60
     Davidson diagonalization with overlap
     ethr =  2.21E-11,  avg # of iterations =  3.0

     total cpu time spent up to now is   114371.5 secs

     total energy              =    -942.08026235 Ry
     Harris-Foulkes estimate   =    -942.08026235 Ry
     estimated scf accuracy    <          2.3E-09 Ry

     iteration # 12     ecut=    40.00 Ry     beta= 0.60
     Davidson diagonalization with overlap
     ethr =  2.27E-12,  avg # of iterations =  3.6

     total cpu time spent up to now is   114498.5 secs

     total energy              =    -942.08026235 Ry
     Harris-Foulkes estimate   =    -942.08026235 Ry
     estimated scf accuracy    <          2.4E-09 Ry

     iteration # 13     ecut=    40.00 Ry     beta= 0.60
     Davidson diagonalization with overlap
     ethr =  2.27E-12,  avg # of iterations =  2.2

     total cpu time spent up to now is   114597.1 secs

     total energy              =    -942.08026235 Ry
     Harris-Foulkes estimate   =    -942.08026235 Ry
     estimated scf accuracy    <          3.1E-10 Ry

     iteration # 14     ecut=    40.00 Ry     beta= 0.60
     Davidson diagonalization with overlap
     ethr =  3.02E-13,  avg # of iterations =  3.1

     total cpu time spent up to now is   114712.8 secs

     total energy              =    -942.08026235 Ry
     Harris-Foulkes estimate   =    -942.08026235 Ry
     estimated scf accuracy    <          1.8E-10 Ry

     iteration # 15     ecut=    40.00 Ry     beta= 0.60
     Davidson diagonalization with overlap
     ethr =  1.72E-13,  avg # of iterations =  2.2

     total cpu time spent up to now is   114811.1 secs

     End of self-consistent calculation

     Number of k-points >= 100: set verbosity='high' to print the bands.

     the Fermi energy is    17.1691 ev

!    total energy              =    -942.08026235 Ry
     Harris-Foulkes estimate   =    -942.08026235 Ry
     estimated scf accuracy    <          1.1E-11 Ry

     The total energy is the sum of the following terms:

     one-electron contribution =    -164.58476650 Ry
     hartree contribution      =     133.05974563 Ry
     xc contribution           =    -143.55722493 Ry
     ewald contribution        =    -766.99905689 Ry
     smearing contrib. (-TS)   =       0.00104034 Ry

     convergence has been achieved in  15 iterations

     Forces acting on atoms (cartesian axes, Ry/au):

     atom    1 type  2   force =    -0.00129218    0.00002648    0.00000019
     atom    2 type  1   force =     0.00091029   -0.00060108    0.00013587
     atom    3 type  1   force =    -0.00064570    0.00105971    0.00000080
     atom    4 type  1   force =     0.00032150   -0.00067392   -0.00007507
     atom    5 type  1   force =    -0.00049664    0.00060439    0.00000039
     atom    6 type  1   force =     0.00032094   -0.00067380    0.00007391
     atom    7 type  1   force =    -0.00002825    0.00085952    0.00000028
     atom    8 type  1   force =     0.00091004   -0.00060130   -0.00013637

     Total force =     0.002847     Total SCF correction =     0.000005


     Computing stress (Cartesian axis) and pressure

          total   stress  (Ry/bohr**3)                   (kbar)     P=   -0.18
   0.00000569  -0.00000239  -0.00000000          0.84     -0.35     -0.00
  -0.00000239  -0.00000552  -0.00000000         -0.35     -0.81     -0.00
  -0.00000000  -0.00000000  -0.00000384         -0.00     -0.00     -0.56


     number of scf cycles    =  50
     number of bfgs steps    =  41

     enthalpy old            =    -942.0802544653 Ry
     enthalpy new            =    -942.0802623539 Ry

     CASE: enthalpy_new < enthalpy_old


     WARNING: bfgs curvature condition failed, Theta= 0.391
     new trust radius        =       0.0106391680 bohr
     new conv_thr            =            1.0E-10 Ry

     new unit-cell volume =    988.98933 a.u.^3 (   146.55310 Ang^3 )
     density =      7.91118 g/cm^3

CELL_PARAMETERS (alat=  1.88972599)
   4.823381257   2.774745401  -4.971287156
   6.152651731   0.483499205   0.000001255
   1.329267284  -2.291250829  -4.971288332

ATOMIC_POSITIONS (angstrom)
Ti       6.270142254   0.555712646  -4.971289051
Nb       4.534422318   1.073810446  -2.484800018
Nb       9.385179607   0.832997313  -4.971290467
Nb       7.596575109   1.308975679  -2.536888635
Nb       9.393894978   0.816099092  -9.942573947
Nb       7.596577190   1.308974364  -7.405681613
Nb      12.493816878   1.080750397  -9.942572192
Nb      10.687076040   1.557309838  -7.457773623


     NEW-OLD atomic charge density approx. for the potential
     extrapolated charge  103.00937, renormalised to  103.00000
 
     init_run     :     58.18s CPU     59.13s WALL (       1 calls)
     electrons    : 110808.77s CPU 112427.78s WALL (      50 calls)
     update_pot   :    100.69s CPU    101.09s WALL (      50 calls)
     forces       :    575.83s CPU    584.63s WALL (      50 calls)
     stress       :   1629.26s CPU   1651.43s WALL (      50 calls)

     Called by init_run:
     wfcinit      :     56.39s CPU     57.17s WALL (       1 calls)
     potinit      :      0.57s CPU      0.59s WALL (       1 calls)
     hinit0       :      0.98s CPU      1.01s WALL (       1 calls)

     Called by electrons:
     c_bands      :  97201.42s CPU  98449.81s WALL (     824 calls)
     sum_band     :  13282.71s CPU  13516.40s WALL (     824 calls)
     v_of_rho     :     67.39s CPU     67.79s WALL (     855 calls)
     newd         :    262.48s CPU    374.51s WALL (     855 calls)
     mix_rho      :      8.81s CPU      8.90s WALL (     824 calls)

     Called by c_bands:
     init_us_2    :   1170.65s CPU   1177.67s WALL (  881496 calls)
     cegterg      :  90633.51s CPU  91407.82s WALL (  415296 calls)

     Called by sum_band:
     sum_band:bec :     39.57s CPU     39.98s WALL (  415296 calls)
     addusdens    :    293.64s CPU    390.01s WALL (     824 calls)

     Called by *egterg:
     h_psi        :  57805.00s CPU  58485.57s WALL ( 1842313 calls)
     s_psi        :   3558.94s CPU   3566.48s WALL ( 1842313 calls)
     g_psi        :    408.08s CPU    398.79s WALL ( 1426513 calls)
     cdiaghg      :  15089.75s CPU  15111.24s WALL ( 1807033 calls)

     Called by h_psi:
     h_psi:pot    :  57524.82s CPU  58193.22s WALL ( 1842313 calls)
     h_psi:calbec :   3604.06s CPU   3619.07s WALL ( 1842313 calls)
     vloc_psi     :  50306.90s CPU  50948.94s WALL ( 1842313 calls)
     add_vuspsi   :   3603.40s CPU   3612.67s WALL ( 1842313 calls)

     General routines
     calbec       :   5230.79s CPU   5251.87s WALL ( 2383609 calls)
     fft          :     63.06s CPU     64.40s WALL (   12386 calls)
     ffts         :      1.33s CPU      1.32s WALL (    1679 calls)
     fftw         :  53218.69s CPU  53989.01s WALL (******** calls)
     interpolate  :      3.93s CPU      3.95s WALL (     855 calls)
     davcio       :      0.00s CPU      0.30s WALL (     504 calls)
 
     Parallel routines
     fft_scatt_xy :   8768.24s CPU   8819.29s WALL (******** calls)
     fft_scatt_yz :  10343.69s CPU  10416.15s WALL (******** calls)
 
     PWSCF        :     1d    7h26m CPU        1d    7h54m WALL

 
   This run was terminated on:  20:30:13   9Feb2020            

=------------------------------------------------------------------------------=
   JOB DONE.
=------------------------------------------------------------------------------=
<<<<<<< HEAD
=======
=======
>>>>>>> 916d4709b2147fd693e56315b3824d3945851775
>>>>>>> 5e9e5684d371b66e74b3227e06fdcc8ee35ef154
