
     Program PWSCF v.6.3MaX starts on 23Feb2020 at 16:14:19 

     This program is part of the open-source Quantum ESPRESSO suite
     for quantum simulation of materials; please cite
         "P. Giannozzi et al., J. Phys.:Condens. Matter 21 395502 (2009);
         "P. Giannozzi et al., J. Phys.:Condens. Matter 29 465901 (2017);
          URL http://www.quantum-espresso.org", 
     in publications or presentations arising from this work. More details at
     http://www.quantum-espresso.org/quote

     Parallel version (MPI), running on     4 processors

     MPI processes distributed on     1 nodes
     R & G space division:  proc/nbgrp/npool/nimage =       4
     Waiting for input...
     Reading input from standard input

     Current dimensions of program PWSCF are:
     Max number of different atomic species (ntypx) = 10
     Max number of k-points (npk) =  40000
     Max angular momentum in pseudopotentials (lmaxx) =  3
     Message from routine iosys:
     minimal I/O required, wf_collect reset to FALSE

     Subspace diagonalization in iterative solution of the eigenvalue problem:
     a serial algorithm will be used

 
     Parallelization info
     --------------------
     sticks:   dense  smooth     PW     G-vecs:    dense   smooth      PW
     Min        1073     428    137                27716     7007    1267
     Max        1074     429    138                27717     7008    1268
     Sum        4295    1715    549               110865    28029    5069
 


     bravais-lattice index     =            0
     lattice parameter (alat)  =       1.8897  a.u.
     unit-cell volume          =     586.6735 (a.u.)^3
     number of atoms/cell      =            4
     number of atomic types    =            2
     number of electrons       =        51.00
     number of Kohn-Sham states=           31
     kinetic-energy cutoff     =      50.0000  Ry
     charge density cutoff     =     500.0000  Ry
     convergence threshold     =      1.0E-10
     mixing beta               =       0.6000
     number of iterations used =            8  plain     mixing
     Exchange-correlation      = SLA PW PBE PBE ( 1  4  3  4 0 0)
     nstep                     =           50


     celldm(1)=   1.889726  celldm(2)=   0.000000  celldm(3)=   0.000000
     celldm(4)=   0.000000  celldm(5)=   0.000000  celldm(6)=   0.000000

     crystal axes: (cart. coord. in units of alat)
               a(1) = (   1.758031   1.758031   5.274095 )  
               a(2) = (  -1.758031   5.274095   1.758031 )  
               a(3) = (  -1.758031  -5.274095  -1.758031 )  

     reciprocal axes: (cart. coord. in units 2 pi/alat)
               b(1) = (  0.000000 -0.071102  0.213307 )  
               b(2) = ( -0.284409  0.071102  0.071102 )  
               b(3) = ( -0.284409 -0.142205  0.142205 )  


     PseudoPot. # 1 for Nb read from file:
     ./Nb.pbe-nsp-van.UPF
     MD5 check sum: 0a22fc7fb0ba19a08ca5db297a5d2854
     Pseudo is Ultrasoft + core correction, Zval = 13.0
     Generated by new atomic code, or converted to UPF format
     Using radial grid of  887 points,  6 beta functions with: 
                l(1) =   0
                l(2) =   0
                l(3) =   1
                l(4) =   1
                l(5) =   2
                l(6) =   2
     Q(r) pseudized with  6 coefficients,  rinner =    1.000   1.000   1.000
                                                       1.000   1.000

     PseudoPot. # 2 for Ti read from file:
     ./Ti.pbe-sp-van_ak.UPF
     MD5 check sum: f98fea3e8887528921fefa5636a534ca
     Pseudo is Ultrasoft, Zval = 12.0
     Generated by new atomic code, or converted to UPF format
     Using radial grid of  851 points,  6 beta functions with: 
                l(1) =   0
                l(2) =   0
                l(3) =   1
                l(4) =   1
                l(5) =   2
                l(6) =   2
     Q(r) pseudized with  8 coefficients,  rinner =    1.000   1.000   1.000
                                                       1.000   1.000

     atomic species   valence    mass     pseudopotential
        Nb            13.00    92.90638     Nb( 1.00)
        Ti            12.00    47.86700     Ti( 1.00)

      8 Sym. Ops., with inversion, found ( 4 have fractional translation)



   Cartesian axes

     site n.     atom                  positions (alat units)
         1           Ti  tau(   1) = (  -1.7580316   1.7580316   1.7580316  )
         2           Nb  tau(   2) = (  -1.7580316  -1.7580316   1.7580316  )
         3           Nb  tau(   3) = (  -1.7580316   1.7580316   5.2740949  )
         4           Nb  tau(   4) = (   0.0000000   0.0000000   3.5160633  )

     number of k points=   343  Marzari-Vanderbilt smearing, width (Ry)=  0.0200

     Number of k-points >= 100: set verbosity='high' to print them.

     Dense  grid:   110865 G-vectors     FFT dimensions: (  80,  80,  80)

     Smooth grid:    28029 G-vectors     FFT dimensions: (  50,  50,  50)

     Estimated max dynamical RAM per process >     251.52 MB

     Estimated total dynamical RAM >    1006.08 MB

     Initial potential from superposition of free atoms

     starting charge   49.99176, renormalised to   51.00000
     Starting wfcs are   49 randomized atomic wfcs

     total cpu time spent up to now is       19.3 secs

     Self-consistent Calculation

     iteration #  1     ecut=    50.00 Ry     beta= 0.60
     Davidson diagonalization with overlap
     ethr =  1.00E-02,  avg # of iterations =  2.0

     total cpu time spent up to now is       54.4 secs

     total energy              =    -452.50679300 Ry
     Harris-Foulkes estimate   =    -472.25429079 Ry
     estimated scf accuracy    <      24.76510820 Ry

     iteration #  2     ecut=    50.00 Ry     beta= 0.60
     Davidson diagonalization with overlap
     ethr =  1.00E-02,  avg # of iterations =  6.3

     total cpu time spent up to now is      115.4 secs

     total energy              =    -459.07284205 Ry
     Harris-Foulkes estimate   =    -497.54753858 Ry
     estimated scf accuracy    <     119.59531868 Ry

     iteration #  3     ecut=    50.00 Ry     beta= 0.60
     Davidson diagonalization with overlap
     ethr =  1.00E-02,  avg # of iterations =  5.0

     total cpu time spent up to now is      167.1 secs

     total energy              =    -470.89418491 Ry
     Harris-Foulkes estimate   =    -474.98678839 Ry
     estimated scf accuracy    <      23.82598574 Ry

     iteration #  4     ecut=    50.00 Ry     beta= 0.60
     Davidson diagonalization with overlap
     ethr =  1.00E-02,  avg # of iterations =  2.2

     total cpu time spent up to now is      199.8 secs

     total energy              =    -471.89564682 Ry
     Harris-Foulkes estimate   =    -472.04755284 Ry
     estimated scf accuracy    <       5.53922474 Ry

     iteration #  5     ecut=    50.00 Ry     beta= 0.60
     Davidson diagonalization with overlap
     ethr =  1.00E-02,  avg # of iterations =  1.0

     total cpu time spent up to now is      229.4 secs

     total energy              =    -470.67103235 Ry
     Harris-Foulkes estimate   =    -471.91561283 Ry
     estimated scf accuracy    <       5.23770104 Ry

     iteration #  6     ecut=    50.00 Ry     beta= 0.60
     Davidson diagonalization with overlap
     ethr =  1.00E-02,  avg # of iterations =  1.1

     total cpu time spent up to now is      259.0 secs

     total energy              =    -470.52943552 Ry
     Harris-Foulkes estimate   =    -470.77816244 Ry
     estimated scf accuracy    <       2.68122797 Ry

     iteration #  7     ecut=    50.00 Ry     beta= 0.60
     Davidson diagonalization with overlap
     ethr =  5.26E-03,  avg # of iterations =  1.2

     total cpu time spent up to now is      288.9 secs

     total energy              =    -469.98655636 Ry
     Harris-Foulkes estimate   =    -470.56871194 Ry
     estimated scf accuracy    <       1.99893757 Ry

     iteration #  8     ecut=    50.00 Ry     beta= 0.60
     Davidson diagonalization with overlap
     ethr =  3.92E-03,  avg # of iterations =  5.4

     total cpu time spent up to now is      333.1 secs

     total energy              =    -470.35672654 Ry
     Harris-Foulkes estimate   =    -470.46021487 Ry
     estimated scf accuracy    <       2.17854752 Ry

     iteration #  9     ecut=    50.00 Ry     beta= 0.60
     Davidson diagonalization with overlap
     ethr =  3.92E-03,  avg # of iterations =  1.0

     total cpu time spent up to now is      362.7 secs

     total energy              =    -470.40907221 Ry
     Harris-Foulkes estimate   =    -470.38117310 Ry
     estimated scf accuracy    <       0.64730657 Ry

     iteration # 10     ecut=    50.00 Ry     beta= 0.60
     Davidson diagonalization with overlap
     ethr =  1.27E-03,  avg # of iterations =  1.2

     total cpu time spent up to now is      392.5 secs

     total energy              =    -470.27830869 Ry
     Harris-Foulkes estimate   =    -470.42449274 Ry
     estimated scf accuracy    <       1.61065912 Ry

     iteration # 11     ecut=    50.00 Ry     beta= 0.60
     Davidson diagonalization with overlap
     ethr =  1.27E-03,  avg # of iterations =  1.0

     total cpu time spent up to now is      422.1 secs

     total energy              =    -470.33910103 Ry
     Harris-Foulkes estimate   =    -470.34435983 Ry
     estimated scf accuracy    <       0.03024210 Ry

     iteration # 12     ecut=    50.00 Ry     beta= 0.60
     Davidson diagonalization with overlap
     ethr =  5.93E-05,  avg # of iterations =  6.5

     total cpu time spent up to now is      472.8 secs

     total energy              =    -470.35784596 Ry
     Harris-Foulkes estimate   =    -470.35827739 Ry
     estimated scf accuracy    <       0.04317510 Ry

     iteration # 13     ecut=    50.00 Ry     beta= 0.60
     Davidson diagonalization with overlap
     ethr =  5.93E-05,  avg # of iterations =  1.0

     total cpu time spent up to now is      502.4 secs

     total energy              =    -470.34730995 Ry
     Harris-Foulkes estimate   =    -470.35794737 Ry
     estimated scf accuracy    <       0.04534986 Ry

     iteration # 14     ecut=    50.00 Ry     beta= 0.60
     Davidson diagonalization with overlap
     ethr =  5.93E-05,  avg # of iterations =  5.4

     total cpu time spent up to now is      544.1 secs

     total energy              =    -470.35472054 Ry
     Harris-Foulkes estimate   =    -470.35686913 Ry
     estimated scf accuracy    <       0.03958988 Ry

     iteration # 15     ecut=    50.00 Ry     beta= 0.60
     Davidson diagonalization with overlap
     ethr =  5.93E-05,  avg # of iterations =  1.0

     total cpu time spent up to now is      573.8 secs

     total energy              =    -470.35273290 Ry
     Harris-Foulkes estimate   =    -470.35512755 Ry
     estimated scf accuracy    <       0.01614317 Ry

     iteration # 16     ecut=    50.00 Ry     beta= 0.60
     Davidson diagonalization with overlap
     ethr =  3.17E-05,  avg # of iterations =  4.2

     total cpu time spent up to now is      610.2 secs

     total energy              =    -470.35434869 Ry
     Harris-Foulkes estimate   =    -470.35480782 Ry
     estimated scf accuracy    <       0.00293084 Ry

     iteration # 17     ecut=    50.00 Ry     beta= 0.60
     Davidson diagonalization with overlap
     ethr =  5.75E-06,  avg # of iterations =  3.9

     total cpu time spent up to now is      644.9 secs

     total energy              =    -470.35456973 Ry
     Harris-Foulkes estimate   =    -470.35457692 Ry
     estimated scf accuracy    <       0.00004887 Ry

     iteration # 18     ecut=    50.00 Ry     beta= 0.60
     Davidson diagonalization with overlap
     ethr =  9.58E-08,  avg # of iterations =  5.8

     total cpu time spent up to now is      691.7 secs

     total energy              =    -470.35460353 Ry
     Harris-Foulkes estimate   =    -470.35460709 Ry
     estimated scf accuracy    <       0.00004447 Ry

     iteration # 19     ecut=    50.00 Ry     beta= 0.60
     Davidson diagonalization with overlap
     ethr =  8.72E-08,  avg # of iterations =  1.0

     total cpu time spent up to now is      721.3 secs

     total energy              =    -470.35460267 Ry
     Harris-Foulkes estimate   =    -470.35460439 Ry
     estimated scf accuracy    <       0.00001220 Ry

     iteration # 20     ecut=    50.00 Ry     beta= 0.60
     Davidson diagonalization with overlap
     ethr =  2.39E-08,  avg # of iterations =  3.5

     total cpu time spent up to now is      756.5 secs

     total energy              =    -470.35460399 Ry
     Harris-Foulkes estimate   =    -470.35460437 Ry
     estimated scf accuracy    <       0.00000217 Ry

     iteration # 21     ecut=    50.00 Ry     beta= 0.60
     Davidson diagonalization with overlap
     ethr =  4.26E-09,  avg # of iterations =  3.4

     total cpu time spent up to now is      790.3 secs

     total energy              =    -470.35460424 Ry
     Harris-Foulkes estimate   =    -470.35460425 Ry
     estimated scf accuracy    <       0.00000007 Ry

     iteration # 22     ecut=    50.00 Ry     beta= 0.60
     Davidson diagonalization with overlap
     ethr =  1.34E-10,  avg # of iterations =  4.4

     total cpu time spent up to now is      830.6 secs

     total energy              =    -470.35460426 Ry
     Harris-Foulkes estimate   =    -470.35460426 Ry
     estimated scf accuracy    <       0.00000002 Ry

     iteration # 23     ecut=    50.00 Ry     beta= 0.60
     Davidson diagonalization with overlap
     ethr =  3.53E-11,  avg # of iterations =  1.6

     total cpu time spent up to now is      860.9 secs

     total energy              =    -470.35460426 Ry
     Harris-Foulkes estimate   =    -470.35460426 Ry
     estimated scf accuracy    <          5.3E-09 Ry

     iteration # 24     ecut=    50.00 Ry     beta= 0.60
     Davidson diagonalization with overlap
     ethr =  1.03E-11,  avg # of iterations =  3.4

     total cpu time spent up to now is      895.3 secs

     End of self-consistent calculation

     Number of k-points >= 100: set verbosity='high' to print the bands.

     the Fermi energy is    13.2767 ev

!    total energy              =    -470.35460426 Ry
     Harris-Foulkes estimate   =    -470.35460426 Ry
     estimated scf accuracy    <          2.3E-11 Ry

     The total energy is the sum of the following terms:

     one-electron contribution =    -124.21098681 Ry
     hartree contribution      =      79.31949535 Ry
     xc contribution           =     -69.12127455 Ry
     ewald contribution        =    -356.34186204 Ry
     smearing contrib. (-TS)   =       0.00002379 Ry

     convergence has been achieved in  24 iterations

     Forces acting on atoms (cartesian axes, Ry/au):

     atom    1 type  2   force =     0.00000000    0.00000000    0.00000000
     atom    2 type  1   force =    -0.00000000    0.01411930    0.01411930
     atom    3 type  1   force =    -0.00000000   -0.01411930   -0.01411930
     atom    4 type  1   force =     0.00000000    0.00000000   -0.00000000

     Total force =     0.028239     Total SCF correction =     0.000002


     Computing stress (Cartesian axis) and pressure

          total   stress  (Ry/bohr**3)                   (kbar)     P= -212.37
  -0.00143565   0.00000000  -0.00000000       -211.19      0.00     -0.00
   0.00000000  -0.00144771  -0.00002882          0.00   -212.97     -4.24
  -0.00000000  -0.00002882  -0.00144771         -0.00     -4.24   -212.97


     BFGS Geometry Optimization

     number of scf cycles    =   1
     number of bfgs steps    =   0

     enthalpy new            =    -470.3546042570 Ry

     new trust radius        =       0.1753625649 bohr
     new conv_thr            =            1.0E-10 Ry

     new unit-cell volume =    525.41507 a.u.^3 (    77.85848 Ang^3 )
     density =      6.96532 g/cm^3

CELL_PARAMETERS (alat=  1.88972599)
   1.694933531   1.690603226   5.081943347
  -1.694933531   5.081943347   1.690603226
  -1.694933531  -5.081943347  -1.690603226

ATOMIC_POSITIONS (angstrom)
Ti      -1.694933531   1.693136643   1.693136643
Nb      -1.694933531  -1.688474251   1.702865870
Nb      -1.694933531   1.683407416   5.074747538
Nb      -0.000000000  -0.002533418   3.388806704


     NEW-OLD atomic charge density approx. for the potential
     extrapolated charge   45.17144, renormalised to   51.00000

     total cpu time spent up to now is      906.5 secs

     Self-consistent Calculation

     iteration #  1     ecut=    50.00 Ry     beta= 0.60
     Davidson diagonalization with overlap
     c_bands:  1 eigenvalues not converged
     c_bands:  1 eigenvalues not converged
     c_bands:  1 eigenvalues not converged
     c_bands:  1 eigenvalues not converged
     c_bands:  1 eigenvalues not converged
     c_bands:  1 eigenvalues not converged
     c_bands:  1 eigenvalues not converged
     c_bands:  1 eigenvalues not converged
     c_bands:  1 eigenvalues not converged
     c_bands:  1 eigenvalues not converged
     c_bands:  1 eigenvalues not converged
     c_bands:  1 eigenvalues not converged
     c_bands:  1 eigenvalues not converged
     c_bands:  1 eigenvalues not converged
     c_bands:  1 eigenvalues not converged
     c_bands:  2 eigenvalues not converged
     c_bands:  1 eigenvalues not converged
     c_bands:  1 eigenvalues not converged
     c_bands:  1 eigenvalues not converged
     c_bands:  1 eigenvalues not converged
     c_bands:  1 eigenvalues not converged
     c_bands:  1 eigenvalues not converged
     c_bands:  2 eigenvalues not converged
     c_bands:  1 eigenvalues not converged
     c_bands:  1 eigenvalues not converged
     c_bands:  1 eigenvalues not converged
     c_bands:  1 eigenvalues not converged
     c_bands:  1 eigenvalues not converged
     c_bands:  1 eigenvalues not converged
     c_bands:  1 eigenvalues not converged
     c_bands:  1 eigenvalues not converged
     c_bands:  1 eigenvalues not converged
     c_bands:  1 eigenvalues not converged
     c_bands:  1 eigenvalues not converged
     c_bands:  1 eigenvalues not converged
     c_bands:  1 eigenvalues not converged
     c_bands:  1 eigenvalues not converged
     c_bands:  1 eigenvalues not converged
     c_bands:  1 eigenvalues not converged
     c_bands:  1 eigenvalues not converged
     c_bands:  1 eigenvalues not converged
     c_bands:  1 eigenvalues not converged
     c_bands:  1 eigenvalues not converged
     c_bands:  1 eigenvalues not converged
     c_bands:  1 eigenvalues not converged
     c_bands:  1 eigenvalues not converged
     c_bands:  1 eigenvalues not converged
     c_bands:  1 eigenvalues not converged
     c_bands:  1 eigenvalues not converged
     c_bands:  1 eigenvalues not converged
     c_bands:  1 eigenvalues not converged
     c_bands:  1 eigenvalues not converged
     ethr =  1.00E-06,  avg # of iterations = 14.9

     total cpu time spent up to now is     1015.9 secs

     total energy              =    -449.56780195 Ry
     Harris-Foulkes estimate   =    -479.93632706 Ry
     estimated scf accuracy    <      23.35939781 Ry

     iteration #  2     ecut=    50.00 Ry     beta= 0.60
     Davidson diagonalization with overlap
     ethr =  1.00E-02,  avg # of iterations =  6.6

     total cpu time spent up to now is     1075.8 secs

     total energy              =    -463.42687395 Ry
     Harris-Foulkes estimate   =    -497.26887179 Ry
     estimated scf accuracy    <     102.64192508 Ry

     iteration #  3     ecut=    50.00 Ry     beta= 0.60
     Davidson diagonalization with overlap
     ethr =  1.00E-02,  avg # of iterations =  5.0

     total cpu time spent up to now is     1125.6 secs

     total energy              =    -471.95649596 Ry
     Harris-Foulkes estimate   =    -473.75335720 Ry
     estimated scf accuracy    <       8.78028766 Ry

     iteration #  4     ecut=    50.00 Ry     beta= 0.60
     Davidson diagonalization with overlap
     ethr =  1.00E-02,  avg # of iterations =  2.1

     total cpu time spent up to now is     1156.9 secs

     total energy              =    -471.48800500 Ry
     Harris-Foulkes estimate   =    -472.64083345 Ry
     estimated scf accuracy    <       8.51385838 Ry

     iteration #  5     ecut=    50.00 Ry     beta= 0.60
     Davidson diagonalization with overlap
     ethr =  1.00E-02,  avg # of iterations =  1.0

     total cpu time spent up to now is     1186.8 secs

     total energy              =    -471.15877539 Ry
     Harris-Foulkes estimate   =    -471.74330039 Ry
     estimated scf accuracy    <       4.24224502 Ry

     iteration #  6     ecut=    50.00 Ry     beta= 0.60
     Davidson diagonalization with overlap
     ethr =  8.32E-03,  avg # of iterations =  1.0

     total cpu time spent up to now is     1216.6 secs

     total energy              =    -470.75091744 Ry
     Harris-Foulkes estimate   =    -471.19655683 Ry
     estimated scf accuracy    <       3.05935468 Ry

     iteration #  7     ecut=    50.00 Ry     beta= 0.60
     Davidson diagonalization with overlap
     ethr =  6.00E-03,  avg # of iterations =  1.2

     total cpu time spent up to now is     1246.6 secs

     total energy              =    -470.74564474 Ry
     Harris-Foulkes estimate   =    -470.79600222 Ry
     estimated scf accuracy    <       1.96156008 Ry

     iteration #  8     ecut=    50.00 Ry     beta= 0.60
     Davidson diagonalization with overlap
     ethr =  3.85E-03,  avg # of iterations =  1.0

     total cpu time spent up to now is     1276.4 secs

     total energy              =    -470.30600647 Ry
     Harris-Foulkes estimate   =    -470.75846032 Ry
     estimated scf accuracy    <       1.82395294 Ry

     iteration #  9     ecut=    50.00 Ry     beta= 0.60
     Davidson diagonalization with overlap
     ethr =  3.58E-03,  avg # of iterations =  3.4

     total cpu time spent up to now is     1310.6 secs

     total energy              =    -470.44971010 Ry
     Harris-Foulkes estimate   =    -470.43842383 Ry
     estimated scf accuracy    <       0.16472786 Ry

     iteration # 10     ecut=    50.00 Ry     beta= 0.60
     Davidson diagonalization with overlap
     ethr =  3.23E-04,  avg # of iterations =  5.1

     total cpu time spent up to now is     1352.0 secs

     total energy              =    -470.34712164 Ry
     Harris-Foulkes estimate   =    -470.47086672 Ry
     estimated scf accuracy    <       0.17105975 Ry

     iteration # 11     ecut=    50.00 Ry     beta= 0.60
     Davidson diagonalization with overlap
     ethr =  3.23E-04,  avg # of iterations =  5.0

     total cpu time spent up to now is     1406.6 secs

     total energy              =    -470.21185035 Ry
     Harris-Foulkes estimate   =    -472.81495944 Ry
     estimated scf accuracy    <      32.20779630 Ry

     iteration # 12     ecut=    50.00 Ry     beta= 0.60
     Davidson diagonalization with overlap
     ethr =  3.23E-04,  avg # of iterations =  5.0

     total cpu time spent up to now is     1455.8 secs

     total energy              =    -471.05116655 Ry
     Harris-Foulkes estimate   =    -470.77186289 Ry
     estimated scf accuracy    <       7.04488126 Ry

     iteration # 13     ecut=    50.00 Ry     beta= 0.60
     Davidson diagonalization with overlap
     ethr =  3.23E-04,  avg # of iterations =  3.6

     total cpu time spent up to now is     1491.2 secs

     total energy              =    -471.46341759 Ry
     Harris-Foulkes estimate   =    -471.09989671 Ry
     estimated scf accuracy    <      12.73298020 Ry

     iteration # 14     ecut=    50.00 Ry     beta= 0.60
     Davidson diagonalization with overlap
     ethr =  3.23E-04,  avg # of iterations =  3.5

     total cpu time spent up to now is     1527.4 secs

     total energy              =    -470.39902711 Ry
     Harris-Foulkes estimate   =    -471.51137952 Ry
     estimated scf accuracy    <      19.47670267 Ry

     iteration # 15     ecut=    50.00 Ry     beta= 0.60
     Davidson diagonalization with overlap
     ethr =  3.23E-04,  avg # of iterations =  4.2

     total cpu time spent up to now is     1570.8 secs

     total energy              =    -470.60250979 Ry
     Harris-Foulkes estimate   =    -470.64803820 Ry
     estimated scf accuracy    <       4.78557854 Ry

     iteration # 16     ecut=    50.00 Ry     beta= 0.60
     Davidson diagonalization with overlap
     ethr =  3.23E-04,  avg # of iterations =  1.0

     total cpu time spent up to now is     1600.6 secs

     total energy              =    -470.83828682 Ry
     Harris-Foulkes estimate   =    -470.60542046 Ry
     estimated scf accuracy    <       3.97378669 Ry

     iteration # 17     ecut=    50.00 Ry     beta= 0.60
     Davidson diagonalization with overlap
     ethr =  3.23E-04,  avg # of iterations =  4.0

     total cpu time spent up to now is     1640.1 secs

     total energy              =    -470.11209373 Ry
     Harris-Foulkes estimate   =    -470.92093462 Ry
     estimated scf accuracy    <      10.59707867 Ry

     iteration # 18     ecut=    50.00 Ry     beta= 0.60
     Davidson diagonalization with overlap
     ethr =  3.23E-04,  avg # of iterations =  5.3

     total cpu time spent up to now is     1689.6 secs

     total energy              =    -470.43991298 Ry
     Harris-Foulkes estimate   =    -470.44987850 Ry
     estimated scf accuracy    <       0.37114947 Ry

     iteration # 19     ecut=    50.00 Ry     beta= 0.60
     Davidson diagonalization with overlap
     ethr =  3.23E-04,  avg # of iterations =  1.0

     total cpu time spent up to now is     1719.5 secs

     total energy              =    -470.44822304 Ry
     Harris-Foulkes estimate   =    -470.44086159 Ry
     estimated scf accuracy    <       0.25682509 Ry

     iteration # 20     ecut=    50.00 Ry     beta= 0.60
     Davidson diagonalization with overlap
     ethr =  3.23E-04,  avg # of iterations =  1.0

     total cpu time spent up to now is     1749.3 secs

     total energy              =    -470.43255684 Ry
     Harris-Foulkes estimate   =    -470.44919010 Ry
     estimated scf accuracy    <       0.38620373 Ry

     iteration # 21     ecut=    50.00 Ry     beta= 0.60
     Davidson diagonalization with overlap
     ethr =  3.23E-04,  avg # of iterations =  1.0

     total cpu time spent up to now is     1779.1 secs

     total energy              =    -470.43276141 Ry
     Harris-Foulkes estimate   =    -470.43508032 Ry
     estimated scf accuracy    <       0.17613951 Ry

     iteration # 22     ecut=    50.00 Ry     beta= 0.60
     Davidson diagonalization with overlap
     ethr =  3.23E-04,  avg # of iterations =  1.0

     total cpu time spent up to now is     1808.9 secs

     total energy              =    -470.42692782 Ry
     Harris-Foulkes estimate   =    -470.43366608 Ry
     estimated scf accuracy    <       0.14988805 Ry

     iteration # 23     ecut=    50.00 Ry     beta= 0.60
     Davidson diagonalization with overlap
     ethr =  2.94E-04,  avg # of iterations =  1.0

     total cpu time spent up to now is     1838.7 secs

     total energy              =    -470.41870579 Ry
     Harris-Foulkes estimate   =    -470.42869969 Ry
     estimated scf accuracy    <       0.07296158 Ry

     iteration # 24     ecut=    50.00 Ry     beta= 0.60
     Davidson diagonalization with overlap
     ethr =  1.43E-04,  avg # of iterations =  4.3

     total cpu time spent up to now is     1874.3 secs

     total energy              =    -470.42538038 Ry
     Harris-Foulkes estimate   =    -470.42647060 Ry
     estimated scf accuracy    <       0.00511995 Ry

     iteration # 25     ecut=    50.00 Ry     beta= 0.60
     Davidson diagonalization with overlap
     ethr =  1.00E-05,  avg # of iterations =  6.9

     total cpu time spent up to now is     1917.8 secs

     total energy              =    -470.42580942 Ry
     Harris-Foulkes estimate   =    -470.42592466 Ry
     estimated scf accuracy    <       0.00044589 Ry

     iteration # 26     ecut=    50.00 Ry     beta= 0.60
     Davidson diagonalization with overlap
     ethr =  8.74E-07,  avg # of iterations =  4.7

     total cpu time spent up to now is     1958.7 secs

     total energy              =    -470.42589108 Ry
     Harris-Foulkes estimate   =    -470.42589861 Ry
     estimated scf accuracy    <       0.00003808 Ry

     iteration # 27     ecut=    50.00 Ry     beta= 0.60
     Davidson diagonalization with overlap
     ethr =  7.47E-08,  avg # of iterations =  2.9

     total cpu time spent up to now is     1992.9 secs

     total energy              =    -470.42589245 Ry
     Harris-Foulkes estimate   =    -470.42589578 Ry
     estimated scf accuracy    <       0.00001992 Ry

     iteration # 28     ecut=    50.00 Ry     beta= 0.60
     Davidson diagonalization with overlap
     ethr =  3.91E-08,  avg # of iterations =  2.7

     total cpu time spent up to now is     2025.2 secs

     total energy              =    -470.42589393 Ry
     Harris-Foulkes estimate   =    -470.42589399 Ry
     estimated scf accuracy    <       0.00000046 Ry

     iteration # 29     ecut=    50.00 Ry     beta= 0.60
     Davidson diagonalization with overlap
     ethr =  8.93E-10,  avg # of iterations =  4.8

     total cpu time spent up to now is     2068.7 secs

     total energy              =    -470.42589422 Ry
     Harris-Foulkes estimate   =    -470.42589424 Ry
     estimated scf accuracy    <       0.00000014 Ry

     iteration # 30     ecut=    50.00 Ry     beta= 0.60
     Davidson diagonalization with overlap
     ethr =  2.84E-10,  avg # of iterations =  1.2

     total cpu time spent up to now is     2098.7 secs

     total energy              =    -470.42589423 Ry
     Harris-Foulkes estimate   =    -470.42589423 Ry
     estimated scf accuracy    <       0.00000002 Ry

     iteration # 31     ecut=    50.00 Ry     beta= 0.60
     Davidson diagonalization with overlap
     ethr =  3.17E-11,  avg # of iterations =  3.9

     total cpu time spent up to now is     2137.3 secs

     total energy              =    -470.42589423 Ry
     Harris-Foulkes estimate   =    -470.42589423 Ry
     estimated scf accuracy    <          1.2E-09 Ry

     iteration # 32     ecut=    50.00 Ry     beta= 0.60
     Davidson diagonalization with overlap
     ethr =  2.27E-12,  avg # of iterations =  3.0

     total cpu time spent up to now is     2172.9 secs

     total energy              =    -470.42589423 Ry
     Harris-Foulkes estimate   =    -470.42589423 Ry
     estimated scf accuracy    <          5.5E-10 Ry

     iteration # 33     ecut=    50.00 Ry     beta= 0.60
     Davidson diagonalization with overlap
     ethr =  1.09E-12,  avg # of iterations =  3.5

     total cpu time spent up to now is     2207.7 secs

     End of self-consistent calculation

     Number of k-points >= 100: set verbosity='high' to print the bands.

     the Fermi energy is    15.1643 ev

!    total energy              =    -470.42589423 Ry
     Harris-Foulkes estimate   =    -470.42589423 Ry
     estimated scf accuracy    <          2.2E-11 Ry

     The total energy is the sum of the following terms:

     one-electron contribution =    -104.87698251 Ry
     hartree contribution      =      73.63234910 Ry
     xc contribution           =     -69.51206863 Ry
     ewald contribution        =    -369.66910202 Ry
     smearing contrib. (-TS)   =      -0.00009017 Ry

     convergence has been achieved in  33 iterations

     Forces acting on atoms (cartesian axes, Ry/au):

     atom    1 type  2   force =     0.00000000    0.00000000    0.00000000
     atom    2 type  1   force =     0.00000000    0.01131601    0.01131601
     atom    3 type  1   force =     0.00000000   -0.01131601   -0.01131601
     atom    4 type  1   force =    -0.00000000   -0.00000000    0.00000000

     Total force =     0.022632     Total SCF correction =     0.000002


     Computing stress (Cartesian axis) and pressure

          total   stress  (Ry/bohr**3)                   (kbar)     P= -116.74
  -0.00078567   0.00000000  -0.00000000       -115.58      0.00     -0.00
   0.00000000  -0.00079756  -0.00003739          0.00   -117.33     -5.50
  -0.00000000  -0.00003739  -0.00079756         -0.00     -5.50   -117.33


     number of scf cycles    =   2
     number of bfgs steps    =   1

     enthalpy old            =    -470.3546042570 Ry
     enthalpy new            =    -470.4258942307 Ry

     CASE: enthalpy_new < enthalpy_old

     new trust radius        =       0.1817778675 bohr
     new conv_thr            =            1.0E-10 Ry

     new unit-cell volume =    465.72437 a.u.^3 (    69.01323 Ang^3 )
     density =      7.85804 g/cm^3

CELL_PARAMETERS (alat=  1.88972599)
   1.628851075   1.613926872   4.877437807
  -1.628851075   4.877437807   1.613926872
  -1.628851075  -4.877437807  -1.613926872

ATOMIC_POSITIONS (angstrom)
Ti      -1.628851075   1.622841170   1.622841170
Nb      -1.628851075  -1.613901673   1.649609262
Nb      -1.628851075   1.596073078   4.859584013
Nb      -0.000000000  -0.008914298   3.254596637


     NEW-OLD atomic charge density approx. for the potential
     extrapolated charge   44.59268, renormalised to   51.00000

     total cpu time spent up to now is     2220.0 secs

     Self-consistent Calculation

     iteration #  1     ecut=    50.00 Ry     beta= 0.60
     Davidson diagonalization with overlap
     c_bands:  1 eigenvalues not converged
     c_bands:  1 eigenvalues not converged
     c_bands:  1 eigenvalues not converged
     c_bands:  1 eigenvalues not converged
     c_bands:  1 eigenvalues not converged
     c_bands:  1 eigenvalues not converged
     c_bands:  2 eigenvalues not converged
     c_bands:  1 eigenvalues not converged
     c_bands:  1 eigenvalues not converged
     c_bands:  1 eigenvalues not converged
     c_bands:  1 eigenvalues not converged
     c_bands:  1 eigenvalues not converged
     c_bands:  1 eigenvalues not converged
     c_bands:  1 eigenvalues not converged
     c_bands:  1 eigenvalues not converged
     c_bands:  1 eigenvalues not converged
     c_bands:  1 eigenvalues not converged
     c_bands:  1 eigenvalues not converged
     c_bands:  1 eigenvalues not converged
     c_bands:  1 eigenvalues not converged
     c_bands:  1 eigenvalues not converged
     c_bands:  2 eigenvalues not converged
     c_bands:  1 eigenvalues not converged
     c_bands:  1 eigenvalues not converged
     c_bands:  1 eigenvalues not converged
     c_bands:  1 eigenvalues not converged
     c_bands:  1 eigenvalues not converged
     c_bands:  1 eigenvalues not converged
     c_bands:  1 eigenvalues not converged
     c_bands:  1 eigenvalues not converged
     c_bands:  1 eigenvalues not converged
     c_bands:  1 eigenvalues not converged
     c_bands:  1 eigenvalues not converged
     c_bands:  1 eigenvalues not converged
     c_bands:  1 eigenvalues not converged
     c_bands:  1 eigenvalues not converged
     c_bands:  2 eigenvalues not converged
     c_bands:  1 eigenvalues not converged
     c_bands:  1 eigenvalues not converged
     c_bands:  1 eigenvalues not converged
     c_bands:  1 eigenvalues not converged
     c_bands:  1 eigenvalues not converged
     c_bands:  1 eigenvalues not converged
     c_bands:  1 eigenvalues not converged
     c_bands:  1 eigenvalues not converged
     c_bands:  1 eigenvalues not converged
     c_bands:  1 eigenvalues not converged
     c_bands:  1 eigenvalues not converged
     c_bands:  1 eigenvalues not converged
     c_bands:  1 eigenvalues not converged
     c_bands:  1 eigenvalues not converged
     c_bands:  1 eigenvalues not converged
     c_bands:  1 eigenvalues not converged
     c_bands:  1 eigenvalues not converged
     c_bands:  1 eigenvalues not converged
     c_bands:  1 eigenvalues not converged
     c_bands:  1 eigenvalues not converged
     c_bands:  1 eigenvalues not converged
     c_bands:  1 eigenvalues not converged
     c_bands:  1 eigenvalues not converged
     c_bands:  1 eigenvalues not converged
     c_bands:  1 eigenvalues not converged
     c_bands:  1 eigenvalues not converged
     ethr =  1.00E-06,  avg # of iterations = 14.8

     total cpu time spent up to now is     2328.2 secs

     total energy              =    -451.32122143 Ry
     Harris-Foulkes estimate   =    -479.09689782 Ry
     estimated scf accuracy    <      21.14603883 Ry

     iteration #  2     ecut=    50.00 Ry     beta= 0.60
     Davidson diagonalization with overlap
     ethr =  1.00E-02,  avg # of iterations =  6.5

     total cpu time spent up to now is     2388.5 secs

     total energy              =    -463.33043798 Ry
     Harris-Foulkes estimate   =    -494.24110103 Ry
     estimated scf accuracy    <      94.40396314 Ry

     iteration #  3     ecut=    50.00 Ry     beta= 0.60
     Davidson diagonalization with overlap
     ethr =  1.00E-02,  avg # of iterations =  4.4

     total cpu time spent up to now is     2436.4 secs

     total energy              =    -471.73104115 Ry
     Harris-Foulkes estimate   =    -473.45938596 Ry
     estimated scf accuracy    <       8.51413440 Ry

     iteration #  4     ecut=    50.00 Ry     beta= 0.60
     Davidson diagonalization with overlap
     ethr =  1.00E-02,  avg # of iterations =  2.2

     total cpu time spent up to now is     2468.4 secs

     total energy              =    -471.27155464 Ry
     Harris-Foulkes estimate   =    -472.47969121 Ry
     estimated scf accuracy    <       7.74358789 Ry

     iteration #  5     ecut=    50.00 Ry     beta= 0.60
     Davidson diagonalization with overlap
     ethr =  1.00E-02,  avg # of iterations =  1.0

     total cpu time spent up to now is     2498.6 secs

     total energy              =    -471.02397763 Ry
     Harris-Foulkes estimate   =    -471.51430171 Ry
     estimated scf accuracy    <       3.74168983 Ry

     iteration #  6     ecut=    50.00 Ry     beta= 0.60
     Davidson diagonalization with overlap
     ethr =  7.34E-03,  avg # of iterations =  1.0

     total cpu time spent up to now is     2528.7 secs

     total energy              =    -470.73426756 Ry
     Harris-Foulkes estimate   =    -471.06427019 Ry
     estimated scf accuracy    <       2.65493589 Ry

     iteration #  7     ecut=    50.00 Ry     beta= 0.60
     Davidson diagonalization with overlap
     ethr =  5.21E-03,  avg # of iterations =  1.2

     total cpu time spent up to now is     2559.0 secs

     total energy              =    -470.74045230 Ry
     Harris-Foulkes estimate   =    -470.77017333 Ry
     estimated scf accuracy    <       1.77498681 Ry

     iteration #  8     ecut=    50.00 Ry     beta= 0.60
     Davidson diagonalization with overlap
     ethr =  3.48E-03,  avg # of iterations =  1.0

     total cpu time spent up to now is     2589.1 secs

     total energy              =    -470.29496191 Ry
     Harris-Foulkes estimate   =    -470.75167260 Ry
     estimated scf accuracy    <       1.66610380 Ry

     iteration #  9     ecut=    50.00 Ry     beta= 0.60
     Davidson diagonalization with overlap
     ethr =  3.27E-03,  avg # of iterations =  3.9

     total cpu time spent up to now is     2624.9 secs

     total energy              =    -470.45008090 Ry
     Harris-Foulkes estimate   =    -470.44296869 Ry
     estimated scf accuracy    <       0.08327536 Ry

     iteration # 10     ecut=    50.00 Ry     beta= 0.60
     Davidson diagonalization with overlap
     ethr =  1.63E-04,  avg # of iterations =  5.6

     total cpu time spent up to now is     2670.4 secs

     total energy              =    -470.43062545 Ry
     Harris-Foulkes estimate   =    -470.47040359 Ry
     estimated scf accuracy    <       0.08836167 Ry

     iteration # 11     ecut=    50.00 Ry     beta= 0.60
     Davidson diagonalization with overlap
     ethr =  1.63E-04,  avg # of iterations =  5.0

     total cpu time spent up to now is     2726.7 secs

     total energy              =    -470.48020255 Ry
     Harris-Foulkes estimate   =    -471.92912344 Ry
     estimated scf accuracy    <      22.60851595 Ry

     iteration # 12     ecut=    50.00 Ry     beta= 0.60
     Davidson diagonalization with overlap
     ethr =  1.63E-04,  avg # of iterations =  4.9

     total cpu time spent up to now is     2776.1 secs

     total energy              =    -470.97673918 Ry
     Harris-Foulkes estimate   =    -470.79419726 Ry
     estimated scf accuracy    <       6.34479695 Ry

     iteration # 13     ecut=    50.00 Ry     beta= 0.60
     Davidson diagonalization with overlap
     ethr =  1.63E-04,  avg # of iterations =  3.4

     total cpu time spent up to now is     2812.0 secs

     total energy              =    -471.20300764 Ry
     Harris-Foulkes estimate   =    -471.00061569 Ry
     estimated scf accuracy    <       9.86004990 Ry

     iteration # 14     ecut=    50.00 Ry     beta= 0.60
     Davidson diagonalization with overlap
     ethr =  1.63E-04,  avg # of iterations =  3.6

     total cpu time spent up to now is     2848.4 secs

     total energy              =    -471.15002541 Ry
     Harris-Foulkes estimate   =    -471.22299850 Ry
     estimated scf accuracy    <      13.52066272 Ry

     iteration # 15     ecut=    50.00 Ry     beta= 0.60
     Davidson diagonalization with overlap
     ethr =  1.63E-04,  avg # of iterations =  2.0

     total cpu time spent up to now is     2884.1 secs

     total energy              =    -470.76143611 Ry
     Harris-Foulkes estimate   =    -471.16559490 Ry
     estimated scf accuracy    <      13.18456260 Ry

     iteration # 16     ecut=    50.00 Ry     beta= 0.60
     Davidson diagonalization with overlap
     ethr =  1.63E-04,  avg # of iterations =  3.8

     total cpu time spent up to now is     2922.3 secs

     total energy              =    -470.51984699 Ry
     Harris-Foulkes estimate   =    -470.81571888 Ry
     estimated scf accuracy    <       6.83260307 Ry

     iteration # 17     ecut=    50.00 Ry     beta= 0.60
     Davidson diagonalization with overlap
     ethr =  1.63E-04,  avg # of iterations =  4.3

     total cpu time spent up to now is     2963.4 secs

     total energy              =    -470.28287833 Ry
     Harris-Foulkes estimate   =    -470.58151493 Ry
     estimated scf accuracy    <       2.09526261 Ry

     iteration # 18     ecut=    50.00 Ry     beta= 0.60
     Davidson diagonalization with overlap
     ethr =  1.63E-04,  avg # of iterations =  6.2

     total cpu time spent up to now is     3016.4 secs

     total energy              =    -470.44284625 Ry
     Harris-Foulkes estimate   =    -470.44859545 Ry
     estimated scf accuracy    <       0.03587694 Ry

     iteration # 19     ecut=    50.00 Ry     beta= 0.60
     Davidson diagonalization with overlap
     ethr =  7.03E-05,  avg # of iterations =  1.0

     total cpu time spent up to now is     3046.5 secs

     total energy              =    -470.44341913 Ry
     Harris-Foulkes estimate   =    -470.44438843 Ry
     estimated scf accuracy    <       0.01505564 Ry

     iteration # 20     ecut=    50.00 Ry     beta= 0.60
     Davidson diagonalization with overlap
     ethr =  2.95E-05,  avg # of iterations =  1.1

     total cpu time spent up to now is     3076.8 secs

     total energy              =    -470.44254170 Ry
     Harris-Foulkes estimate   =    -470.44377076 Ry
     estimated scf accuracy    <       0.00823330 Ry

     iteration # 21     ecut=    50.00 Ry     beta= 0.60
     Davidson diagonalization with overlap
     ethr =  1.61E-05,  avg # of iterations =  3.0

     total cpu time spent up to now is     3109.9 secs

     total energy              =    -470.44310158 Ry
     Harris-Foulkes estimate   =    -470.44319048 Ry
     estimated scf accuracy    <       0.00037486 Ry

     iteration # 22     ecut=    50.00 Ry     beta= 0.60
     Davidson diagonalization with overlap
     ethr =  7.35E-07,  avg # of iterations =  5.9

     total cpu time spent up to now is     3158.4 secs

     total energy              =    -470.44322434 Ry
     Harris-Foulkes estimate   =    -470.44322712 Ry
     estimated scf accuracy    <       0.00000779 Ry

     iteration # 23     ecut=    50.00 Ry     beta= 0.60
     Davidson diagonalization with overlap
     ethr =  1.53E-08,  avg # of iterations =  3.0

     total cpu time spent up to now is     3194.9 secs

     total energy              =    -470.44322594 Ry
     Harris-Foulkes estimate   =    -470.44322622 Ry
     estimated scf accuracy    <       0.00000111 Ry

     iteration # 24     ecut=    50.00 Ry     beta= 0.60
     Davidson diagonalization with overlap
     ethr =  2.18E-09,  avg # of iterations =  2.6

     total cpu time spent up to now is     3230.8 secs

     total energy              =    -470.44322621 Ry
     Harris-Foulkes estimate   =    -470.44322620 Ry
     estimated scf accuracy    <       0.00000036 Ry

     iteration # 25     ecut=    50.00 Ry     beta= 0.60
     Davidson diagonalization with overlap
     ethr =  7.10E-10,  avg # of iterations =  1.5

     total cpu time spent up to now is     3261.6 secs

     total energy              =    -470.44322616 Ry
     Harris-Foulkes estimate   =    -470.44322622 Ry
     estimated scf accuracy    <       0.00000037 Ry

     iteration # 26     ecut=    50.00 Ry     beta= 0.60
     Davidson diagonalization with overlap
     ethr =  7.10E-10,  avg # of iterations =  1.2

     total cpu time spent up to now is     3291.9 secs

     total energy              =    -470.44322616 Ry
     Harris-Foulkes estimate   =    -470.44322618 Ry
     estimated scf accuracy    <       0.00000010 Ry

     iteration # 27     ecut=    50.00 Ry     beta= 0.60
     Davidson diagonalization with overlap
     ethr =  1.87E-10,  avg # of iterations =  3.9

     total cpu time spent up to now is     3329.6 secs

     total energy              =    -470.44322618 Ry
     Harris-Foulkes estimate   =    -470.44322618 Ry
     estimated scf accuracy    <       0.00000001 Ry

     iteration # 28     ecut=    50.00 Ry     beta= 0.60
     Davidson diagonalization with overlap
     ethr =  1.98E-11,  avg # of iterations =  2.7

     total cpu time spent up to now is     3363.4 secs

     total energy              =    -470.44322618 Ry
     Harris-Foulkes estimate   =    -470.44322618 Ry
     estimated scf accuracy    <          3.1E-09 Ry

     iteration # 29     ecut=    50.00 Ry     beta= 0.60
     Davidson diagonalization with overlap
     ethr =  6.13E-12,  avg # of iterations =  3.5

     total cpu time spent up to now is     3398.1 secs

     End of self-consistent calculation

     Number of k-points >= 100: set verbosity='high' to print the bands.

     the Fermi energy is    17.4637 ev

!    total energy              =    -470.44322618 Ry
     Harris-Foulkes estimate   =    -470.44322618 Ry
     estimated scf accuracy    <          5.4E-11 Ry

     The total energy is the sum of the following terms:

     one-electron contribution =     -83.25496220 Ry
     hartree contribution      =      67.61187536 Ry
     xc contribution           =     -70.00479645 Ry
     ewald contribution        =    -384.79520504 Ry
     smearing contrib. (-TS)   =      -0.00013784 Ry

     convergence has been achieved in  29 iterations

     Forces acting on atoms (cartesian axes, Ry/au):

     atom    1 type  2   force =     0.00000000    0.00000000    0.00000000
     atom    2 type  1   force =     0.00000000    0.00600672    0.00600672
     atom    3 type  1   force =     0.00000000   -0.00600672   -0.00600672
     atom    4 type  1   force =     0.00000000    0.00000000    0.00000000

     Total force =     0.012013     Total SCF correction =     0.000017


     Computing stress (Cartesian axis) and pressure

          total   stress  (Ry/bohr**3)                   (kbar)     P=   51.32
   0.00035725   0.00000000   0.00000000         52.55      0.00      0.00
   0.00000000   0.00034469  -0.00004493          0.00     50.71     -6.61
  -0.00000000  -0.00004493   0.00034469         -0.00     -6.61     50.71


     number of scf cycles    =   3
     number of bfgs steps    =   2

     enthalpy old            =    -470.4258942307 Ry
     enthalpy new            =    -470.4432261765 Ry

     CASE: enthalpy_new < enthalpy_old

     new trust radius        =       0.0499494181 bohr
     new conv_thr            =            1.0E-10 Ry

     new unit-cell volume =    481.97745 a.u.^3 (    71.42169 Ang^3 )
     density =      7.59306 g/cm^3

CELL_PARAMETERS (alat=  1.88972599)
   1.647701335   1.630330497   4.932657701
  -1.647701335   4.932657701   1.630330497
  -1.647701335  -4.932657701  -1.630330497

ATOMIC_POSITIONS (angstrom)
Ti      -1.647701335   1.640747049   1.640747049
Nb      -1.647701335  -1.632677310   1.669649895
Nb      -1.647701335   1.611844204   4.914171409
Nb      -0.000000000  -0.010416553   3.291910652


     NEW-OLD atomic charge density approx. for the potential
     extrapolated charge   52.68581, renormalised to   51.00000

     total cpu time spent up to now is     3410.4 secs

     Self-consistent Calculation

     iteration #  1     ecut=    50.00 Ry     beta= 0.60
     Davidson diagonalization with overlap
     c_bands:  1 eigenvalues not converged
     ethr =  1.00E-06,  avg # of iterations = 12.1

     total cpu time spent up to now is     3498.9 secs

     total energy              =    -470.24107400 Ry
     Harris-Foulkes estimate   =    -468.37463428 Ry
     estimated scf accuracy    <       0.16075028 Ry

     iteration #  2     ecut=    50.00 Ry     beta= 0.60
     Davidson diagonalization with overlap
     ethr =  3.15E-04,  avg # of iterations =  6.1

     total cpu time spent up to now is     3561.0 secs

     total energy              =    -470.00846598 Ry
     Harris-Foulkes estimate   =    -470.88718525 Ry
     estimated scf accuracy    <       8.19300261 Ry

     iteration #  3     ecut=    50.00 Ry     beta= 0.60
     Davidson diagonalization with overlap
     ethr =  3.15E-04,  avg # of iterations =  5.4

     total cpu time spent up to now is     3611.5 secs

     total energy              =    -470.44014731 Ry
     Harris-Foulkes estimate   =    -470.48899064 Ry
     estimated scf accuracy    <       0.14471442 Ry

     iteration #  4     ecut=    50.00 Ry     beta= 0.60
     Davidson diagonalization with overlap
     ethr =  2.84E-04,  avg # of iterations =  2.0

     total cpu time spent up to now is     3643.1 secs

     total energy              =    -470.45079448 Ry
     Harris-Foulkes estimate   =    -470.45413128 Ry
     estimated scf accuracy    <       0.03497669 Ry

     iteration #  5     ecut=    50.00 Ry     beta= 0.60
     Davidson diagonalization with overlap
     ethr =  6.86E-05,  avg # of iterations =  3.2

     total cpu time spent up to now is     3677.3 secs

     total energy              =    -470.45020753 Ry
     Harris-Foulkes estimate   =    -470.45330846 Ry
     estimated scf accuracy    <       0.03316028 Ry

     iteration #  6     ecut=    50.00 Ry     beta= 0.60
     Davidson diagonalization with overlap
     ethr =  6.50E-05,  avg # of iterations =  1.1

     total cpu time spent up to now is     3707.5 secs

     total energy              =    -470.44643715 Ry
     Harris-Foulkes estimate   =    -470.45067386 Ry
     estimated scf accuracy    <       0.02599874 Ry

     iteration #  7     ecut=    50.00 Ry     beta= 0.60
     Davidson diagonalization with overlap
     ethr =  5.10E-05,  avg # of iterations =  1.2

     total cpu time spent up to now is     3738.0 secs

     total energy              =    -470.44530286 Ry
     Harris-Foulkes estimate   =    -470.44721119 Ry
     estimated scf accuracy    <       0.01127500 Ry

     iteration #  8     ecut=    50.00 Ry     beta= 0.60
     Davidson diagonalization with overlap
     ethr =  2.21E-05,  avg # of iterations =  2.3

     total cpu time spent up to now is     3770.2 secs

     total energy              =    -470.44558716 Ry
     Harris-Foulkes estimate   =    -470.44588483 Ry
     estimated scf accuracy    <       0.00291171 Ry

     iteration #  9     ecut=    50.00 Ry     beta= 0.60
     Davidson diagonalization with overlap
     ethr =  5.71E-06,  avg # of iterations =  5.2

     total cpu time spent up to now is     3807.9 secs

     total energy              =    -470.44577968 Ry
     Harris-Foulkes estimate   =    -470.44579981 Ry
     estimated scf accuracy    <       0.00046802 Ry

     iteration # 10     ecut=    50.00 Ry     beta= 0.60
     Davidson diagonalization with overlap
     ethr =  9.18E-07,  avg # of iterations =  4.0

     total cpu time spent up to now is     3843.5 secs

     total energy              =    -470.44581419 Ry
     Harris-Foulkes estimate   =    -470.44581216 Ry
     estimated scf accuracy    <       0.00023671 Ry

     iteration # 11     ecut=    50.00 Ry     beta= 0.60
     Davidson diagonalization with overlap
     ethr =  4.64E-07,  avg # of iterations =  1.0

     total cpu time spent up to now is     3873.7 secs

     total energy              =    -470.44578749 Ry
     Harris-Foulkes estimate   =    -470.44581926 Ry
     estimated scf accuracy    <       0.00028810 Ry

     iteration # 12     ecut=    50.00 Ry     beta= 0.60
     Davidson diagonalization with overlap
     ethr =  4.64E-07,  avg # of iterations =  1.1

     total cpu time spent up to now is     3903.9 secs

     total energy              =    -470.44578968 Ry
     Harris-Foulkes estimate   =    -470.44579588 Ry
     estimated scf accuracy    <       0.00007422 Ry

     iteration # 13     ecut=    50.00 Ry     beta= 0.60
     Davidson diagonalization with overlap
     ethr =  1.46E-07,  avg # of iterations =  3.5

     total cpu time spent up to now is     3938.9 secs

     total energy              =    -470.44579521 Ry
     Harris-Foulkes estimate   =    -470.44579559 Ry
     estimated scf accuracy    <       0.00000781 Ry

     iteration # 14     ecut=    50.00 Ry     beta= 0.60
     Davidson diagonalization with overlap
     ethr =  1.53E-08,  avg # of iterations =  2.9

     total cpu time spent up to now is     3972.4 secs

     total energy              =    -470.44579492 Ry
     Harris-Foulkes estimate   =    -470.44579564 Ry
     estimated scf accuracy    <       0.00000492 Ry

     iteration # 15     ecut=    50.00 Ry     beta= 0.60
     Davidson diagonalization with overlap
     ethr =  9.66E-09,  avg # of iterations =  2.9

     total cpu time spent up to now is     4005.6 secs

     total energy              =    -470.44579521 Ry
     Harris-Foulkes estimate   =    -470.44579524 Ry
     estimated scf accuracy    <       0.00000068 Ry

     iteration # 16     ecut=    50.00 Ry     beta= 0.60
     Davidson diagonalization with overlap
     ethr =  1.33E-09,  avg # of iterations =  3.6

     total cpu time spent up to now is     4041.6 secs

     total energy              =    -470.44579528 Ry
     Harris-Foulkes estimate   =    -470.44579529 Ry
     estimated scf accuracy    <       0.00000022 Ry

     iteration # 17     ecut=    50.00 Ry     beta= 0.60
     Davidson diagonalization with overlap
     ethr =  4.31E-10,  avg # of iterations =  1.8

     total cpu time spent up to now is     4072.8 secs

     total energy              =    -470.44579528 Ry
     Harris-Foulkes estimate   =    -470.44579529 Ry
     estimated scf accuracy    <       0.00000020 Ry

     iteration # 18     ecut=    50.00 Ry     beta= 0.60
     Davidson diagonalization with overlap
     ethr =  3.97E-10,  avg # of iterations =  1.0

     total cpu time spent up to now is     4102.9 secs

     total energy              =    -470.44579527 Ry
     Harris-Foulkes estimate   =    -470.44579528 Ry
     estimated scf accuracy    <       0.00000012 Ry

     iteration # 19     ecut=    50.00 Ry     beta= 0.60
     Davidson diagonalization with overlap
     ethr =  2.33E-10,  avg # of iterations =  2.9

     total cpu time spent up to now is     4135.8 secs

     total energy              =    -470.44579527 Ry
     Harris-Foulkes estimate   =    -470.44579527 Ry
     estimated scf accuracy    <       0.00000001 Ry

     iteration # 20     ecut=    50.00 Ry     beta= 0.60
     Davidson diagonalization with overlap
     ethr =  2.35E-11,  avg # of iterations =  4.0

     total cpu time spent up to now is     4174.1 secs

     total energy              =    -470.44579527 Ry
     Harris-Foulkes estimate   =    -470.44579527 Ry
     estimated scf accuracy    <          1.0E-10 Ry

     iteration # 21     ecut=    50.00 Ry     beta= 0.60
     Davidson diagonalization with overlap
     ethr =  2.03E-13,  avg # of iterations =  4.7

     total cpu time spent up to now is     4219.7 secs

     End of self-consistent calculation

     Number of k-points >= 100: set verbosity='high' to print the bands.

     the Fermi energy is    16.7814 ev

!    total energy              =    -470.44579527 Ry
     Harris-Foulkes estimate   =    -470.44579527 Ry
     estimated scf accuracy    <          4.2E-11 Ry

     The total energy is the sum of the following terms:

     one-electron contribution =     -89.48586209 Ry
     hartree contribution      =      69.31683300 Ry
     xc contribution           =     -69.85847375 Ry
     ewald contribution        =    -380.41826327 Ry
     smearing contrib. (-TS)   =      -0.00002916 Ry

     convergence has been achieved in  21 iterations

     Forces acting on atoms (cartesian axes, Ry/au):

     atom    1 type  2   force =     0.00000000    0.00000000    0.00000000
     atom    2 type  1   force =     0.00000000    0.00677818    0.00677818
     atom    3 type  1   force =     0.00000000   -0.00677818   -0.00677818
     atom    4 type  1   force =     0.00000000    0.00000000   -0.00000000

     Total force =     0.013556     Total SCF correction =     0.000009


     Computing stress (Cartesian axis) and pressure

          total   stress  (Ry/bohr**3)                   (kbar)     P=   -4.09
  -0.00002012   0.00000000  -0.00000000         -2.96      0.00     -0.00
   0.00000000  -0.00003168  -0.00004255          0.00     -4.66     -6.26
   0.00000000  -0.00004255  -0.00003168          0.00     -6.26     -4.66


     number of scf cycles    =   4
     number of bfgs steps    =   3

     enthalpy old            =    -470.4432261765 Ry
     enthalpy new            =    -470.4457952733 Ry

     CASE: enthalpy_new < enthalpy_old

     new trust radius        =       0.0086030366 bohr
     new conv_thr            =            1.0E-10 Ry

     new unit-cell volume =    480.89679 a.u.^3 (    71.26155 Ang^3 )
     density =      7.61012 g/cm^3

CELL_PARAMETERS (alat=  1.88972599)
   1.646781404   1.623943021   4.926845944
  -1.646781404   4.926845944   1.623943021
  -1.646781404  -4.926845944  -1.623943021

ATOMIC_POSITIONS (angstrom)
Ti      -1.646781404   1.637697241   1.637697241
Nb      -1.646781404  -1.629786389   1.673116534
Nb      -1.646781404   1.602277949   4.905180872
Nb      -0.000000000  -0.013754220   3.289148703


     NEW-OLD atomic charge density approx. for the potential
     extrapolated charge   50.88766, renormalised to   51.00000

     total cpu time spent up to now is     4231.9 secs

     Self-consistent Calculation

     iteration #  1     ecut=    50.00 Ry     beta= 0.60
     Davidson diagonalization with overlap
     ethr =  1.00E-06,  avg # of iterations =  4.1

     total cpu time spent up to now is     4289.4 secs

     total energy              =    -470.44496102 Ry
     Harris-Foulkes estimate   =    -470.58540462 Ry
     estimated scf accuracy    <       0.00086242 Ry

     iteration #  2     ecut=    50.00 Ry     beta= 0.60
     Davidson diagonalization with overlap
     ethr =  1.69E-06,  avg # of iterations =  6.3

     total cpu time spent up to now is     4350.2 secs

     total energy              =    -470.44484927 Ry
     Harris-Foulkes estimate   =    -470.44763514 Ry
     estimated scf accuracy    <       0.01708259 Ry

     iteration #  3     ecut=    50.00 Ry     beta= 0.60
     Davidson diagonalization with overlap
     ethr =  1.69E-06,  avg # of iterations =  5.2

     total cpu time spent up to now is     4400.5 secs

     total energy              =    -470.44598844 Ry
     Harris-Foulkes estimate   =    -470.44622158 Ry
     estimated scf accuracy    <       0.00063812 Ry

     iteration #  4     ecut=    50.00 Ry     beta= 0.60
     Davidson diagonalization with overlap
     ethr =  1.25E-06,  avg # of iterations =  2.1

     total cpu time spent up to now is     4432.9 secs

     total energy              =    -470.44603702 Ry
     Harris-Foulkes estimate   =    -470.44606786 Ry
     estimated scf accuracy    <       0.00030361 Ry

     iteration #  5     ecut=    50.00 Ry     beta= 0.60
     Davidson diagonalization with overlap
     ethr =  5.95E-07,  avg # of iterations =  1.5

     total cpu time spent up to now is     4463.6 secs

     total energy              =    -470.44601436 Ry
     Harris-Foulkes estimate   =    -470.44604872 Ry
     estimated scf accuracy    <       0.00022116 Ry

     iteration #  6     ecut=    50.00 Ry     beta= 0.60
     Davidson diagonalization with overlap
     ethr =  4.34E-07,  avg # of iterations =  1.0

     total cpu time spent up to now is     4493.7 secs

     total energy              =    -470.44599607 Ry
     Harris-Foulkes estimate   =    -470.44602022 Ry
     estimated scf accuracy    <       0.00009637 Ry

     iteration #  7     ecut=    50.00 Ry     beta= 0.60
     Davidson diagonalization with overlap
     ethr =  1.89E-07,  avg # of iterations =  2.8

     total cpu time spent up to now is     4528.5 secs

     total energy              =    -470.44600789 Ry
     Harris-Foulkes estimate   =    -470.44600810 Ry
     estimated scf accuracy    <       0.00000177 Ry

     iteration #  8     ecut=    50.00 Ry     beta= 0.60
     Davidson diagonalization with overlap
     ethr =  3.48E-09,  avg # of iterations =  4.4

     total cpu time spent up to now is     4573.5 secs

     total energy              =    -470.44600871 Ry
     Harris-Foulkes estimate   =    -470.44600881 Ry
     estimated scf accuracy    <       0.00000052 Ry

     iteration #  9     ecut=    50.00 Ry     beta= 0.60
     Davidson diagonalization with overlap
     ethr =  1.02E-09,  avg # of iterations =  1.4

     total cpu time spent up to now is     4604.0 secs

     total energy              =    -470.44600872 Ry
     Harris-Foulkes estimate   =    -470.44600874 Ry
     estimated scf accuracy    <       0.00000011 Ry

     iteration # 10     ecut=    50.00 Ry     beta= 0.60
     Davidson diagonalization with overlap
     ethr =  2.17E-10,  avg # of iterations =  4.0

     total cpu time spent up to now is     4641.4 secs

     total energy              =    -470.44600872 Ry
     Harris-Foulkes estimate   =    -470.44600874 Ry
     estimated scf accuracy    <       0.00000004 Ry

     iteration # 11     ecut=    50.00 Ry     beta= 0.60
     Davidson diagonalization with overlap
     ethr =  8.16E-11,  avg # of iterations =  3.3

     total cpu time spent up to now is     4679.9 secs

     total energy              =    -470.44600872 Ry
     Harris-Foulkes estimate   =    -470.44600872 Ry
     estimated scf accuracy    <       0.00000003 Ry

     iteration # 12     ecut=    50.00 Ry     beta= 0.60
     Davidson diagonalization with overlap
     ethr =  6.27E-11,  avg # of iterations =  1.0

     total cpu time spent up to now is     4710.1 secs

     total energy              =    -470.44600872 Ry
     Harris-Foulkes estimate   =    -470.44600872 Ry
     estimated scf accuracy    <       0.00000001 Ry

     iteration # 13     ecut=    50.00 Ry     beta= 0.60
     Davidson diagonalization with overlap
     ethr =  2.01E-11,  avg # of iterations =  2.4

     total cpu time spent up to now is     4742.5 secs

     total energy              =    -470.44600872 Ry
     Harris-Foulkes estimate   =    -470.44600872 Ry
     estimated scf accuracy    <          5.6E-10 Ry

     iteration # 14     ecut=    50.00 Ry     beta= 0.60
     Davidson diagonalization with overlap
     ethr =  1.10E-12,  avg # of iterations =  4.1

     total cpu time spent up to now is     4782.4 secs

     End of self-consistent calculation

     Number of k-points >= 100: set verbosity='high' to print the bands.

     the Fermi energy is    16.8246 ev

!    total energy              =    -470.44600872 Ry
     Harris-Foulkes estimate   =    -470.44600872 Ry
     estimated scf accuracy    <          7.6E-11 Ry

     The total energy is the sum of the following terms:

     one-electron contribution =     -89.10589996 Ry
     hartree contribution      =      69.21763683 Ry
     xc contribution           =     -69.86869494 Ry
     ewald contribution        =    -380.68907495 Ry
     smearing contrib. (-TS)   =       0.00002431 Ry

     convergence has been achieved in  14 iterations

     Forces acting on atoms (cartesian axes, Ry/au):

     atom    1 type  2   force =     0.00000000    0.00000000    0.00000000
     atom    2 type  1   force =     0.00000000    0.00591128    0.00591128
     atom    3 type  1   force =     0.00000000   -0.00591128   -0.00591128
     atom    4 type  1   force =    -0.00000000   -0.00000000    0.00000000

     Total force =     0.011823     Total SCF correction =     0.000010


     Computing stress (Cartesian axis) and pressure

          total   stress  (Ry/bohr**3)                   (kbar)     P=   -0.45
   0.00000422  -0.00000000   0.00000000          0.62     -0.00      0.00
  -0.00000000  -0.00000665  -0.00004203         -0.00     -0.98     -6.18
   0.00000000  -0.00004203  -0.00000665          0.00     -6.18     -0.98


     number of scf cycles    =   5
     number of bfgs steps    =   4

     enthalpy old            =    -470.4457952733 Ry
     enthalpy new            =    -470.4460087209 Ry

     CASE: enthalpy_new < enthalpy_old

     new trust radius        =       0.0128805681 bohr
     new conv_thr            =            1.0E-10 Ry

     new unit-cell volume =    480.40204 a.u.^3 (    71.18824 Ang^3 )
     density =      7.61796 g/cm^3

CELL_PARAMETERS (alat=  1.88972599)
   1.646715301   1.614912865   4.921704109
  -1.646715301   4.921704109   1.614912865
  -1.646715301  -4.921704109  -1.614912865

ATOMIC_POSITIONS (angstrom)
Ti      -1.646715301   1.634154243   1.634154243
Nb      -1.646715301  -1.626968135   1.679823110
Nb      -1.646715301   1.588485377   4.895276621
Nb      -0.000000000  -0.019241379   3.287549866


     NEW-OLD atomic charge density approx. for the potential
     extrapolated charge   50.94852, renormalised to   51.00000

     total cpu time spent up to now is     4794.3 secs

     Self-consistent Calculation

     iteration #  1     ecut=    50.00 Ry     beta= 0.60
     Davidson diagonalization with overlap
     ethr =  1.00E-06,  avg # of iterations =  4.2

     total cpu time spent up to now is     4854.4 secs

     total energy              =    -470.44605090 Ry
     Harris-Foulkes estimate   =    -470.51005987 Ry
     estimated scf accuracy    <       0.00022805 Ry

     iteration #  2     ecut=    50.00 Ry     beta= 0.60
     Davidson diagonalization with overlap
     ethr =  4.47E-07,  avg # of iterations =  4.8

     total cpu time spent up to now is     4907.7 secs

     total energy              =    -470.44605306 Ry
     Harris-Foulkes estimate   =    -470.44648184 Ry
     estimated scf accuracy    <       0.00176106 Ry

     iteration #  3     ecut=    50.00 Ry     beta= 0.60
     Davidson diagonalization with overlap
     ethr =  4.47E-07,  avg # of iterations =  4.3

     total cpu time spent up to now is     4950.1 secs

     total energy              =    -470.44623179 Ry
     Harris-Foulkes estimate   =    -470.44632923 Ry
     estimated scf accuracy    <       0.00043726 Ry

     iteration #  4     ecut=    50.00 Ry     beta= 0.60
     Davidson diagonalization with overlap
     ethr =  4.47E-07,  avg # of iterations =  3.0

     total cpu time spent up to now is     4984.9 secs

     total energy              =    -470.44627275 Ry
     Harris-Foulkes estimate   =    -470.44628263 Ry
     estimated scf accuracy    <       0.00011106 Ry

     iteration #  5     ecut=    50.00 Ry     beta= 0.60
     Davidson diagonalization with overlap
     ethr =  2.18E-07,  avg # of iterations =  1.0

     total cpu time spent up to now is     5015.1 secs

     total energy              =    -470.44625607 Ry
     Harris-Foulkes estimate   =    -470.44627553 Ry
     estimated scf accuracy    <       0.00004776 Ry

     iteration #  6     ecut=    50.00 Ry     beta= 0.60
     Davidson diagonalization with overlap
     ethr =  9.36E-08,  avg # of iterations =  4.2

     total cpu time spent up to now is     5055.9 secs

     total energy              =    -470.44626825 Ry
     Harris-Foulkes estimate   =    -470.44627016 Ry
     estimated scf accuracy    <       0.00002562 Ry

     iteration #  7     ecut=    50.00 Ry     beta= 0.60
     Davidson diagonalization with overlap
     ethr =  5.02E-08,  avg # of iterations =  1.0

     total cpu time spent up to now is     5086.0 secs

     total energy              =    -470.44626657 Ry
     Harris-Foulkes estimate   =    -470.44626857 Ry
     estimated scf accuracy    <       0.00001317 Ry

     iteration #  8     ecut=    50.00 Ry     beta= 0.60
     Davidson diagonalization with overlap
     ethr =  2.58E-08,  avg # of iterations =  2.7

     total cpu time spent up to now is     5119.4 secs

     total energy              =    -470.44626758 Ry
     Harris-Foulkes estimate   =    -470.44626762 Ry
     estimated scf accuracy    <       0.00000020 Ry

     iteration #  9     ecut=    50.00 Ry     beta= 0.60
     Davidson diagonalization with overlap
     ethr =  3.84E-10,  avg # of iterations =  4.6

     total cpu time spent up to now is     5162.3 secs

     total energy              =    -470.44626764 Ry
     Harris-Foulkes estimate   =    -470.44626766 Ry
     estimated scf accuracy    <       0.00000003 Ry

     iteration # 10     ecut=    50.00 Ry     beta= 0.60
     Davidson diagonalization with overlap
     ethr =  6.14E-11,  avg # of iterations =  3.5

     total cpu time spent up to now is     5206.0 secs

     total energy              =    -470.44626765 Ry
     Harris-Foulkes estimate   =    -470.44626765 Ry
     estimated scf accuracy    <          4.5E-09 Ry

     iteration # 11     ecut=    50.00 Ry     beta= 0.60
     Davidson diagonalization with overlap
     ethr =  8.81E-12,  avg # of iterations =  2.4

     total cpu time spent up to now is     5238.2 secs

     total energy              =    -470.44626765 Ry
     Harris-Foulkes estimate   =    -470.44626765 Ry
     estimated scf accuracy    <          9.7E-10 Ry

     iteration # 12     ecut=    50.00 Ry     beta= 0.60
     Davidson diagonalization with overlap
     ethr =  1.90E-12,  avg # of iterations =  3.4

     total cpu time spent up to now is     5275.8 secs

     End of self-consistent calculation

     Number of k-points >= 100: set verbosity='high' to print the bands.

     the Fermi energy is    16.8439 ev

!    total energy              =    -470.44626765 Ry
     Harris-Foulkes estimate   =    -470.44626765 Ry
     estimated scf accuracy    <          1.3E-11 Ry

     The total energy is the sum of the following terms:

     one-electron contribution =     -88.96440083 Ry
     hartree contribution      =      69.18823652 Ry
     xc contribution           =     -69.87436442 Ry
     ewald contribution        =    -380.79584369 Ry
     smearing contrib. (-TS)   =       0.00010477 Ry

     convergence has been achieved in  12 iterations

     Forces acting on atoms (cartesian axes, Ry/au):

     atom    1 type  2   force =     0.00000000    0.00000000    0.00000000
     atom    2 type  1   force =     0.00000000    0.00466862    0.00466862
     atom    3 type  1   force =     0.00000000   -0.00466862   -0.00466862
     atom    4 type  1   force =     0.00000000    0.00000000   -0.00000000

     Total force =     0.009337     Total SCF correction =     0.000000


     Computing stress (Cartesian axis) and pressure

          total   stress  (Ry/bohr**3)                   (kbar)     P=    1.45
   0.00001625   0.00000000  -0.00000000          2.39      0.00     -0.00
   0.00000000   0.00000663  -0.00004072          0.00      0.98     -5.99
  -0.00000000  -0.00004072   0.00000663         -0.00     -5.99      0.98


     number of scf cycles    =   6
     number of bfgs steps    =   5

     enthalpy old            =    -470.4460087209 Ry
     enthalpy new            =    -470.4462676517 Ry

     CASE: enthalpy_new < enthalpy_old

     new trust radius        =       0.0192790534 bohr
     new conv_thr            =            1.0E-10 Ry

     new unit-cell volume =    480.26721 a.u.^3 (    71.16826 Ang^3 )
     density =      7.62010 g/cm^3

CELL_PARAMETERS (alat=  1.88972599)
   1.647360004   1.600744771   4.915596431
  -1.647360004   4.915596431   1.600744771
  -1.647360004  -4.915596431  -1.600744771

ATOMIC_POSITIONS (angstrom)
Ti      -1.647360004   1.629085301   1.629085301
Nb      -1.647360004  -1.623888766   1.690962895
Nb      -1.647360004   1.567207706   4.882059367
Nb      -0.000000000  -0.028340530   3.286511131


     NEW-OLD atomic charge density approx. for the potential
     extrapolated charge   50.98597, renormalised to   51.00000

     total cpu time spent up to now is     5288.3 secs

     Self-consistent Calculation

     iteration #  1     ecut=    50.00 Ry     beta= 0.60
     Davidson diagonalization with overlap
     ethr =  1.00E-06,  avg # of iterations =  4.8

     total cpu time spent up to now is     5352.4 secs

     total energy              =    -470.44630917 Ry
     Harris-Foulkes estimate   =    -470.46401407 Ry
     estimated scf accuracy    <       0.00043437 Ry

     iteration #  2     ecut=    50.00 Ry     beta= 0.60
     Davidson diagonalization with overlap
     ethr =  8.52E-07,  avg # of iterations =  5.2

     total cpu time spent up to now is     5403.4 secs

     total energy              =    -470.44572288 Ry
     Harris-Foulkes estimate   =    -470.44740285 Ry
     estimated scf accuracy    <       0.00923248 Ry

     iteration #  3     ecut=    50.00 Ry     beta= 0.60
     Davidson diagonalization with overlap
     ethr =  8.52E-07,  avg # of iterations =  4.8

     total cpu time spent up to now is     5452.3 secs

     total energy              =    -470.44653977 Ry
     Harris-Foulkes estimate   =    -470.44660369 Ry
     estimated scf accuracy    <       0.00032803 Ry

     iteration #  4     ecut=    50.00 Ry     beta= 0.60
     Davidson diagonalization with overlap
     ethr =  6.43E-07,  avg # of iterations =  2.3

     total cpu time spent up to now is     5484.3 secs

     total energy              =    -470.44656664 Ry
     Harris-Foulkes estimate   =    -470.44657920 Ry
     estimated scf accuracy    <       0.00005588 Ry

     iteration #  5     ecut=    50.00 Ry     beta= 0.60
     Davidson diagonalization with overlap
     ethr =  1.10E-07,  avg # of iterations =  3.4

     total cpu time spent up to now is     5520.8 secs

     total energy              =    -470.44657575 Ry
     Harris-Foulkes estimate   =    -470.44657612 Ry
     estimated scf accuracy    <       0.00000210 Ry

     iteration #  6     ecut=    50.00 Ry     beta= 0.60
     Davidson diagonalization with overlap
     ethr =  4.12E-09,  avg # of iterations =  4.0

     total cpu time spent up to now is     5560.3 secs

     total energy              =    -470.44657632 Ry
     Harris-Foulkes estimate   =    -470.44657634 Ry
     estimated scf accuracy    <       0.00000019 Ry

     iteration #  7     ecut=    50.00 Ry     beta= 0.60
     Davidson diagonalization with overlap
     ethr =  3.74E-10,  avg # of iterations =  2.4

     total cpu time spent up to now is     5594.8 secs

     total energy              =    -470.44657634 Ry
     Harris-Foulkes estimate   =    -470.44657634 Ry
     estimated scf accuracy    <       0.00000004 Ry

     iteration #  8     ecut=    50.00 Ry     beta= 0.60
     Davidson diagonalization with overlap
     ethr =  8.71E-11,  avg # of iterations =  3.5

     total cpu time spent up to now is     5631.6 secs

     total energy              =    -470.44657634 Ry
     Harris-Foulkes estimate   =    -470.44657634 Ry
     estimated scf accuracy    <          7.6E-09 Ry

     iteration #  9     ecut=    50.00 Ry     beta= 0.60
     Davidson diagonalization with overlap
     ethr =  1.49E-11,  avg # of iterations =  2.2

     total cpu time spent up to now is     5664.3 secs

     total energy              =    -470.44657634 Ry
     Harris-Foulkes estimate   =    -470.44657634 Ry
     estimated scf accuracy    <          1.1E-09 Ry

     iteration # 10     ecut=    50.00 Ry     beta= 0.60
     Davidson diagonalization with overlap
     ethr =  2.22E-12,  avg # of iterations =  3.7

     total cpu time spent up to now is     5703.7 secs

     total energy              =    -470.44657634 Ry
     Harris-Foulkes estimate   =    -470.44657634 Ry
     estimated scf accuracy    <          3.6E-10 Ry

     iteration # 11     ecut=    50.00 Ry     beta= 0.60
     Davidson diagonalization with overlap
     ethr =  7.09E-13,  avg # of iterations =  1.3

     total cpu time spent up to now is     5734.1 secs

     End of self-consistent calculation

     Number of k-points >= 100: set verbosity='high' to print the bands.

     the Fermi energy is    16.8490 ev

!    total energy              =    -470.44657634 Ry
     Harris-Foulkes estimate   =    -470.44657634 Ry
     estimated scf accuracy    <          4.1E-11 Ry

     The total energy is the sum of the following terms:

     one-electron contribution =     -88.99446295 Ry
     hartree contribution      =      69.21401240 Ry
     xc contribution           =     -69.87787643 Ry
     ewald contribution        =    -380.78846384 Ry
     smearing contrib. (-TS)   =       0.00021447 Ry

     convergence has been achieved in  11 iterations

     Forces acting on atoms (cartesian axes, Ry/au):

     atom    1 type  2   force =     0.00000000    0.00000000    0.00000000
     atom    2 type  1   force =     0.00000000    0.00281409    0.00281409
     atom    3 type  1   force =     0.00000000   -0.00281409   -0.00281409
     atom    4 type  1   force =     0.00000000    0.00000000    0.00000000

     Total force =     0.005628     Total SCF correction =     0.000004


     Computing stress (Cartesian axis) and pressure

          total   stress  (Ry/bohr**3)                   (kbar)     P=    2.39
   0.00002117  -0.00000000   0.00000000          3.11     -0.00      0.00
   0.00000000   0.00001381  -0.00003762          0.00      2.03     -5.53
  -0.00000000  -0.00003762   0.00001381         -0.00     -5.53      2.03


     number of scf cycles    =   7
     number of bfgs steps    =   6

     enthalpy old            =    -470.4462676517 Ry
     enthalpy new            =    -470.4465763424 Ry

     CASE: enthalpy_new < enthalpy_old

     new trust radius        =       0.0288288782 bohr
     new conv_thr            =            1.0E-10 Ry

     new unit-cell volume =    480.56867 a.u.^3 (    71.21293 Ang^3 )
     density =      7.61532 g/cm^3

CELL_PARAMETERS (alat=  1.88972599)
   1.649006268   1.577242900   4.907176380
  -1.649006268   4.907176380   1.577242900
  -1.649006268  -4.907176380  -1.577242900

ATOMIC_POSITIONS (angstrom)
Ti      -1.649006268   1.621104820   1.621104820
Nb      -1.649006268  -1.620859481   1.709073998
Nb      -1.649006268   1.533135642   4.863069121
Nb      -0.000000000  -0.043861920   3.286071560


     NEW-OLD atomic charge density approx. for the potential
     extrapolated charge   51.03136, renormalised to   51.00000

     total cpu time spent up to now is     5746.8 secs

     Self-consistent Calculation

     iteration #  1     ecut=    50.00 Ry     beta= 0.60
     Davidson diagonalization with overlap
     ethr =  1.00E-06,  avg # of iterations =  6.5

[...]
     ethr =  1.00E-13,  avg # of iterations =  4.8

     total cpu time spent up to now is    11259.1 secs

     total energy              =    -470.44697682 Ry
     Harris-Foulkes estimate   =    -470.44697682 Ry
     estimated scf accuracy    <          8.5E-12 Ry

     iteration #  4     ecut=    50.00 Ry     beta= 0.60
     Davidson diagonalization with overlap
     ethr =  1.00E-13,  avg # of iterations =  1.0

     total cpu time spent up to now is    11288.8 secs

     End of self-consistent calculation

     Number of k-points >= 100: set verbosity='high' to print the bands.

     the Fermi energy is    16.8101 ev

!    total energy              =    -470.44697682 Ry
     Harris-Foulkes estimate   =    -470.44697682 Ry
     estimated scf accuracy    <          5.3E-13 Ry

     The total energy is the sum of the following terms:

     one-electron contribution =     -89.67402498 Ry
     hartree contribution      =      69.46111753 Ry
     xc contribution           =     -69.87602096 Ry
     ewald contribution        =    -380.35836312 Ry
     smearing contrib. (-TS)   =       0.00031471 Ry

     convergence has been achieved in   4 iterations

     Forces acting on atoms (cartesian axes, Ry/au):

     atom    1 type  2   force =     0.00000000    0.00000000    0.00000000
     atom    2 type  1   force =     0.00000000    0.00000373    0.00000373
     atom    3 type  1   force =     0.00000000   -0.00000373   -0.00000373
     atom    4 type  1   force =     0.00000000    0.00000000   -0.00000000

     Total force =     0.000007     Total SCF correction =     0.000001
     SCF correction compared to forces is large: reduce conv_thr to get better values


     Computing stress (Cartesian axis) and pressure

          total   stress  (Ry/bohr**3)                   (kbar)     P=    0.01
  -0.00000042   0.00000000  -0.00000000         -0.06      0.00     -0.00
   0.00000000   0.00000027  -0.00000003          0.00      0.04     -0.00
  -0.00000000  -0.00000003   0.00000027         -0.00     -0.00      0.04


     bfgs converged in  19 scf cycles and  16 bfgs steps
     (criteria: energy <  1.0E-10 Ry, force <  1.0E-05Ry/Bohr, cell <  1.0E-03kbar)

     End of BFGS Geometry Optimization

     Final enthalpy =    -470.4469768205 Ry
Begin final coordinates
     new unit-cell volume =    481.36106 a.u.^3 (    71.33035 Ang^3 )
     density =      7.60278 g/cm^3

CELL_PARAMETERS (alat=  1.88972599)
   1.650357207   1.536698500   4.896123554
  -1.650357207   4.896123554   1.536698500
  -1.650357207  -4.896123554  -1.536698500

ATOMIC_POSITIONS (angstrom)
Ti      -1.650357207   1.608205514   1.608205514
Nb      -1.650357207  -1.634914667   1.724510387
Nb      -1.650357207   1.491900640   4.851325694
Nb      -0.000000000  -0.071507013   3.287918041
End final coordinates



     A final scf calculation at the relaxed structure.
     The G-vectors are recalculated for the final unit cell
     Results may differ from those at the preceding step.
 
     Parallelization info
     --------------------
     sticks:   dense  smooth     PW     G-vecs:    dense   smooth      PW
     Min         932     372    120                22706     5744    1062
     Max         934     374    121                22707     5745    1063
     Sum        3731    1491    481                90825    22977    4249
 


     bravais-lattice index     =            0
     lattice parameter (alat)  =       1.8897  a.u.
     unit-cell volume          =     481.3611 (a.u.)^3
     number of atoms/cell      =            4
     number of atomic types    =            2
     number of electrons       =        51.00
     number of Kohn-Sham states=           31
     kinetic-energy cutoff     =      50.0000  Ry
     charge density cutoff     =     500.0000  Ry
     convergence threshold     =      1.0E-12
     mixing beta               =       0.6000
     number of iterations used =            8  plain     mixing
     Exchange-correlation      = SLA PW PBE PBE ( 1  4  3  4 0 0)

     celldm(1)=   1.889726  celldm(2)=   0.000000  celldm(3)=   0.000000
     celldm(4)=   0.000000  celldm(5)=   0.000000  celldm(6)=   0.000000

     crystal axes: (cart. coord. in units of alat)
               a(1) = (   1.650357   1.536699   4.896124 )  
               a(2) = (  -1.650357   4.896124   1.536699 )  
               a(3) = (  -1.650357  -4.896124  -1.536699 )  

     reciprocal axes: (cart. coord. in units 2 pi/alat)
               b(1) = (  0.000000 -0.071109  0.226561 )  
               b(2) = ( -0.302965  0.077726  0.077726 )  
               b(3) = ( -0.302965 -0.148835  0.148835 )  


     PseudoPot. # 1 for Nb read from file:
     ./Nb.pbe-nsp-van.UPF
     MD5 check sum: 0a22fc7fb0ba19a08ca5db297a5d2854
     Pseudo is Ultrasoft + core correction, Zval = 13.0
     Generated by new atomic code, or converted to UPF format
     Using radial grid of  887 points,  6 beta functions with: 
                l(1) =   0
                l(2) =   0
                l(3) =   1
                l(4) =   1
                l(5) =   2
                l(6) =   2
     Q(r) pseudized with  6 coefficients,  rinner =    1.000   1.000   1.000
                                                       1.000   1.000

     PseudoPot. # 2 for Ti read from file:
     ./Ti.pbe-sp-van_ak.UPF
     MD5 check sum: f98fea3e8887528921fefa5636a534ca
     Pseudo is Ultrasoft, Zval = 12.0
     Generated by new atomic code, or converted to UPF format
     Using radial grid of  851 points,  6 beta functions with: 
                l(1) =   0
                l(2) =   0
                l(3) =   1
                l(4) =   1
                l(5) =   2
                l(6) =   2
     Q(r) pseudized with  8 coefficients,  rinner =    1.000   1.000   1.000
                                                       1.000   1.000

     atomic species   valence    mass     pseudopotential
        Nb            13.00    92.90638     Nb( 1.00)
        Ti            12.00    47.86700     Ti( 1.00)

      8 Sym. Ops., with inversion, found ( 4 have fractional translation)



   Cartesian axes

     site n.     atom                  positions (alat units)
         1           Ti  tau(   1) = (  -1.6503573   1.6082056   1.6082056  )
         2           Nb  tau(   2) = (  -1.6503573  -1.6349148   1.7245105  )
         3           Nb  tau(   3) = (  -1.6503573   1.4919008   4.8513261  )
         4           Nb  tau(   4) = (  -0.0000000  -0.0715070   3.2879183  )

     number of k points=   343  Marzari-Vanderbilt smearing, width (Ry)=  0.0200

     Number of k-points >= 100: set verbosity='high' to print them.

     Dense  grid:    90825 G-vectors     FFT dimensions: (  75,  75,  75)

     Smooth grid:    22977 G-vectors     FFT dimensions: (  45,  45,  45)

     Estimated max dynamical RAM per process >     207.20 MB

     Estimated total dynamical RAM >     828.78 MB

     Initial potential from superposition of free atoms

     starting charge   49.99176, renormalised to   51.00000
     Starting wfcs are   49 randomized atomic wfcs

     total cpu time spent up to now is    11313.2 secs

     Self-consistent Calculation

     iteration #  1     ecut=    50.00 Ry     beta= 0.60
     Davidson diagonalization with overlap
     ethr =  1.00E-06,  avg # of iterations = 10.5

     total cpu time spent up to now is    11387.1 secs

     total energy              =    -457.84586808 Ry
     Harris-Foulkes estimate   =    -471.91074674 Ry
     estimated scf accuracy    <      17.69465170 Ry

     iteration #  2     ecut=    50.00 Ry     beta= 0.60
     Davidson diagonalization with overlap
     ethr =  1.00E-02,  avg # of iterations =  6.1

     total cpu time spent up to now is    11434.5 secs

     total energy              =    -458.36587648 Ry
     Harris-Foulkes estimate   =    -487.96787487 Ry
     estimated scf accuracy    <      94.99405915 Ry

     iteration #  3     ecut=    50.00 Ry     beta= 0.60
     Davidson diagonalization with overlap
     ethr =  1.00E-02,  avg # of iterations =  4.2

     total cpu time spent up to now is    11471.7 secs

     total energy              =    -470.81687685 Ry
     Harris-Foulkes estimate   =    -472.46616228 Ry
     estimated scf accuracy    <      11.08932737 Ry

     iteration #  4     ecut=    50.00 Ry     beta= 0.60
     Davidson diagonalization with overlap
     ethr =  1.00E-02,  avg # of iterations =  2.0

     total cpu time spent up to now is    11496.2 secs

     total energy              =    -471.21639506 Ry
     Harris-Foulkes estimate   =    -471.34638100 Ry
     estimated scf accuracy    <       3.78356558 Ry

     iteration #  5     ecut=    50.00 Ry     beta= 0.60
     Davidson diagonalization with overlap
     ethr =  7.42E-03,  avg # of iterations =  1.0

     total cpu time spent up to now is    11519.6 secs

     total energy              =    -470.42558246 Ry
     Harris-Foulkes estimate   =    -471.23723092 Ry
     estimated scf accuracy    <       3.49054137 Ry

     iteration #  6     ecut=    50.00 Ry     beta= 0.60
     Davidson diagonalization with overlap
     ethr =  6.84E-03,  avg # of iterations =  1.9

     total cpu time spent up to now is    11543.9 secs

     total energy              =    -470.25250313 Ry
     Harris-Foulkes estimate   =    -470.52771673 Ry
     estimated scf accuracy    <       1.46316103 Ry

     iteration #  7     ecut=    50.00 Ry     beta= 0.60
     Davidson diagonalization with overlap
     ethr =  2.87E-03,  avg # of iterations =  4.1

     total cpu time spent up to now is    11575.4 secs

     total energy              =    -470.44000118 Ry
     Harris-Foulkes estimate   =    -470.45380642 Ry
     estimated scf accuracy    <       0.03588725 Ry

     iteration #  8     ecut=    50.00 Ry     beta= 0.60
     Davidson diagonalization with overlap
     ethr =  7.04E-05,  avg # of iterations =  5.9

     total cpu time spent up to now is    11612.5 secs

     total energy              =    -470.43557704 Ry
     Harris-Foulkes estimate   =    -470.45627506 Ry
     estimated scf accuracy    <       0.08897608 Ry

     iteration #  9     ecut=    50.00 Ry     beta= 0.60
     Davidson diagonalization with overlap
     ethr =  7.04E-05,  avg # of iterations =  5.0

     total cpu time spent up to now is    11645.9 secs

     total energy              =    -470.43754628 Ry
     Harris-Foulkes estimate   =    -470.44948755 Ry
     estimated scf accuracy    <       0.02700694 Ry

     iteration # 10     ecut=    50.00 Ry     beta= 0.60
     Davidson diagonalization with overlap
     ethr =  5.30E-05,  avg # of iterations =  5.7

     total cpu time spent up to now is    11683.5 secs

     total energy              =    -470.45312395 Ry
     Harris-Foulkes estimate   =    -470.45835981 Ry
     estimated scf accuracy    <       0.12333656 Ry

     iteration # 11     ecut=    50.00 Ry     beta= 0.60
     Davidson diagonalization with overlap
     ethr =  5.30E-05,  avg # of iterations =  1.0

     total cpu time spent up to now is    11707.0 secs

     total energy              =    -470.44233637 Ry
     Harris-Foulkes estimate   =    -470.45353617 Ry
     estimated scf accuracy    <       0.09168675 Ry

     iteration # 12     ecut=    50.00 Ry     beta= 0.60
     Davidson diagonalization with overlap
     ethr =  5.30E-05,  avg # of iterations =  4.6

     total cpu time spent up to now is    11738.5 secs

     total energy              =    -470.44588847 Ry
     Harris-Foulkes estimate   =    -470.44690401 Ry
     estimated scf accuracy    <       0.00529960 Ry

     iteration # 13     ecut=    50.00 Ry     beta= 0.60
     Davidson diagonalization with overlap
     ethr =  1.04E-05,  avg # of iterations =  4.1

     total cpu time spent up to now is    11766.4 secs

     total energy              =    -470.44643213 Ry
     Harris-Foulkes estimate   =    -470.44646800 Ry
     estimated scf accuracy    <       0.00020633 Ry

     iteration # 14     ecut=    50.00 Ry     beta= 0.60
     Davidson diagonalization with overlap
     ethr =  4.05E-07,  avg # of iterations =  5.4

     total cpu time spent up to now is    11803.2 secs

     total energy              =    -470.44644867 Ry
     Harris-Foulkes estimate   =    -470.44652780 Ry
     estimated scf accuracy    <       0.00051549 Ry

     iteration # 15     ecut=    50.00 Ry     beta= 0.60
     Davidson diagonalization with overlap
     ethr =  4.05E-07,  avg # of iterations =  3.3

     total cpu time spent up to now is    11829.0 secs

     total energy              =    -470.44647780 Ry
     Harris-Foulkes estimate   =    -470.44648025 Ry
     estimated scf accuracy    <       0.00001332 Ry

     iteration # 16     ecut=    50.00 Ry     beta= 0.60
     Davidson diagonalization with overlap
     ethr =  2.61E-08,  avg # of iterations =  4.1

     total cpu time spent up to now is    11860.9 secs

     total energy              =    -470.44648310 Ry
     Harris-Foulkes estimate   =    -470.44648347 Ry
     estimated scf accuracy    <       0.00000200 Ry

     iteration # 17     ecut=    50.00 Ry     beta= 0.60
     Davidson diagonalization with overlap
     ethr =  3.91E-09,  avg # of iterations =  2.5

     total cpu time spent up to now is    11885.6 secs

     total energy              =    -470.44648328 Ry
     Harris-Foulkes estimate   =    -470.44648328 Ry
     estimated scf accuracy    <       0.00000002 Ry

     iteration # 18     ecut=    50.00 Ry     beta= 0.60
     Davidson diagonalization with overlap
     ethr =  3.58E-11,  avg # of iterations =  5.0

     total cpu time spent up to now is    11923.8 secs

     total energy              =    -470.44648331 Ry
     Harris-Foulkes estimate   =    -470.44648332 Ry
     estimated scf accuracy    <       0.00000003 Ry

     iteration # 19     ecut=    50.00 Ry     beta= 0.60
     Davidson diagonalization with overlap
     ethr =  3.58E-11,  avg # of iterations =  3.5

     total cpu time spent up to now is    11951.6 secs

     total energy              =    -470.44648331 Ry
     Harris-Foulkes estimate   =    -470.44648331 Ry
     estimated scf accuracy    <          1.9E-09 Ry

     iteration # 20     ecut=    50.00 Ry     beta= 0.60
     Davidson diagonalization with overlap
     ethr =  3.73E-12,  avg # of iterations =  3.8

     total cpu time spent up to now is    11980.7 secs

     total energy              =    -470.44648331 Ry
     Harris-Foulkes estimate   =    -470.44648331 Ry
     estimated scf accuracy    <          8.5E-10 Ry

     iteration # 21     ecut=    50.00 Ry     beta= 0.60
     Davidson diagonalization with overlap
     ethr =  1.66E-12,  avg # of iterations =  1.2

     total cpu time spent up to now is    12003.7 secs

     total energy              =    -470.44648331 Ry
     Harris-Foulkes estimate   =    -470.44648331 Ry
     estimated scf accuracy    <          1.2E-10 Ry

     iteration # 22     ecut=    50.00 Ry     beta= 0.60
     Davidson diagonalization with overlap
     ethr =  2.27E-13,  avg # of iterations =  4.0

     total cpu time spent up to now is    12034.2 secs

     total energy              =    -470.44648331 Ry
     Harris-Foulkes estimate   =    -470.44648331 Ry
     estimated scf accuracy    <          4.6E-11 Ry

     iteration # 23     ecut=    50.00 Ry     beta= 0.60
     Davidson diagonalization with overlap
     ethr =  1.00E-13,  avg # of iterations =  1.1

     total cpu time spent up to now is    12057.1 secs

     total energy              =    -470.44648331 Ry
     Harris-Foulkes estimate   =    -470.44648331 Ry
     estimated scf accuracy    <          4.9E-12 Ry

     iteration # 24     ecut=    50.00 Ry     beta= 0.60
     Davidson diagonalization with overlap
     ethr =  1.00E-13,  avg # of iterations =  1.4

     total cpu time spent up to now is    12080.3 secs

     End of self-consistent calculation

     Number of k-points >= 100: set verbosity='high' to print the bands.

     the Fermi energy is    16.8103 ev

!    total energy              =    -470.44648331 Ry
     Harris-Foulkes estimate   =    -470.44648331 Ry
     estimated scf accuracy    <          4.6E-14 Ry

     The total energy is the sum of the following terms:

     one-electron contribution =     -89.67381410 Ry
     hartree contribution      =      69.46122073 Ry
     xc contribution           =     -69.87584147 Ry
     ewald contribution        =    -380.35836312 Ry
     smearing contrib. (-TS)   =       0.00031465 Ry

     convergence has been achieved in  24 iterations

     Forces acting on atoms (cartesian axes, Ry/au):

     atom    1 type  2   force =     0.00000000    0.00000000    0.00000000
     atom    2 type  1   force =     0.00000000    0.00001181    0.00001181
     atom    3 type  1   force =     0.00000000   -0.00001181   -0.00001181
     atom    4 type  1   force =     0.00000000    0.00000000    0.00000000

     Total force =     0.000024     Total SCF correction =     0.000000


     Computing stress (Cartesian axis) and pressure

          total   stress  (Ry/bohr**3)                   (kbar)     P=   -1.30
  -0.00000938   0.00000000  -0.00000000         -1.38      0.00     -0.00
   0.00000000  -0.00000854  -0.00000006          0.00     -1.26     -0.01
  -0.00000000  -0.00000006  -0.00000854         -0.00     -0.01     -1.26

 
     init_run     :     32.33s CPU     32.86s WALL (       2 calls)
     electrons    :  11623.52s CPU  11819.54s WALL (      20 calls)
     update_pot   :     26.39s CPU     26.61s WALL (      18 calls)
     forces       :     52.18s CPU     54.29s WALL (      20 calls)
     stress       :    141.59s CPU    147.43s WALL (      20 calls)

     Called by init_run:
     wfcinit      :     30.13s CPU     30.55s WALL (       2 calls)
     potinit      :      0.66s CPU      0.68s WALL (       2 calls)
     hinit0       :      1.21s CPU      1.22s WALL (       2 calls)

     Called by electrons:
     c_bands      :   9703.67s CPU   9824.65s WALL (     311 calls)
     sum_band     :   1840.68s CPU   1887.72s WALL (     311 calls)
     v_of_rho     :     21.20s CPU     21.44s WALL (     323 calls)
     newd         :     59.19s CPU     87.79s WALL (     323 calls)
     mix_rho      :      2.11s CPU      2.12s WALL (     311 calls)

     Called by c_bands:
     init_us_2    :    117.63s CPU    117.91s WALL (  227752 calls)
     cegterg      :   9111.93s CPU   9224.84s WALL (  106673 calls)

     Called by sum_band:
     sum_band:bec :      2.55s CPU      2.29s WALL (  106673 calls)
     addusdens    :     65.30s CPU     91.10s WALL (     311 calls)

     Called by *egterg:
     h_psi        :   7519.35s CPU   7625.87s WALL (  449565 calls)
     s_psi        :    158.00s CPU    157.81s WALL (  449565 calls)
     g_psi        :     37.16s CPU     37.71s WALL (  342206 calls)
     cdiaghg      :    830.20s CPU    834.17s WALL (  439961 calls)

     Called by h_psi:
     h_psi:pot    :   7507.36s CPU   7613.41s WALL (  449565 calls)
     h_psi:calbec :    172.25s CPU    174.93s WALL (  449565 calls)
     vloc_psi     :   7176.10s CPU   7278.25s WALL (  449565 calls)
     add_vuspsi   :    157.28s CPU    157.84s WALL (  449565 calls)

     General routines
     calbec       :    252.36s CPU    255.40s WALL (  590538 calls)
     fft          :     14.89s CPU     15.27s WALL (    4705 calls)
     ffts         :      0.46s CPU      0.48s WALL (     634 calls)
     fftw         :   8011.55s CPU   8095.75s WALL (20420361 calls)
     interpolate  :      1.20s CPU      1.23s WALL (     323 calls)
 
     Parallel routines
     fft_scatt_xy :   1397.70s CPU   1433.44s WALL (20425700 calls)
     fft_scatt_yz :   1878.26s CPU   1893.75s WALL (20425700 calls)
 
     PWSCF        :     3h18m CPU       18h 3m WALL

      21h
 
   This run was terminated on:  19:35:47  23Feb2020            

=------------------------------------------------------------------------------=
   JOB DONE.
=------------------------------------------------------------------------------=
