
     Program PWSCF v.6.0 (svn rev. 13079) starts on 26Apr2018 at 11: 7:49 

     This program is part of the open-source Quantum ESPRESSO suite
     for quantum simulation of materials; please cite
         "P. Giannozzi et al., J. Phys.:Condens. Matter 21 395502 (2009);
          URL http://www.quantum-espresso.org", 
     in publications or presentations arising from this work. More details at
     http://www.quantum-espresso.org/quote

     Parallel version (MPI), running on     4 processors
     R & G space division:  proc/nbgrp/npool/nimage =       4
     Waiting for input...
     Reading input from standard input

     Current dimensions of program PWSCF are:
     Max number of different atomic species (ntypx) = 10
     Max number of k-points (npk) =  40000
     Max angular momentum in pseudopotentials (lmaxx) =  3

     Subspace diagonalization in iterative solution of the eigenvalue problem:
     a serial algorithm will be used


     Parallelization info
     --------------------
     sticks:   dense  smooth     PW     G-vecs:    dense   smooth      PW
     Min         311     121     40                13871     3495     640
     Max         312     122     44                13874     3500     641
     Sum        1247     487    165                55493    13993    2561



     bravais-lattice index     =            0
     lattice parameter (alat)  =       1.8897  a.u.
     unit-cell volume          =     293.3367 (a.u.)^3
     number of atoms/cell      =            2
     number of atomic types    =            2
     number of electrons       =        25.00
     number of Kohn-Sham states=           17
     kinetic-energy cutoff     =      50.0000  Ry
     charge density cutoff     =     500.0000  Ry
     convergence threshold     =      1.0E-10
     mixing beta               =       0.6000
     number of iterations used =            8  plain     mixing
     Exchange-correlation      = SLA  PW   PBE  PBE ( 1  4  3  4 0 0)
     nstep                     =           50


     celldm(1)=   1.889726  celldm(2)=   0.000000  celldm(3)=   0.000000
     celldm(4)=   0.000000  celldm(5)=   0.000000  celldm(6)=   0.000000

     crystal axes: (cart. coord. in units of alat)
               a(1) = (  -1.758031   1.758031  -1.758031 )  
               a(2) = (  -1.758031  -1.758031   1.758031 )  
               a(3) = (   0.000000   3.516063   3.516063 )  

     reciprocal axes: (cart. coord. in units 2 pi/alat)
               b(1) = ( -0.284409  0.142205 -0.142205 )  
               b(2) = ( -0.284409 -0.142205  0.142205 )  
               b(3) = (  0.000000  0.142205  0.142205 )  


     PseudoPot. # 1 for Nb read from file:
     ./Nb.pbe-nsp-van.UPF
     MD5 check sum: 0a22fc7fb0ba19a08ca5db297a5d2854
     Pseudo is Ultrasoft + core correction, Zval = 13.0
     Generated by new atomic code, or converted to UPF format
     Using radial grid of  887 points,  6 beta functions with: 
                l(1) =   0
                l(2) =   0
                l(3) =   1
                l(4) =   1
                l(5) =   2
                l(6) =   2
     Q(r) pseudized with  6 coefficients,  rinner =    1.000   1.000   1.000
                                                       1.000   1.000

     PseudoPot. # 2 for Ti read from file:
     ./Ti.pbe-sp-van_ak.UPF
     MD5 check sum: f98fea3e8887528921fefa5636a534ca
     Pseudo is Ultrasoft, Zval = 12.0
     Generated by new atomic code, or converted to UPF format
     Using radial grid of  851 points,  6 beta functions with: 
                l(1) =   0
                l(2) =   0
                l(3) =   1
                l(4) =   1
                l(5) =   2
                l(6) =   2
     Q(r) pseudized with  8 coefficients,  rinner =    1.000   1.000   1.000
                                                       1.000   1.000

     atomic species   valence    mass     pseudopotential
        Nb            13.00    92.90638     Nb( 1.00)
        Ti            12.00    47.86700     Ti( 1.00)

      8 Sym. Ops., with inversion, found



   Cartesian axes

     site n.     atom                  positions (alat units)
         1           Ti  tau(   1) = (  -1.7580316   1.7580316   1.7580316  )
         2           Nb  tau(   2) = (  -3.5160633   3.5160633   3.5160633  )

     number of k points=   700  Marzari-Vanderbilt smearing, width (Ry)=  0.0200

     Number of k-points >= 100: set verbosity='high' to print them.

     Dense  grid:    55493 G-vectors     FFT dimensions: (  45,  45,  72)

     Smooth grid:    13993 G-vectors     FFT dimensions: (  25,  25,  45)

     Estimated max dynamical RAM per process >      88.95Mb

     Estimated total allocated dynamical RAM >     355.81Mb

     Initial potential from superposition of free atoms

     starting charge   23.99722, renormalised to   25.00000
     Starting wfc are   23 randomized atomic wfcs

     total cpu time spent up to now is       11.2 secs

     per-process dynamical memory:   159.9 Mb

     Self-consistent Calculation

     iteration #  1     ecut=    50.00 Ry     beta=0.60
     Davidson diagonalization with overlap
     ethr =  1.00E-02,  avg # of iterations =  3.0

     total cpu time spent up to now is       35.0 secs

     total energy              =    -228.93508141 Ry
     Harris-Foulkes estimate   =    -235.60711037 Ry
     estimated scf accuracy    <       8.41066373 Ry

     iteration #  2     ecut=    50.00 Ry     beta=0.60
     Davidson diagonalization with overlap
     ethr =  1.00E-02,  avg # of iterations =  5.3

     total cpu time spent up to now is       78.0 secs

     total energy              =    -234.09187538 Ry
     Harris-Foulkes estimate   =    -243.78707204 Ry
     estimated scf accuracy    <      26.60433715 Ry

     iteration #  3     ecut=    50.00 Ry     beta=0.60
     Davidson diagonalization with overlap
     ethr =  1.00E-02,  avg # of iterations =  3.9

     total cpu time spent up to now is      100.6 secs

     total energy              =    -235.12543539 Ry
     Harris-Foulkes estimate   =    -235.61845568 Ry
     estimated scf accuracy    <       5.52243443 Ry

     iteration #  4     ecut=    50.00 Ry     beta=0.60
     Davidson diagonalization with overlap
     ethr =  1.00E-02,  avg # of iterations =  1.0

     total cpu time spent up to now is      115.8 secs

     total energy              =    -234.76358969 Ry
     Harris-Foulkes estimate   =    -235.15222815 Ry
     estimated scf accuracy    <       4.09042781 Ry

     iteration #  5     ecut=    50.00 Ry     beta=0.60
     Davidson diagonalization with overlap
     ethr =  1.00E-02,  avg # of iterations =  1.2

     total cpu time spent up to now is      130.4 secs

     total energy              =    -234.32804848 Ry
     Harris-Foulkes estimate   =    -234.79893649 Ry
     estimated scf accuracy    <       2.60185479 Ry

     iteration #  6     ecut=    50.00 Ry     beta=0.60
     Davidson diagonalization with overlap
     ethr =  1.00E-02,  avg # of iterations =  2.4

     total cpu time spent up to now is      146.7 secs

     total energy              =    -234.46783030 Ry
     Harris-Foulkes estimate   =    -234.48689975 Ry
     estimated scf accuracy    <       0.13796953 Ry

     iteration #  7     ecut=    50.00 Ry     beta=0.60
     Davidson diagonalization with overlap
     ethr =  5.52E-04,  avg # of iterations =  5.1

     total cpu time spent up to now is      175.0 secs

     total energy              =    -234.51049445 Ry
     Harris-Foulkes estimate   =    -234.54646539 Ry
     estimated scf accuracy    <       0.19430321 Ry

     iteration #  8     ecut=    50.00 Ry     beta=0.60
     Davidson diagonalization with overlap
     ethr =  5.52E-04,  avg # of iterations =  1.8

     total cpu time spent up to now is      190.6 secs

     total energy              =    -234.52819680 Ry
     Harris-Foulkes estimate   =    -234.53934034 Ry
     estimated scf accuracy    <       0.06377637 Ry

     iteration #  9     ecut=    50.00 Ry     beta=0.60
     Davidson diagonalization with overlap
     ethr =  2.55E-04,  avg # of iterations =  1.3

     total cpu time spent up to now is      207.1 secs

     total energy              =    -234.53374046 Ry
     Harris-Foulkes estimate   =    -234.53565459 Ry
     estimated scf accuracy    <       0.00573433 Ry

     iteration # 10     ecut=    50.00 Ry     beta=0.60
     Davidson diagonalization with overlap
     ethr =  2.29E-05,  avg # of iterations =  4.8

     total cpu time spent up to now is      229.3 secs

     total energy              =    -234.53002558 Ry
     Harris-Foulkes estimate   =    -234.53787674 Ry
     estimated scf accuracy    <       0.03239062 Ry

     iteration # 11     ecut=    50.00 Ry     beta=0.60
     Davidson diagonalization with overlap
     ethr =  2.29E-05,  avg # of iterations =  4.7

     total cpu time spent up to now is      252.4 secs

     total energy              =    -234.53414176 Ry
     Harris-Foulkes estimate   =    -234.53926152 Ry
     estimated scf accuracy    <       0.05854325 Ry

     iteration # 12     ecut=    50.00 Ry     beta=0.60
     Davidson diagonalization with overlap
     ethr =  2.29E-05,  avg # of iterations =  3.5

     total cpu time spent up to now is      268.5 secs

     total energy              =    -234.53549281 Ry
     Harris-Foulkes estimate   =    -234.53600973 Ry
     estimated scf accuracy    <       0.00337524 Ry

     iteration # 13     ecut=    50.00 Ry     beta=0.60
     Davidson diagonalization with overlap
     ethr =  1.35E-05,  avg # of iterations =  3.3

     total cpu time spent up to now is      284.7 secs

     total energy              =    -234.53591304 Ry
     Harris-Foulkes estimate   =    -234.53591366 Ry
     estimated scf accuracy    <       0.00031710 Ry

     iteration # 14     ecut=    50.00 Ry     beta=0.60
     Davidson diagonalization with overlap
     ethr =  1.27E-06,  avg # of iterations =  4.4

     total cpu time spent up to now is      304.9 secs

     total energy              =    -234.53587960 Ry
     Harris-Foulkes estimate   =    -234.53596280 Ry
     estimated scf accuracy    <       0.00073706 Ry

     iteration # 15     ecut=    50.00 Ry     beta=0.60
     Davidson diagonalization with overlap
     ethr =  1.27E-06,  avg # of iterations =  1.1

     total cpu time spent up to now is      317.8 secs

     total energy              =    -234.53590535 Ry
     Harris-Foulkes estimate   =    -234.53590898 Ry
     estimated scf accuracy    <       0.00003656 Ry

     iteration # 16     ecut=    50.00 Ry     beta=0.60
     Davidson diagonalization with overlap
     ethr =  1.46E-07,  avg # of iterations =  4.1

     total cpu time spent up to now is      335.6 secs

     total energy              =    -234.53591465 Ry
     Harris-Foulkes estimate   =    -234.53591521 Ry
     estimated scf accuracy    <       0.00000600 Ry

     iteration # 17     ecut=    50.00 Ry     beta=0.60
     Davidson diagonalization with overlap
     ethr =  2.40E-08,  avg # of iterations =  1.6

     total cpu time spent up to now is      349.0 secs

     total energy              =    -234.53591465 Ry
     Harris-Foulkes estimate   =    -234.53591484 Ry
     estimated scf accuracy    <       0.00000297 Ry

     iteration # 18     ecut=    50.00 Ry     beta=0.60
     Davidson diagonalization with overlap
     ethr =  1.19E-08,  avg # of iterations =  1.6

     total cpu time spent up to now is      362.5 secs

     total energy              =    -234.53591467 Ry
     Harris-Foulkes estimate   =    -234.53591473 Ry
     estimated scf accuracy    <       0.00000087 Ry

     iteration # 19     ecut=    50.00 Ry     beta=0.60
     Davidson diagonalization with overlap
     ethr =  3.48E-09,  avg # of iterations =  3.0

     total cpu time spent up to now is      377.7 secs

     total energy              =    -234.53591472 Ry
     Harris-Foulkes estimate   =    -234.53591472 Ry
     estimated scf accuracy    <       0.00000010 Ry

     iteration # 20     ecut=    50.00 Ry     beta=0.60
     Davidson diagonalization with overlap
     ethr =  3.91E-10,  avg # of iterations =  3.1

     total cpu time spent up to now is      393.6 secs

     total energy              =    -234.53591473 Ry
     Harris-Foulkes estimate   =    -234.53591473 Ry
     estimated scf accuracy    <       0.00000002 Ry

     iteration # 21     ecut=    50.00 Ry     beta=0.60
     Davidson diagonalization with overlap
     ethr =  7.85E-11,  avg # of iterations =  2.3

     total cpu time spent up to now is      408.0 secs

     total energy              =    -234.53591472 Ry
     Harris-Foulkes estimate   =    -234.53591473 Ry
     estimated scf accuracy    <       0.00000002 Ry

     iteration # 22     ecut=    50.00 Ry     beta=0.60
     Davidson diagonalization with overlap
     ethr =  7.85E-11,  avg # of iterations =  2.9

     total cpu time spent up to now is      423.2 secs

     total energy              =    -234.53591473 Ry
     Harris-Foulkes estimate   =    -234.53591473 Ry
     estimated scf accuracy    <          1.0E-09 Ry

     iteration # 23     ecut=    50.00 Ry     beta=0.60
     Davidson diagonalization with overlap
     ethr =  4.01E-12,  avg # of iterations =  3.4

     total cpu time spent up to now is      440.2 secs

     total energy              =    -234.53591473 Ry
     Harris-Foulkes estimate   =    -234.53591473 Ry
     estimated scf accuracy    <          2.5E-10 Ry

     iteration # 24     ecut=    50.00 Ry     beta=0.60
     Davidson diagonalization with overlap
     ethr =  9.87E-13,  avg # of iterations =  3.4

     total cpu time spent up to now is      456.6 secs

     End of self-consistent calculation

     Number of k-points >= 100: set verbosity='high' to print the bands.

     the Fermi energy is    12.1671 ev

!    total energy              =    -234.53591473 Ry
     Harris-Foulkes estimate   =    -234.53591473 Ry
     estimated scf accuracy    <          2.6E-11 Ry

     The total energy is the sum of the following terms:

     one-electron contribution =     -75.42099960 Ry
     hartree contribution      =      44.77910728 Ry
     xc contribution           =     -32.62202275 Ry
     ewald contribution        =    -171.27225879 Ry
     smearing contrib. (-TS)   =       0.00025914 Ry

     convergence has been achieved in  24 iterations

     Forces acting on atoms (Ry/au):

     atom    1 type  2   force =     0.00000000    0.00000000    0.00000000
     atom    2 type  1   force =    -0.00000000    0.00000000    0.00000000

     Total force =     0.000000     Total SCF correction =     0.000000


     entering subroutine stress ...

          total   stress  (Ry/bohr**3)                   (kbar)     P= -200.26
  -0.00135449   0.00000000   0.00000000       -199.25      0.00      0.00
   0.00000000  -0.00136475   0.00003970          0.00   -200.76      5.84
   0.00000000   0.00003970  -0.00136475          0.00      5.84   -200.76


     BFGS Geometry Optimization

     number of scf cycles    =   1
     number of bfgs steps    =   0

     enthalpy new            =    -234.5359147267 Ry

     new trust radius        =       0.1169201651 bohr
     new conv_thr            =            1.0E-10 Ry

     new unit-cell volume =    264.39459 a.u.^3 (    39.17924 Ang^3 )

CELL_PARAMETERS (alat=  1.88972599)
  -1.698500615   1.696304969  -1.696304969
  -1.698500615  -1.696304969   1.696304969
   0.000000000   3.399589027   3.399589027

ATOMIC_POSITIONS (angstrom)
Ti      -1.698500615   1.699794513   1.699794513
Nb      -3.397001230   3.399589027   3.399589027


     NEW-OLD atomic charge density approx. for the potential
     extrapolated charge   22.37313, renormalised to   25.00000

     total cpu time spent up to now is      466.6 secs

     per-process dynamical memory:   159.9 Mb

     Self-consistent Calculation

     iteration #  1     ecut=    50.00 Ry     beta=0.60
     Davidson diagonalization with overlap
     c_bands:  1 eigenvalues not converged
     c_bands:  1 eigenvalues not converged
     c_bands:  1 eigenvalues not converged
     c_bands:  1 eigenvalues not converged
     ethr =  1.00E-06,  avg # of iterations = 10.7

     total cpu time spent up to now is      517.6 secs

     total energy              =    -221.14697996 Ry
     Harris-Foulkes estimate   =    -240.21774331 Ry
     estimated scf accuracy    <      15.07956515 Ry

     iteration #  2     ecut=    50.00 Ry     beta=0.60
     Davidson diagonalization with overlap
     ethr =  1.00E-02,  avg # of iterations =  5.6

     total cpu time spent up to now is      548.1 secs

     total energy              =    -225.66470169 Ry
     Harris-Foulkes estimate   =    -254.53710594 Ry
     estimated scf accuracy    <     100.47906507 Ry

     iteration #  3     ecut=    50.00 Ry     beta=0.60
     Davidson diagonalization with overlap
     ethr =  1.00E-02,  avg # of iterations =  3.8

     total cpu time spent up to now is      571.8 secs

     total energy              =    -235.42645180 Ry
     Harris-Foulkes estimate   =    -236.75006186 Ry
     estimated scf accuracy    <       6.78286565 Ry

     iteration #  4     ecut=    50.00 Ry     beta=0.60
     Davidson diagonalization with overlap
     ethr =  1.00E-02,  avg # of iterations =  1.1

     total cpu time spent up to now is      584.9 secs

     total energy              =    -234.53433582 Ry
     Harris-Foulkes estimate   =    -235.50979135 Ry
     estimated scf accuracy    <       4.33474303 Ry

     iteration #  5     ecut=    50.00 Ry     beta=0.60
     Davidson diagonalization with overlap
     ethr =  1.00E-02,  avg # of iterations =  2.1

     total cpu time spent up to now is      599.7 secs

     total energy              =    -234.97430431 Ry
     Harris-Foulkes estimate   =    -234.74023187 Ry
     estimated scf accuracy    <       0.91240117 Ry

     iteration #  6     ecut=    50.00 Ry     beta=0.60
     Davidson diagonalization with overlap
     ethr =  3.65E-03,  avg # of iterations =  1.5

     total cpu time spent up to now is      612.9 secs

     total energy              =    -234.86597878 Ry
     Harris-Foulkes estimate   =    -235.06306688 Ry
     estimated scf accuracy    <       2.54279720 Ry

     iteration #  7     ecut=    50.00 Ry     beta=0.60
     Davidson diagonalization with overlap
     ethr =  3.65E-03,  avg # of iterations =  1.0

     total cpu time spent up to now is      625.8 secs

     total energy              =    -234.82729192 Ry
     Harris-Foulkes estimate   =    -234.87650304 Ry
     estimated scf accuracy    <       1.85510202 Ry

     iteration #  8     ecut=    50.00 Ry     beta=0.60
     Davidson diagonalization with overlap
     ethr =  3.65E-03,  avg # of iterations =  1.0

     total cpu time spent up to now is      638.5 secs

     total energy              =    -234.61594734 Ry
     Harris-Foulkes estimate   =    -234.82976838 Ry
     estimated scf accuracy    <       1.64742070 Ry

     iteration #  9     ecut=    50.00 Ry     beta=0.60
     Davidson diagonalization with overlap
     ethr =  3.65E-03,  avg # of iterations =  1.0

     total cpu time spent up to now is      651.4 secs

     total energy              =    -234.62855675 Ry
     Harris-Foulkes estimate   =    -234.64013981 Ry
     estimated scf accuracy    <       0.71290043 Ry

     iteration # 10     ecut=    50.00 Ry     beta=0.60
     Davidson diagonalization with overlap
     ethr =  2.85E-03,  avg # of iterations =  1.0

     total cpu time spent up to now is      664.2 secs

     total energy              =    -234.34987195 Ry
     Harris-Foulkes estimate   =    -234.63278306 Ry
     estimated scf accuracy    <       0.64153521 Ry

     iteration # 11     ecut=    50.00 Ry     beta=0.60
     Davidson diagonalization with overlap
     ethr =  2.57E-03,  avg # of iterations =  4.6

     total cpu time spent up to now is      687.4 secs

     total energy              =    -234.68133059 Ry
     Harris-Foulkes estimate   =    -234.80146798 Ry
     estimated scf accuracy    <       3.96131255 Ry

     iteration # 12     ecut=    50.00 Ry     beta=0.60
     Davidson diagonalization with overlap
     ethr =  2.57E-03,  avg # of iterations =  1.0

     total cpu time spent up to now is      700.3 secs

     total energy              =    -234.78678196 Ry
     Harris-Foulkes estimate   =    -234.69457411 Ry
     estimated scf accuracy    <       2.35979302 Ry

     iteration # 13     ecut=    50.00 Ry     beta=0.60
     Davidson diagonalization with overlap
     ethr =  2.57E-03,  avg # of iterations =  1.0

     total cpu time spent up to now is      713.1 secs

     total energy              =    -235.13318698 Ry
     Harris-Foulkes estimate   =    -234.79950823 Ry
     estimated scf accuracy    <       3.83927130 Ry

     iteration # 14     ecut=    50.00 Ry     beta=0.60
     Davidson diagonalization with overlap
     ethr =  2.57E-03,  avg # of iterations =  2.3

     total cpu time spent up to now is      727.4 secs

     total energy              =    -235.10115523 Ry
     Harris-Foulkes estimate   =    -235.23507014 Ry
     estimated scf accuracy    <      10.12837381 Ry

     iteration # 15     ecut=    50.00 Ry     beta=0.60
     Davidson diagonalization with overlap
     ethr =  2.57E-03,  avg # of iterations =  1.0

     total cpu time spent up to now is      740.2 secs

     total energy              =    -234.69591612 Ry
     Harris-Foulkes estimate   =    -235.11156163 Ry
     estimated scf accuracy    <       8.62130222 Ry

     iteration # 16     ecut=    50.00 Ry     beta=0.60
     Davidson diagonalization with overlap
     ethr =  2.57E-03,  avg # of iterations =  1.2

     total cpu time spent up to now is      753.3 secs

     total energy              =    -234.24770895 Ry
     Harris-Foulkes estimate   =    -234.76331173 Ry
     estimated scf accuracy    <       3.60554955 Ry

     iteration # 17     ecut=    50.00 Ry     beta=0.60
     Davidson diagonalization with overlap
     ethr =  2.57E-03,  avg # of iterations =  3.9

     total cpu time spent up to now is      770.0 secs

     total energy              =    -234.56233022 Ry
     Harris-Foulkes estimate   =    -234.57613567 Ry
     estimated scf accuracy    <       0.09718463 Ry

     iteration # 18     ecut=    50.00 Ry     beta=0.60
     Davidson diagonalization with overlap
     ethr =  3.89E-04,  avg # of iterations =  3.5

     total cpu time spent up to now is      786.8 secs

     total energy              =    -234.56915753 Ry
     Harris-Foulkes estimate   =    -234.56914687 Ry
     estimated scf accuracy    <       0.01824915 Ry

     iteration # 19     ecut=    50.00 Ry     beta=0.60
     Davidson diagonalization with overlap
     ethr =  7.30E-05,  avg # of iterations =  3.2

     total cpu time spent up to now is      802.8 secs

     total energy              =    -234.56808863 Ry
     Harris-Foulkes estimate   =    -234.56991656 Ry
     estimated scf accuracy    <       0.01532010 Ry

     iteration # 20     ecut=    50.00 Ry     beta=0.60
     Davidson diagonalization with overlap
     ethr =  6.13E-05,  avg # of iterations =  1.7

     total cpu time spent up to now is      816.3 secs

     total energy              =    -234.56869865 Ry
     Harris-Foulkes estimate   =    -234.56877190 Ry
     estimated scf accuracy    <       0.00496119 Ry

     iteration # 21     ecut=    50.00 Ry     beta=0.60
     Davidson diagonalization with overlap
     ethr =  1.98E-05,  avg # of iterations =  3.5

     total cpu time spent up to now is      833.7 secs

     total energy              =    -234.56960886 Ry
     Harris-Foulkes estimate   =    -234.56940333 Ry
     estimated scf accuracy    <       0.00332643 Ry

     iteration # 22     ecut=    50.00 Ry     beta=0.60
     Davidson diagonalization with overlap
     ethr =  1.33E-05,  avg # of iterations =  1.1

     total cpu time spent up to now is      846.7 secs

     total energy              =    -234.56853947 Ry
     Harris-Foulkes estimate   =    -234.56965214 Ry
     estimated scf accuracy    <       0.00362000 Ry

     iteration # 23     ecut=    50.00 Ry     beta=0.60
     Davidson diagonalization with overlap
     ethr =  1.33E-05,  avg # of iterations =  2.4

     total cpu time spent up to now is      861.3 secs

     total energy              =    -234.56894256 Ry
     Harris-Foulkes estimate   =    -234.56882151 Ry
     estimated scf accuracy    <       0.00238747 Ry

     iteration # 24     ecut=    50.00 Ry     beta=0.60
     Davidson diagonalization with overlap
     ethr =  9.55E-06,  avg # of iterations =  1.0

     total cpu time spent up to now is      874.2 secs

     total energy              =    -234.56841425 Ry
     Harris-Foulkes estimate   =    -234.56899274 Ry
     estimated scf accuracy    <       0.00216784 Ry

     iteration # 25     ecut=    50.00 Ry     beta=0.60
     Davidson diagonalization with overlap
     ethr =  8.67E-06,  avg # of iterations =  1.8

     total cpu time spent up to now is      887.9 secs

     total energy              =    -234.56861833 Ry
     Harris-Foulkes estimate   =    -234.56860274 Ry
     estimated scf accuracy    <       0.00022463 Ry

     iteration # 26     ecut=    50.00 Ry     beta=0.60
     Davidson diagonalization with overlap
     ethr =  8.99E-07,  avg # of iterations =  4.4

     total cpu time spent up to now is      909.4 secs

     total energy              =    -234.56864532 Ry
     Harris-Foulkes estimate   =    -234.56874656 Ry
     estimated scf accuracy    <       0.00084202 Ry

     iteration # 27     ecut=    50.00 Ry     beta=0.60
     Davidson diagonalization with overlap
     ethr =  8.99E-07,  avg # of iterations =  2.2

     total cpu time spent up to now is      923.6 secs

     total energy              =    -234.56862607 Ry
     Harris-Foulkes estimate   =    -234.56866140 Ry
     estimated scf accuracy    <       0.00029046 Ry

     iteration # 28     ecut=    50.00 Ry     beta=0.60
     Davidson diagonalization with overlap
     ethr =  8.99E-07,  avg # of iterations =  1.9

     total cpu time spent up to now is      937.6 secs

     total energy              =    -234.56862514 Ry
     Harris-Foulkes estimate   =    -234.56863855 Ry
     estimated scf accuracy    <       0.00005839 Ry

     iteration # 29     ecut=    50.00 Ry     beta=0.60
     Davidson diagonalization with overlap
     ethr =  2.34E-07,  avg # of iterations =  3.2

     total cpu time spent up to now is      953.9 secs

     total energy              =    -234.56863370 Ry
     Harris-Foulkes estimate   =    -234.56863383 Ry
     estimated scf accuracy    <       0.00000078 Ry

     iteration # 30     ecut=    50.00 Ry     beta=0.60
     Davidson diagonalization with overlap
     ethr =  3.12E-09,  avg # of iterations =  4.0

     total cpu time spent up to now is      974.5 secs

     total energy              =    -234.56863419 Ry
     Harris-Foulkes estimate   =    -234.56863420 Ry
     estimated scf accuracy    <       0.00000006 Ry

     iteration # 31     ecut=    50.00 Ry     beta=0.60
     Davidson diagonalization with overlap
     ethr =  2.55E-10,  avg # of iterations =  2.0

     total cpu time spent up to now is      988.7 secs

     total energy              =    -234.56863419 Ry
     Harris-Foulkes estimate   =    -234.56863419 Ry
     estimated scf accuracy    <          6.6E-09 Ry

     iteration # 32     ecut=    50.00 Ry     beta=0.60
     Davidson diagonalization with overlap
     ethr =  2.63E-11,  avg # of iterations =  3.6

     total cpu time spent up to now is     1005.9 secs

     End of self-consistent calculation

     Number of k-points >= 100: set verbosity='high' to print the bands.

     the Fermi energy is    13.8124 ev

!    total energy              =    -234.56863419 Ry
     Harris-Foulkes estimate   =    -234.56863419 Ry
     estimated scf accuracy    <          6.2E-11 Ry

     The total energy is the sum of the following terms:

     one-electron contribution =     -66.51555787 Ry
     hartree contribution      =      42.03868803 Ry
     xc contribution           =     -32.78572279 Ry
     ewald contribution        =    -177.30627324 Ry
     smearing contrib. (-TS)   =       0.00023167 Ry

     convergence has been achieved in  32 iterations

     Forces acting on atoms (Ry/au):

     atom    1 type  2   force =     0.00000000    0.00000000    0.00000000
     atom    2 type  1   force =     0.00000000    0.00000000    0.00000000

     Total force =     0.000000     Total SCF correction =     0.000000


     entering subroutine stress ...

          total   stress  (Ry/bohr**3)                   (kbar)     P= -124.82
  -0.00085272   0.00000000  -0.00000000       -125.44      0.00     -0.00
  -0.00000000  -0.00084645   0.00002613         -0.00   -124.52      3.84
   0.00000000   0.00002613  -0.00084645          0.00      3.84   -124.52


     number of scf cycles    =   2
     number of bfgs steps    =   1

     enthalpy old            =    -234.5359147267 Ry
     enthalpy new            =    -234.5686341941 Ry

     CASE: enthalpy_new < enthalpy_old

     new trust radius        =       0.1600252239 bohr
     new conv_thr            =            1.0E-12 Ry

     new unit-cell volume =    227.41140 a.u.^3 (    33.69889 Ang^3 )

CELL_PARAMETERS (alat=  1.88972599)
  -1.614921478   1.610668075  -1.610668075
  -1.614921478  -1.610668075   1.610668075
   0.000000000   3.238905455   3.238905455

ATOMIC_POSITIONS (angstrom)
Ti      -1.614921478   1.619452728   1.619452728
Nb      -3.229842957   3.238905455   3.238905455


     NEW-OLD atomic charge density approx. for the potential
     extrapolated charge   21.09741, renormalised to   25.00000

     total cpu time spent up to now is     1016.1 secs

     per-process dynamical memory:   161.6 Mb

     Self-consistent Calculation

     iteration #  1     ecut=    50.00 Ry     beta=0.60
     Davidson diagonalization with overlap
     ethr =  1.00E-06,  avg # of iterations = 10.4

     total cpu time spent up to now is     1067.2 secs

     total energy              =    -211.87071172 Ry
     Harris-Foulkes estimate   =    -242.04254711 Ry
     estimated scf accuracy    <      25.45247303 Ry

     iteration #  2     ecut=    50.00 Ry     beta=0.60
     Davidson diagonalization with overlap
     ethr =  1.00E-02,  avg # of iterations =  5.8

     total cpu time spent up to now is     1098.7 secs

     total energy              =    -226.21156978 Ry
     Harris-Foulkes estimate   =    -267.30111212 Ry
     estimated scf accuracy    <     131.81678020 Ry

     iteration #  3     ecut=    50.00 Ry     beta=0.60
     Davidson diagonalization with overlap
     ethr =  1.00E-02,  avg # of iterations =  4.4

     total cpu time spent up to now is     1125.9 secs

     total energy              =    -235.93609276 Ry
     Harris-Foulkes estimate   =    -238.19437374 Ry
     estimated scf accuracy    <      10.37992434 Ry

     iteration #  4     ecut=    50.00 Ry     beta=0.60
     Davidson diagonalization with overlap
     ethr =  1.00E-02,  avg # of iterations =  1.9

     total cpu time spent up to now is     1139.7 secs

     total energy              =    -234.56349480 Ry
     Harris-Foulkes estimate   =    -236.09486505 Ry
     estimated scf accuracy    <       6.07423414 Ry

     iteration #  5     ecut=    50.00 Ry     beta=0.60
     Davidson diagonalization with overlap
     ethr =  1.00E-02,  avg # of iterations =  2.3

     total cpu time spent up to now is     1155.3 secs

     total energy              =    -235.25553173 Ry
     Harris-Foulkes estimate   =    -234.86869842 Ry
     estimated scf accuracy    <       1.28488366 Ry

     iteration #  6     ecut=    50.00 Ry     beta=0.60
     Davidson diagonalization with overlap
     ethr =  5.14E-03,  avg # of iterations =  1.4

     total cpu time spent up to now is     1168.5 secs

     total energy              =    -235.01762725 Ry
     Harris-Foulkes estimate   =    -235.37832242 Ry
     estimated scf accuracy    <       3.52721352 Ry

     iteration #  7     ecut=    50.00 Ry     beta=0.60
     Davidson diagonalization with overlap
     ethr =  5.14E-03,  avg # of iterations =  1.0

     total cpu time spent up to now is     1181.3 secs

     total energy              =    -234.79824615 Ry
     Harris-Foulkes estimate   =    -235.03768672 Ry
     estimated scf accuracy    <       2.44481592 Ry

     iteration #  8     ecut=    50.00 Ry     beta=0.60
     Davidson diagonalization with overlap
     ethr =  5.14E-03,  avg # of iterations =  1.0

     total cpu time spent up to now is     1194.2 secs

     total energy              =    -234.67939174 Ry
     Harris-Foulkes estimate   =    -234.81658593 Ry
     estimated scf accuracy    <       1.52771870 Ry

     iteration #  9     ecut=    50.00 Ry     beta=0.60
     Davidson diagonalization with overlap
     ethr =  5.14E-03,  avg # of iterations =  1.0

     total cpu time spent up to now is     1207.0 secs

     total energy              =    -234.60824424 Ry
     Harris-Foulkes estimate   =    -234.69625852 Ry
     estimated scf accuracy    <       0.84924015 Ry

     iteration # 10     ecut=    50.00 Ry     beta=0.60
     Davidson diagonalization with overlap
     ethr =  3.40E-03,  avg # of iterations =  1.1

     total cpu time spent up to now is     1219.9 secs

     total energy              =    -234.40906426 Ry
     Harris-Foulkes estimate   =    -234.62188953 Ry
     estimated scf accuracy    <       0.37443667 Ry

     iteration # 11     ecut=    50.00 Ry     beta=0.60
     Davidson diagonalization with overlap
     ethr =  1.50E-03,  avg # of iterations =  4.1

     total cpu time spent up to now is     1243.5 secs

     total energy              =    -234.70559842 Ry
     Harris-Foulkes estimate   =    -234.83422437 Ry
     estimated scf accuracy    <       3.64379908 Ry

     iteration # 12     ecut=    50.00 Ry     beta=0.60
     Davidson diagonalization with overlap
     ethr =  1.50E-03,  avg # of iterations =  1.0

     total cpu time spent up to now is     1256.4 secs

     total energy              =    -234.67695428 Ry
     Harris-Foulkes estimate   =    -234.71950361 Ry
     estimated scf accuracy    <       2.15687276 Ry

     iteration # 13     ecut=    50.00 Ry     beta=0.60
     Davidson diagonalization with overlap
     ethr =  1.50E-03,  avg # of iterations =  1.0

     total cpu time spent up to now is     1269.2 secs

     total energy              =    -234.69109802 Ry
     Harris-Foulkes estimate   =    -234.68119447 Ry
     estimated scf accuracy    <       1.56909044 Ry

     iteration # 14     ecut=    50.00 Ry     beta=0.60
     Davidson diagonalization with overlap
     ethr =  1.50E-03,  avg # of iterations =  1.0

     total cpu time spent up to now is     1282.0 secs

     total energy              =    -234.80269249 Ry
     Harris-Foulkes estimate   =    -234.69219524 Ry
     estimated scf accuracy    <       1.64499318 Ry

     iteration # 15     ecut=    50.00 Ry     beta=0.60
     Davidson diagonalization with overlap
     ethr =  1.50E-03,  avg # of iterations =  1.0

     total cpu time spent up to now is     1294.8 secs

     total energy              =    -234.89599938 Ry
     Harris-Foulkes estimate   =    -234.82364222 Ry
     estimated scf accuracy    <       3.33635443 Ry

     iteration # 16     ecut=    50.00 Ry     beta=0.60
     Davidson diagonalization with overlap
     ethr =  1.50E-03,  avg # of iterations =  1.0

     total cpu time spent up to now is     1307.6 secs

     total energy              =    -234.39786233 Ry
     Harris-Foulkes estimate   =    -234.90370421 Ry
     estimated scf accuracy    <       4.46596069 Ry

     iteration # 17     ecut=    50.00 Ry     beta=0.60
     Davidson diagonalization with overlap
     ethr =  1.50E-03,  avg # of iterations =  3.3

     total cpu time spent up to now is     1323.9 secs

     total energy              =    -234.59362589 Ry
     Harris-Foulkes estimate   =    -234.59441834 Ry
     estimated scf accuracy    <       0.24495954 Ry

     iteration # 18     ecut=    50.00 Ry     beta=0.60
     Davidson diagonalization with overlap
     ethr =  9.80E-04,  avg # of iterations =  1.2

     total cpu time spent up to now is     1336.9 secs

     total energy              =    -234.56352892 Ry
     Harris-Foulkes estimate   =    -234.59582078 Ry
     estimated scf accuracy    <       0.24227677 Ry

     iteration # 19     ecut=    50.00 Ry     beta=0.60
     Davidson diagonalization with overlap
     ethr =  9.69E-04,  avg # of iterations =  1.1

     total cpu time spent up to now is     1349.8 secs

     total energy              =    -234.57829086 Ry
     Harris-Foulkes estimate   =    -234.57896046 Ry
     estimated scf accuracy    <       0.00861716 Ry

     iteration # 20     ecut=    50.00 Ry     beta=0.60
     Davidson diagonalization with overlap
     ethr =  3.45E-05,  avg # of iterations =  4.7

     total cpu time spent up to now is     1372.7 secs

     total energy              =    -234.58030875 Ry
     Harris-Foulkes estimate   =    -234.58101191 Ry
     estimated scf accuracy    <       0.00481242 Ry

     iteration # 21     ecut=    50.00 Ry     beta=0.60
     Davidson diagonalization with overlap
     ethr =  1.92E-05,  avg # of iterations =  1.0

     total cpu time spent up to now is     1385.5 secs

     total energy              =    -234.57933210 Ry
     Harris-Foulkes estimate   =    -234.58035576 Ry
     estimated scf accuracy    <       0.00313984 Ry

     iteration # 22     ecut=    50.00 Ry     beta=0.60
     Davidson diagonalization with overlap
     ethr =  1.26E-05,  avg # of iterations =  2.8

     total cpu time spent up to now is     1401.1 secs

     total energy              =    -234.57952109 Ry
     Harris-Foulkes estimate   =    -234.57966551 Ry
     estimated scf accuracy    <       0.00166778 Ry

     iteration # 23     ecut=    50.00 Ry     beta=0.60
     Davidson diagonalization with overlap
     ethr =  6.67E-06,  avg # of iterations =  2.0

     total cpu time spent up to now is     1415.7 secs

     total energy              =    -234.57973756 Ry
     Harris-Foulkes estimate   =    -234.57972312 Ry
     estimated scf accuracy    <       0.00088837 Ry

     iteration # 24     ecut=    50.00 Ry     beta=0.60
     Davidson diagonalization with overlap
     ethr =  3.55E-06,  avg # of iterations =  1.1

     total cpu time spent up to now is     1428.6 secs

     total energy              =    -234.57971419 Ry
     Harris-Foulkes estimate   =    -234.57976335 Ry
     estimated scf accuracy    <       0.00128529 Ry

     iteration # 25     ecut=    50.00 Ry     beta=0.60
     Davidson diagonalization with overlap
     ethr =  3.55E-06,  avg # of iterations =  1.0

     total cpu time spent up to now is     1441.4 secs

     total energy              =    -234.57945639 Ry
     Harris-Foulkes estimate   =    -234.57971937 Ry
     estimated scf accuracy    <       0.00130533 Ry

     iteration # 26     ecut=    50.00 Ry     beta=0.60
     Davidson diagonalization with overlap
     ethr =  3.55E-06,  avg # of iterations =  1.8

     total cpu time spent up to now is     1455.1 secs

     total energy              =    -234.57939719 Ry
     Harris-Foulkes estimate   =    -234.57951235 Ry
     estimated scf accuracy    <       0.00059511 Ry

     iteration # 27     ecut=    50.00 Ry     beta=0.60
     Davidson diagonalization with overlap
     ethr =  2.38E-06,  avg # of iterations =  2.6

     total cpu time spent up to now is     1471.5 secs

     total energy              =    -234.57945549 Ry
     Harris-Foulkes estimate   =    -234.57946224 Ry
     estimated scf accuracy    <       0.00001902 Ry

     iteration # 28     ecut=    50.00 Ry     beta=0.60
     Davidson diagonalization with overlap
     ethr =  7.61E-08,  avg # of iterations =  3.4

     total cpu time spent up to now is     1490.2 secs

     total energy              =    -234.57946035 Ry
     Harris-Foulkes estimate   =    -234.57946366 Ry
     estimated scf accuracy    <       0.00000983 Ry

     iteration # 29     ecut=    50.00 Ry     beta=0.60
     Davidson diagonalization with overlap
     ethr =  3.93E-08,  avg # of iterations =  3.0

     total cpu time spent up to now is     1506.2 secs

     total energy              =    -234.57946173 Ry
     Harris-Foulkes estimate   =    -234.57946173 Ry
     estimated scf accuracy    <       0.00000005 Ry

     iteration # 30     ecut=    50.00 Ry     beta=0.60
     Davidson diagonalization with overlap
     ethr =  1.95E-10,  avg # of iterations =  4.5

     total cpu time spent up to now is     1529.7 secs

     total energy              =    -234.57946181 Ry
     Harris-Foulkes estimate   =    -234.57946182 Ry
     estimated scf accuracy    <       0.00000001 Ry

     iteration # 31     ecut=    50.00 Ry     beta=0.60
     Davidson diagonalization with overlap
     ethr =  5.25E-11,  avg # of iterations =  2.8

     total cpu time spent up to now is     1544.9 secs

     total energy              =    -234.57946181 Ry
     Harris-Foulkes estimate   =    -234.57946181 Ry
     estimated scf accuracy    <          1.0E-09 Ry

     iteration # 32     ecut=    50.00 Ry     beta=0.60
     Davidson diagonalization with overlap
     ethr =  4.05E-12,  avg # of iterations =  3.1

     total cpu time spent up to now is     1562.5 secs

     total energy              =    -234.57946181 Ry
     Harris-Foulkes estimate   =    -234.57946181 Ry
     estimated scf accuracy    <          8.4E-11 Ry

     iteration # 33     ecut=    50.00 Ry     beta=0.60
     Davidson diagonalization with overlap
     ethr =  3.35E-13,  avg # of iterations =  2.9

     total cpu time spent up to now is     1578.5 secs

     total energy              =    -234.57946181 Ry
     Harris-Foulkes estimate   =    -234.57946181 Ry
     estimated scf accuracy    <          2.2E-12 Ry

     iteration # 34     ecut=    50.00 Ry     beta=0.60
     Davidson diagonalization with overlap
     ethr =  1.00E-13,  avg # of iterations =  1.4

     total cpu time spent up to now is     1591.7 secs

     End of self-consistent calculation

     Number of k-points >= 100: set verbosity='high' to print the bands.

     the Fermi energy is    16.4979 ev

!    total energy              =    -234.57946181 Ry
     Harris-Foulkes estimate   =    -234.57946181 Ry
     estimated scf accuracy    <          9.3E-14 Ry

     The total energy is the sum of the following terms:

     one-electron contribution =     -53.25278113 Ry
     hartree contribution      =      38.17603167 Ry
     xc contribution           =     -33.06441492 Ry
     ewald contribution        =    -186.43828402 Ry
     smearing contrib. (-TS)   =      -0.00001341 Ry

     convergence has been achieved in  34 iterations

     Forces acting on atoms (Ry/au):

     atom    1 type  2   force =     0.00000000    0.00000000    0.00000000
     atom    2 type  1   force =     0.00000000    0.00000000    0.00000000

     Total force =     0.000000     Total SCF correction =     0.000000


     entering subroutine stress ...

          total   stress  (Ry/bohr**3)                   (kbar)     P=   60.68
   0.00039407   0.00000000  -0.00000000         57.97      0.00     -0.00
   0.00000000   0.00042167  -0.00001937          0.00     62.03     -2.85
  -0.00000000  -0.00001937   0.00042167         -0.00     -2.85     62.03


     number of scf cycles    =   3
     number of bfgs steps    =   2

     enthalpy old            =    -234.5686341941 Ry
     enthalpy new            =    -234.5794618136 Ry

     CASE: enthalpy_new < enthalpy_old

     new trust radius        =       0.0478609316 bohr
     new conv_thr            =            1.0E-12 Ry

     new unit-cell volume =    238.31227 a.u.^3 (    35.31423 Ang^3 )

CELL_PARAMETERS (alat=  1.88972599)
  -1.639918548   1.637270721  -1.637270721
  -1.639918548  -1.637270721   1.637270721
   0.000000000   3.288115942   3.288115942

ATOMIC_POSITIONS (angstrom)
Ti      -1.639918548   1.644057971   1.644057971
Nb      -3.279837096   3.288115942   3.288115942


     NEW-OLD atomic charge density approx. for the potential
     extrapolated charge   26.09768, renormalised to   25.00000

     total cpu time spent up to now is     1602.0 secs

     per-process dynamical memory:   161.6 Mb

     Self-consistent Calculation

     iteration #  1     ecut=    50.00 Ry     beta=0.60
     Davidson diagonalization with overlap
     ethr =  1.00E-06,  avg # of iterations = 11.1

     total cpu time spent up to now is     1656.6 secs

     total energy              =    -234.34947945 Ry
     Harris-Foulkes estimate   =    -232.81563061 Ry
     estimated scf accuracy    <       0.18530527 Ry

     iteration #  2     ecut=    50.00 Ry     beta=0.60
     Davidson diagonalization with overlap
     ethr =  7.41E-04,  avg # of iterations =  4.8

     total cpu time spent up to now is     1685.8 secs

     total energy              =    -234.17530780 Ry
     Harris-Foulkes estimate   =    -235.03795693 Ry
     estimated scf accuracy    <       6.67684048 Ry

     iteration #  3     ecut=    50.00 Ry     beta=0.60
     Davidson diagonalization with overlap
     ethr =  7.41E-04,  avg # of iterations =  4.5

     total cpu time spent up to now is     1707.6 secs

     total energy              =    -234.56771919 Ry
     Harris-Foulkes estimate   =    -234.63516945 Ry
     estimated scf accuracy    <       0.22845143 Ry

     iteration #  4     ecut=    50.00 Ry     beta=0.60
     Davidson diagonalization with overlap
     ethr =  7.41E-04,  avg # of iterations =  1.6

     total cpu time spent up to now is     1721.1 secs

     total energy              =    -234.58567548 Ry
     Harris-Foulkes estimate   =    -234.59129901 Ry
     estimated scf accuracy    <       0.05884564 Ry

     iteration #  5     ecut=    50.00 Ry     beta=0.60
     Davidson diagonalization with overlap
     ethr =  2.35E-04,  avg # of iterations =  1.8

     total cpu time spent up to now is     1734.9 secs

     total energy              =    -234.58483288 Ry
     Harris-Foulkes estimate   =    -234.58787364 Ry
     estimated scf accuracy    <       0.04018726 Ry

     iteration #  6     ecut=    50.00 Ry     beta=0.60
     Davidson diagonalization with overlap
     ethr =  1.61E-04,  avg # of iterations =  1.1

     total cpu time spent up to now is     1747.8 secs

     total energy              =    -234.58144818 Ry
     Harris-Foulkes estimate   =    -234.58549835 Ry
     estimated scf accuracy    <       0.02721301 Ry

     iteration #  7     ecut=    50.00 Ry     beta=0.60
     Davidson diagonalization with overlap
     ethr =  1.09E-04,  avg # of iterations =  1.6

     total cpu time spent up to now is     1761.3 secs

     total energy              =    -234.58134939 Ry
     Harris-Foulkes estimate   =    -234.58249323 Ry
     estimated scf accuracy    <       0.00914696 Ry

     iteration #  8     ecut=    50.00 Ry     beta=0.60
     Davidson diagonalization with overlap
     ethr =  3.66E-05,  avg # of iterations =  2.4

     total cpu time spent up to now is     1775.9 secs

     total energy              =    -234.58115425 Ry
     Harris-Foulkes estimate   =    -234.58170414 Ry
     estimated scf accuracy    <       0.00347491 Ry

     iteration #  9     ecut=    50.00 Ry     beta=0.60
     Davidson diagonalization with overlap
     ethr =  1.39E-05,  avg # of iterations =  2.7

     total cpu time spent up to now is     1791.1 secs

     total energy              =    -234.58124208 Ry
     Harris-Foulkes estimate   =    -234.58135632 Ry
     estimated scf accuracy    <       0.00064744 Ry

     iteration # 10     ecut=    50.00 Ry     beta=0.60
     Davidson diagonalization with overlap
     ethr =  2.59E-06,  avg # of iterations =  3.6

     total cpu time spent up to now is     1808.4 secs

     total energy              =    -234.58130645 Ry
     Harris-Foulkes estimate   =    -234.58131427 Ry
     estimated scf accuracy    <       0.00004380 Ry

     iteration # 11     ecut=    50.00 Ry     beta=0.60
     Davidson diagonalization with overlap
     ethr =  1.75E-07,  avg # of iterations =  3.2

     total cpu time spent up to now is     1824.9 secs

     total energy              =    -234.58131522 Ry
     Harris-Foulkes estimate   =    -234.58131528 Ry
     estimated scf accuracy    <       0.00000052 Ry

     iteration # 12     ecut=    50.00 Ry     beta=0.60
     Davidson diagonalization with overlap
     ethr =  2.07E-09,  avg # of iterations =  4.2

     total cpu time spent up to now is     1846.8 secs

     total energy              =    -234.58131555 Ry
     Harris-Foulkes estimate   =    -234.58131572 Ry
     estimated scf accuracy    <       0.00000090 Ry

     iteration # 13     ecut=    50.00 Ry     beta=0.60
     Davidson diagonalization with overlap
     ethr =  2.07E-09,  avg # of iterations =  1.9

     total cpu time spent up to now is     1860.6 secs

     total energy              =    -234.58131555 Ry
     Harris-Foulkes estimate   =    -234.58131559 Ry
     estimated scf accuracy    <       0.00000017 Ry

     iteration # 14     ecut=    50.00 Ry     beta=0.60
     Davidson diagonalization with overlap
     ethr =  6.77E-10,  avg # of iterations =  3.3

     total cpu time spent up to now is     1877.0 secs

     total energy              =    -234.58131557 Ry
     Harris-Foulkes estimate   =    -234.58131558 Ry
     estimated scf accuracy    <       0.00000003 Ry

     iteration # 15     ecut=    50.00 Ry     beta=0.60
     Davidson diagonalization with overlap
     ethr =  1.38E-10,  avg # of iterations =  2.1

     total cpu time spent up to now is     1891.3 secs

     total energy              =    -234.58131557 Ry
     Harris-Foulkes estimate   =    -234.58131557 Ry
     estimated scf accuracy    <          7.8E-09 Ry

     iteration # 16     ecut=    50.00 Ry     beta=0.60
     Davidson diagonalization with overlap
     ethr =  3.10E-11,  avg # of iterations =  3.1

     total cpu time spent up to now is     1908.1 secs

     total energy              =    -234.58131557 Ry
     Harris-Foulkes estimate   =    -234.58131557 Ry
     estimated scf accuracy    <          1.2E-10 Ry

     iteration # 17     ecut=    50.00 Ry     beta=0.60
     Davidson diagonalization with overlap
     ethr =  4.71E-13,  avg # of iterations =  3.8

     total cpu time spent up to now is     1929.1 secs

     total energy              =    -234.58131557 Ry
     Harris-Foulkes estimate   =    -234.58131557 Ry
     estimated scf accuracy    <          1.8E-11 Ry

     iteration # 18     ecut=    50.00 Ry     beta=0.60
     Davidson diagonalization with overlap
     ethr =  1.00E-13,  avg # of iterations =  2.3

     total cpu time spent up to now is     1944.1 secs

     total energy              =    -234.58131557 Ry
     Harris-Foulkes estimate   =    -234.58131557 Ry
     estimated scf accuracy    <          2.4E-11 Ry

     iteration # 19     ecut=    50.00 Ry     beta=0.60
     Davidson diagonalization with overlap
     ethr =  1.00E-13,  avg # of iterations =  2.5

     total cpu time spent up to now is     1958.6 secs

     End of self-consistent calculation

     Number of k-points >= 100: set verbosity='high' to print the bands.

     the Fermi energy is    15.6229 ev

!    total energy              =    -234.58131557 Ry
     Harris-Foulkes estimate   =    -234.58131557 Ry
     estimated scf accuracy    <          2.8E-13 Ry

     The total energy is the sum of the following terms:

     one-electron contribution =     -57.41966375 Ry
     hartree contribution      =      39.36223634 Ry
     xc contribution           =     -32.97247404 Ry
     ewald contribution        =    -183.55152445 Ry
     smearing contrib. (-TS)   =       0.00011033 Ry

     convergence has been achieved in  19 iterations

     Forces acting on atoms (Ry/au):

     atom    1 type  2   force =    -0.00000000    0.00000000    0.00000000
     atom    2 type  1   force =     0.00000000    0.00000000    0.00000000

     Total force =     0.000000     Total SCF correction =     0.000000


     entering subroutine stress ...

          total   stress  (Ry/bohr**3)                   (kbar)     P=   -8.34
  -0.00006977   0.00000000   0.00000000        -10.26      0.00      0.00
   0.00000000  -0.00005019  -0.00000046          0.00     -7.38     -0.07
   0.00000000  -0.00000046  -0.00005019          0.00     -0.07     -7.38


     number of scf cycles    =   4
     number of bfgs steps    =   3

     enthalpy old            =    -234.5794618136 Ry
     enthalpy new            =    -234.5813155738 Ry

     CASE: enthalpy_new < enthalpy_old

     new trust radius        =       0.0068236042 bohr
     new conv_thr            =            1.0E-12 Ry

     new unit-cell volume =    236.94142 a.u.^3 (    35.11110 Ang^3 )

CELL_PARAMETERS (alat=  1.88972599)
  -1.636294175   1.634338751  -1.634338751
  -1.636294175  -1.634338751   1.634338751
   0.000000000   3.282320823   3.282320823

ATOMIC_POSITIONS (angstrom)
Ti      -1.636294175   1.641160411   1.641160411
Nb      -3.272588349   3.282320823   3.282320823


     NEW-OLD atomic charge density approx. for the potential
     extrapolated charge   24.86116, renormalised to   25.00000

     total cpu time spent up to now is     1968.8 secs

     per-process dynamical memory:   161.6 Mb

     Self-consistent Calculation

     iteration #  1     ecut=    50.00 Ry     beta=0.60
     Davidson diagonalization with overlap
     ethr =  1.00E-06,  avg # of iterations =  4.9

     total cpu time spent up to now is     1999.0 secs

     total energy              =    -234.57514209 Ry
     Harris-Foulkes estimate   =    -234.80843887 Ry
     estimated scf accuracy    <       0.00568155 Ry

     iteration #  2     ecut=    50.00 Ry     beta=0.60
     Davidson diagonalization with overlap
     ethr =  2.27E-05,  avg # of iterations =  5.3

     total cpu time spent up to now is     2033.2 secs

     total energy              =    -234.57190394 Ry
     Harris-Foulkes estimate   =    -234.59589323 Ry
     estimated scf accuracy    <       0.15713746 Ry

     iteration #  3     ecut=    50.00 Ry     beta=0.60
     Davidson diagonalization with overlap
     ethr =  2.27E-05,  avg # of iterations =  4.6

     total cpu time spent up to now is     2059.4 secs

     total energy              =    -234.58143445 Ry
     Harris-Foulkes estimate   =    -234.58250703 Ry
     estimated scf accuracy    <       0.00324946 Ry

     iteration #  4     ecut=    50.00 Ry     beta=0.60
     Davidson diagonalization with overlap
     ethr =  1.30E-05,  avg # of iterations =  1.2

     total cpu time spent up to now is     2072.5 secs

     total energy              =    -234.58139379 Ry
     Harris-Foulkes estimate   =    -234.58167921 Ry
     estimated scf accuracy    <       0.00242165 Ry

     iteration #  5     ecut=    50.00 Ry     beta=0.60
     Davidson diagonalization with overlap
     ethr =  9.69E-06,  avg # of iterations =  1.8

     total cpu time spent up to now is     2086.2 secs

     total energy              =    -234.58138944 Ry
     Harris-Foulkes estimate   =    -234.58148541 Ry
     estimated scf accuracy    <       0.00101785 Ry

     iteration #  6     ecut=    50.00 Ry     beta=0.60
     Davidson diagonalization with overlap
     ethr =  4.07E-06,  avg # of iterations =  1.0

     total cpu time spent up to now is     2099.0 secs

     total energy              =    -234.58134767 Ry
     Harris-Foulkes estimate   =    -234.58140866 Ry
     estimated scf accuracy    <       0.00049888 Ry

     iteration #  7     ecut=    50.00 Ry     beta=0.60
     Davidson diagonalization with overlap
     ethr =  2.00E-06,  avg # of iterations =  1.8

     total cpu time spent up to now is     2112.9 secs

     total energy              =    -234.58136088 Ry
     Harris-Foulkes estimate   =    -234.58137093 Ry
     estimated scf accuracy    <       0.00012920 Ry

     iteration #  8     ecut=    50.00 Ry     beta=0.60
     Davidson diagonalization with overlap
     ethr =  5.17E-07,  avg # of iterations =  1.5

     total cpu time spent up to now is     2126.2 secs

     total energy              =    -234.58135168 Ry
     Harris-Foulkes estimate   =    -234.58136409 Ry
     estimated scf accuracy    <       0.00006539 Ry

     iteration #  9     ecut=    50.00 Ry     beta=0.60
     Davidson diagonalization with overlap
     ethr =  2.62E-07,  avg # of iterations =  2.8

     total cpu time spent up to now is     2141.7 secs

     total energy              =    -234.58135732 Ry
     Harris-Foulkes estimate   =    -234.58135772 Ry
     estimated scf accuracy    <       0.00000289 Ry

     iteration # 10     ecut=    50.00 Ry     beta=0.60
     Davidson diagonalization with overlap
     ethr =  1.15E-08,  avg # of iterations =  3.4

     total cpu time spent up to now is     2159.6 secs

     total energy              =    -234.58135800 Ry
     Harris-Foulkes estimate   =    -234.58135805 Ry
     estimated scf accuracy    <       0.00000049 Ry

     iteration # 11     ecut=    50.00 Ry     beta=0.60
     Davidson diagonalization with overlap
     ethr =  1.95E-09,  avg # of iterations =  3.5

     total cpu time spent up to now is     2178.8 secs

     total energy              =    -234.58135807 Ry
     Harris-Foulkes estimate   =    -234.58135813 Ry
     estimated scf accuracy    <       0.00000039 Ry

     iteration # 12     ecut=    50.00 Ry     beta=0.60
     Davidson diagonalization with overlap
     ethr =  1.58E-09,  avg # of iterations =  1.0

     total cpu time spent up to now is     2191.6 secs

     total energy              =    -234.58135803 Ry
     Harris-Foulkes estimate   =    -234.58135807 Ry
     estimated scf accuracy    <       0.00000020 Ry

     iteration # 13     ecut=    50.00 Ry     beta=0.60
     Davidson diagonalization with overlap
     ethr =  7.97E-10,  avg # of iterations =  1.9

     total cpu time spent up to now is     2205.6 secs

     total energy              =    -234.58135803 Ry
     Harris-Foulkes estimate   =    -234.58135804 Ry
     estimated scf accuracy    <       0.00000006 Ry

     iteration # 14     ecut=    50.00 Ry     beta=0.60
     Davidson diagonalization with overlap
     ethr =  2.51E-10,  avg # of iterations =  1.2

     total cpu time spent up to now is     2218.6 secs

     total energy              =    -234.58135803 Ry
     Harris-Foulkes estimate   =    -234.58135803 Ry
     estimated scf accuracy    <       0.00000003 Ry

     iteration # 15     ecut=    50.00 Ry     beta=0.60
     Davidson diagonalization with overlap
     ethr =  1.15E-10,  avg # of iterations =  2.7

     total cpu time spent up to now is     2234.0 secs

     total energy              =    -234.58135803 Ry
     Harris-Foulkes estimate   =    -234.58135803 Ry
     estimated scf accuracy    <          4.7E-09 Ry

     iteration # 16     ecut=    50.00 Ry     beta=0.60
     Davidson diagonalization with overlap
     ethr =  1.87E-11,  avg # of iterations =  2.4

     total cpu time spent up to now is     2249.5 secs

     total energy              =    -234.58135803 Ry
     Harris-Foulkes estimate   =    -234.58135803 Ry
     estimated scf accuracy    <          2.3E-09 Ry

     iteration # 17     ecut=    50.00 Ry     beta=0.60
     Davidson diagonalization with overlap
     ethr =  9.30E-12,  avg # of iterations =  1.5

     total cpu time spent up to now is     2262.7 secs

     total energy              =    -234.58135803 Ry
     Harris-Foulkes estimate   =    -234.58135803 Ry
     estimated scf accuracy    <          5.8E-10 Ry

     iteration # 18     ecut=    50.00 Ry     beta=0.60
     Davidson diagonalization with overlap
     ethr =  2.30E-12,  avg # of iterations =  2.6

     total cpu time spent up to now is     2277.7 secs

     total energy              =    -234.58135803 Ry
     Harris-Foulkes estimate   =    -234.58135803 Ry
     estimated scf accuracy    <          1.2E-10 Ry

     iteration # 19     ecut=    50.00 Ry     beta=0.60
     Davidson diagonalization with overlap
     ethr =  4.71E-13,  avg # of iterations =  2.8

     total cpu time spent up to now is     2293.1 secs

     total energy              =    -234.58135803 Ry
     Harris-Foulkes estimate   =    -234.58135803 Ry
     estimated scf accuracy    <          4.5E-12 Ry

     iteration # 20     ecut=    50.00 Ry     beta=0.60
     Davidson diagonalization with overlap
     ethr =  1.00E-13,  avg # of iterations =  2.4

     total cpu time spent up to now is     2307.6 secs

     total energy              =    -234.58135803 Ry
     Harris-Foulkes estimate   =    -234.58135803 Ry
     estimated scf accuracy    <          1.1E-12 Ry

     iteration # 21     ecut=    50.00 Ry     beta=0.60
     Davidson diagonalization with overlap
     ethr =  1.00E-13,  avg # of iterations =  1.0

     total cpu time spent up to now is     2320.3 secs

     End of self-consistent calculation

     Number of k-points >= 100: set verbosity='high' to print the bands.

     the Fermi energy is    15.7287 ev

!    total energy              =    -234.58135803 Ry
     Harris-Foulkes estimate   =    -234.58135803 Ry
     estimated scf accuracy    <          9.5E-13 Ry

     The total energy is the sum of the following terms:

     one-electron contribution =     -56.90857711 Ry
     hartree contribution      =      39.21544015 Ry
     xc contribution           =     -32.98354271 Ry
     ewald contribution        =    -183.90477779 Ry
     smearing contrib. (-TS)   =       0.00009944 Ry

     convergence has been achieved in  21 iterations

     Forces acting on atoms (Ry/au):

     atom    1 type  2   force =     0.00000000    0.00000000    0.00000000
     atom    2 type  1   force =     0.00000000    0.00000000    0.00000000

     Total force =     0.000000     Total SCF correction =     0.000000


     entering subroutine stress ...

          total   stress  (Ry/bohr**3)                   (kbar)     P=   -0.45
  -0.00001527  -0.00000000   0.00000000         -2.25     -0.00      0.00
   0.00000000   0.00000307  -0.00000215          0.00      0.45     -0.32
  -0.00000000  -0.00000215   0.00000307         -0.00     -0.32      0.45


     number of scf cycles    =   5
     number of bfgs steps    =   4

     enthalpy old            =    -234.5813155738 Ry
     enthalpy new            =    -234.5813580272 Ry

     CASE: enthalpy_new < enthalpy_old

     new trust radius        =       0.0013853330 bohr
     new conv_thr            =            1.0E-12 Ry

     new unit-cell volume =    236.84195 a.u.^3 (    35.09636 Ang^3 )

CELL_PARAMETERS (alat=  1.88972599)
  -1.635557857   1.634449849  -1.634449849
  -1.635557857  -1.634449849   1.634449849
   0.000000000   3.282196855   3.282196855

ATOMIC_POSITIONS (angstrom)
Ti      -1.635557857   1.641098428   1.641098428
Nb      -3.271115714   3.282196855   3.282196855


     NEW-OLD atomic charge density approx. for the potential
     extrapolated charge   24.98992, renormalised to   25.00000

     total cpu time spent up to now is     2330.6 secs

     per-process dynamical memory:   161.5 Mb

     Self-consistent Calculation

     iteration #  1     ecut=    50.00 Ry     beta=0.60
     Davidson diagonalization with overlap
     ethr =  1.00E-06,  avg # of iterations =  2.0

     Threshold (ethr) on eigenvalues was too large:
     Diagonalizing with lowered threshold

     Davidson diagonalization with overlap
     ethr =  9.70E-08,  avg # of iterations =  1.1

     total cpu time spent up to now is     2361.9 secs

     total energy              =    -234.58133080 Ry
     Harris-Foulkes estimate   =    -234.59777971 Ry
     estimated scf accuracy    <       0.00002571 Ry

     iteration #  2     ecut=    50.00 Ry     beta=0.60
     Davidson diagonalization with overlap
     ethr =  1.03E-07,  avg # of iterations =  4.6

     total cpu time spent up to now is     2386.6 secs

     total energy              =    -234.58130999 Ry
     Harris-Foulkes estimate   =    -234.58142684 Ry
     estimated scf accuracy    <       0.00082390 Ry

     iteration #  3     ecut=    50.00 Ry     beta=0.60
     Davidson diagonalization with overlap
     ethr =  1.03E-07,  avg # of iterations =  4.0

     total cpu time spent up to now is     2405.4 secs

     total energy              =    -234.58135950 Ry
     Harris-Foulkes estimate   =    -234.58136484 Ry
     estimated scf accuracy    <       0.00001509 Ry

     iteration #  4     ecut=    50.00 Ry     beta=0.60
     Davidson diagonalization with overlap
     ethr =  6.03E-08,  avg # of iterations =  1.4

     total cpu time spent up to now is     2418.6 secs

     total energy              =    -234.58135959 Ry
     Harris-Foulkes estimate   =    -234.58136085 Ry
     estimated scf accuracy    <       0.00000976 Ry

     iteration #  5     ecut=    50.00 Ry     beta=0.60
     Davidson diagonalization with overlap
     ethr =  3.90E-08,  avg # of iterations =  1.8

     total cpu time spent up to now is     2432.5 secs

     total energy              =    -234.58135951 Ry
     Harris-Foulkes estimate   =    -234.58136000 Ry
     estimated scf accuracy    <       0.00000439 Ry

     iteration #  6     ecut=    50.00 Ry     beta=0.60
     Davidson diagonalization with overlap
     ethr =  1.76E-08,  avg # of iterations =  1.1

     total cpu time spent up to now is     2445.4 secs

     total energy              =    -234.58135917 Ry
     Harris-Foulkes estimate   =    -234.58135962 Ry
     estimated scf accuracy    <       0.00000188 Ry

     iteration #  7     ecut=    50.00 Ry     beta=0.60
     Davidson diagonalization with overlap
     ethr =  7.52E-09,  avg # of iterations =  2.9

     total cpu time spent up to now is     2461.3 secs

     total energy              =    -234.58135945 Ry
     Harris-Foulkes estimate   =    -234.58135945 Ry
     estimated scf accuracy    <          8.3E-09 Ry

     iteration #  8     ecut=    50.00 Ry     beta=0.60
     Davidson diagonalization with overlap
     ethr =  3.33E-11,  avg # of iterations =  4.5

     total cpu time spent up to now is     2484.7 secs

     total energy              =    -234.58135946 Ry
     Harris-Foulkes estimate   =    -234.58135947 Ry
     estimated scf accuracy    <       0.00000003 Ry

     iteration #  9     ecut=    50.00 Ry     beta=0.60
     Davidson diagonalization with overlap
     ethr =  3.33E-11,  avg # of iterations =  2.9

     total cpu time spent up to now is     2500.5 secs

     total energy              =    -234.58135946 Ry
     Harris-Foulkes estimate   =    -234.58135946 Ry
     estimated scf accuracy    <          2.9E-09 Ry

     iteration # 10     ecut=    50.00 Ry     beta=0.60
     Davidson diagonalization with overlap
     ethr =  1.17E-11,  avg # of iterations =  3.8

     total cpu time spent up to now is     2519.7 secs

     total energy              =    -234.58135946 Ry
     Harris-Foulkes estimate   =    -234.58135946 Ry
     estimated scf accuracy    <          2.2E-09 Ry

     iteration # 11     ecut=    50.00 Ry     beta=0.60
     Davidson diagonalization with overlap
     ethr =  8.74E-12,  avg # of iterations =  2.3

     total cpu time spent up to now is     2534.0 secs

     total energy              =    -234.58135946 Ry
     Harris-Foulkes estimate   =    -234.58135946 Ry
     estimated scf accuracy    <          5.9E-11 Ry

     iteration # 12     ecut=    50.00 Ry     beta=0.60
     Davidson diagonalization with overlap
     ethr =  2.37E-13,  avg # of iterations =  4.3

     total cpu time spent up to now is     2554.7 secs

     total energy              =    -234.58135946 Ry
     Harris-Foulkes estimate   =    -234.58135946 Ry
     estimated scf accuracy    <          1.1E-10 Ry

     iteration # 13     ecut=    50.00 Ry     beta=0.60
     Davidson diagonalization with overlap
     ethr =  2.37E-13,  avg # of iterations =  1.0

     total cpu time spent up to now is     2567.5 secs

     total energy              =    -234.58135946 Ry
     Harris-Foulkes estimate   =    -234.58135946 Ry
     estimated scf accuracy    <          5.9E-11 Ry

     iteration # 14     ecut=    50.00 Ry     beta=0.60
     Davidson diagonalization with overlap
     ethr =  2.35E-13,  avg # of iterations =  1.9

     total cpu time spent up to now is     2581.8 secs

     total energy              =    -234.58135946 Ry
     Harris-Foulkes estimate   =    -234.58135946 Ry
     estimated scf accuracy    <          8.5E-12 Ry

     iteration # 15     ecut=    50.00 Ry     beta=0.60
     Davidson diagonalization with overlap
     ethr =  1.00E-13,  avg # of iterations =  1.0

     total cpu time spent up to now is     2594.5 secs

     total energy              =    -234.58135946 Ry
     Harris-Foulkes estimate   =    -234.58135946 Ry
     estimated scf accuracy    <          3.6E-12 Ry

     iteration # 16     ecut=    50.00 Ry     beta=0.60
     Davidson diagonalization with overlap
     ethr =  1.00E-13,  avg # of iterations =  1.1

     total cpu time spent up to now is     2607.3 secs

     End of self-consistent calculation

     Number of k-points >= 100: set verbosity='high' to print the bands.

     the Fermi energy is    15.7363 ev

!    total energy              =    -234.58135946 Ry
     Harris-Foulkes estimate   =    -234.58135946 Ry
     estimated scf accuracy    <          4.8E-13 Ry

     The total energy is the sum of the following terms:

     one-electron contribution =     -56.87140249 Ry
     hartree contribution      =      39.20480443 Ry
     xc contribution           =     -32.98435540 Ry
     ewald contribution        =    -183.93050636 Ry
     smearing contrib. (-TS)   =       0.00010035 Ry

     convergence has been achieved in  16 iterations

     Forces acting on atoms (Ry/au):

     atom    1 type  2   force =     0.00000000    0.00000000    0.00000000
     atom    2 type  1   force =     0.00000000    0.00000000    0.00000000

     Total force =     0.000000     Total SCF correction =     0.000000


     entering subroutine stress ...

          total   stress  (Ry/bohr**3)                   (kbar)     P=    0.12
  -0.00000998   0.00000000   0.00000000         -1.47      0.00      0.00
   0.00000000   0.00000624  -0.00000192          0.00      0.92     -0.28
   0.00000000  -0.00000192   0.00000624          0.00     -0.28      0.92


     number of scf cycles    =   6
     number of bfgs steps    =   5

     enthalpy old            =    -234.5813580272 Ry
     enthalpy new            =    -234.5813594615 Ry

     CASE: enthalpy_new < enthalpy_old

     new trust radius        =       0.0015242323 bohr
     new conv_thr            =            1.0E-12 Ry

     new unit-cell volume =    236.79531 a.u.^3 (    35.08944 Ang^3 )

CELL_PARAMETERS (alat=  1.88972599)
  -1.634747908   1.634816490  -1.634816490
  -1.634747908  -1.634816490   1.634816490
   0.000000000   3.282439944   3.282439944

ATOMIC_POSITIONS (angstrom)
Ti      -1.634747908   1.641219972   1.641219972
Nb      -3.269495816   3.282439944   3.282439944


     NEW-OLD atomic charge density approx. for the potential
     extrapolated charge   24.99527, renormalised to   25.00000

     total cpu time spent up to now is     2617.6 secs

     per-process dynamical memory:   161.5 Mb

     Self-consistent Calculation

     iteration #  1     ecut=    50.00 Ry     beta=0.60
     Davidson diagonalization with overlap
     ethr =  1.00E-06,  avg # of iterations =  2.0

     Threshold (ethr) on eigenvalues was too large:
     Diagonalizing with lowered threshold

     Davidson diagonalization with overlap
     ethr =  2.22E-08,  avg # of iterations =  1.3

     total cpu time spent up to now is     2649.1 secs

     total energy              =    -234.58135443 Ry
     Harris-Foulkes estimate   =    -234.58906030 Ry
     estimated scf accuracy    <       0.00000596 Ry

     iteration #  2     ecut=    50.00 Ry     beta=0.60
     Davidson diagonalization with overlap
     ethr =  2.38E-08,  avg # of iterations =  4.5

     total cpu time spent up to now is     2673.5 secs

     total energy              =    -234.58134894 Ry
     Harris-Foulkes estimate   =    -234.58137714 Ry
     estimated scf accuracy    <       0.00020147 Ry

     iteration #  3     ecut=    50.00 Ry     beta=0.60
     Davidson diagonalization with overlap
     ethr =  2.38E-08,  avg # of iterations =  4.0

     total cpu time spent up to now is     2692.2 secs

     total energy              =    -234.58136096 Ry
     Harris-Foulkes estimate   =    -234.58136210 Ry
     estimated scf accuracy    <       0.00000325 Ry

     iteration #  4     ecut=    50.00 Ry     beta=0.60
     Davidson diagonalization with overlap
     ethr =  1.30E-08,  avg # of iterations =  1.4

     total cpu time spent up to now is     2705.5 secs

     total energy              =    -234.58136090 Ry
     Harris-Foulkes estimate   =    -234.58136124 Ry
     estimated scf accuracy    <       0.00000213 Ry

     iteration #  5     ecut=    50.00 Ry     beta=0.60
     Davidson diagonalization with overlap
     ethr =  8.52E-09,  avg # of iterations =  2.0

     total cpu time spent up to now is     2719.7 secs

     total energy              =    -234.58136089 Ry
     Harris-Foulkes estimate   =    -234.58136102 Ry
     estimated scf accuracy    <       0.00000072 Ry

     iteration #  6     ecut=    50.00 Ry     beta=0.60
     Davidson diagonalization with overlap
     ethr =  2.88E-09,  avg # of iterations =  1.7

     total cpu time spent up to now is     2733.4 secs

     total energy              =    -234.58136091 Ry
     Harris-Foulkes estimate   =    -234.58136093 Ry
     estimated scf accuracy    <       0.00000008 Ry

     iteration #  7     ecut=    50.00 Ry     beta=0.60
     Davidson diagonalization with overlap
     ethr =  3.26E-10,  avg # of iterations =  3.7

     total cpu time spent up to now is     2752.7 secs

     total energy              =    -234.58136094 Ry
     Harris-Foulkes estimate   =    -234.58136095 Ry
     estimated scf accuracy    <       0.00000007 Ry

     iteration #  8     ecut=    50.00 Ry     beta=0.60
     Davidson diagonalization with overlap
     ethr =  2.65E-10,  avg # of iterations =  1.0

     total cpu time spent up to now is     2765.5 secs

     total energy              =    -234.58136094 Ry
     Harris-Foulkes estimate   =    -234.58136094 Ry
     estimated scf accuracy    <       0.00000003 Ry

     iteration #  9     ecut=    50.00 Ry     beta=0.60
     Davidson diagonalization with overlap
     ethr =  1.02E-10,  avg # of iterations =  2.9

     total cpu time spent up to now is     2781.4 secs

     total energy              =    -234.58136094 Ry
     Harris-Foulkes estimate   =    -234.58136094 Ry
     estimated scf accuracy    <          8.2E-11 Ry

     iteration # 10     ecut=    50.00 Ry     beta=0.60
     Davidson diagonalization with overlap
     ethr =  3.29E-13,  avg # of iterations =  4.6

     total cpu time spent up to now is     2806.6 secs

     total energy              =    -234.58136094 Ry
     Harris-Foulkes estimate   =    -234.58136094 Ry
     estimated scf accuracy    <          3.6E-10 Ry

     iteration # 11     ecut=    50.00 Ry     beta=0.60
     Davidson diagonalization with overlap
     ethr =  3.29E-13,  avg # of iterations =  3.4

     total cpu time spent up to now is     2826.1 secs

     total energy              =    -234.58136094 Ry
     Harris-Foulkes estimate   =    -234.58136094 Ry
     estimated scf accuracy    <          3.1E-12 Ry

     iteration # 12     ecut=    50.00 Ry     beta=0.60
     Davidson diagonalization with overlap
     ethr =  1.00E-13,  avg # of iterations =  1.1

     total cpu time spent up to now is     2839.1 secs

     total energy              =    -234.58136094 Ry
     Harris-Foulkes estimate   =    -234.58136094 Ry
     estimated scf accuracy    <          2.4E-12 Ry

     iteration # 13     ecut=    50.00 Ry     beta=0.60
     Davidson diagonalization with overlap
     ethr =  1.00E-13,  avg # of iterations =  1.0

     total cpu time spent up to now is     2851.9 secs

     End of self-consistent calculation

     Number of k-points >= 100: set verbosity='high' to print the bands.

     the Fermi energy is    15.7399 ev

!    total energy              =    -234.58136094 Ry
     Harris-Foulkes estimate   =    -234.58136094 Ry
     estimated scf accuracy    <          9.0E-13 Ry

     The total energy is the sum of the following terms:

     one-electron contribution =     -56.85401978 Ry
     hartree contribution      =      39.19986149 Ry
     xc contribution           =     -32.98474135 Ry
     ewald contribution        =    -183.94256377 Ry
     smearing contrib. (-TS)   =       0.00010247 Ry

     convergence has been achieved in  13 iterations

     Forces acting on atoms (Ry/au):

     atom    1 type  2   force =     0.00000000    0.00000000    0.00000000
     atom    2 type  1   force =    -0.00000000    0.00000000    0.00000000

     Total force =     0.000000     Total SCF correction =     0.000000


     entering subroutine stress ...

          total   stress  (Ry/bohr**3)                   (kbar)     P=    0.38
  -0.00000621   0.00000000   0.00000000         -0.91      0.00      0.00
  -0.00000000   0.00000702  -0.00000147         -0.00      1.03     -0.22
   0.00000000  -0.00000147   0.00000702          0.00     -0.22      1.03


     number of scf cycles    =   7
     number of bfgs steps    =   6

     enthalpy old            =    -234.5813594615 Ry
     enthalpy new            =    -234.5813609421 Ry

     CASE: enthalpy_new < enthalpy_old

     new trust radius        =       0.0022872560 bohr
     new conv_thr            =            1.0E-12 Ry

     new unit-cell volume =    236.77637 a.u.^3 (    35.08664 Ang^3 )

CELL_PARAMETERS (alat=  1.88972599)
  -1.633532984   1.635558461  -1.635558461
  -1.633532984  -1.635558461   1.635558461
   0.000000000   3.283128436   3.283128436

ATOMIC_POSITIONS (angstrom)
Ti      -1.633532984   1.641564218   1.641564218
Nb      -3.267065968   3.283128436   3.283128436


     NEW-OLD atomic charge density approx. for the potential
     extrapolated charge   24.99808, renormalised to   25.00000

     total cpu time spent up to now is     2862.1 secs

     per-process dynamical memory:   161.5 Mb

     Self-consistent Calculation

     iteration #  1     ecut=    50.00 Ry     beta=0.60
     Davidson diagonalization with overlap
     ethr =  1.00E-06,  avg # of iterations =  2.8

     Threshold (ethr) on eigenvalues was too large:
     Diagonalizing with lowered threshold

     Davidson diagonalization with overlap
     ethr =  5.60E-09,  avg # of iterations =  2.5

     total cpu time spent up to now is     2899.0 secs

     total energy              =    -234.58136128 Ry
     Harris-Foulkes estimate   =    -234.58448835 Ry
     estimated scf accuracy    <       0.00000153 Ry

     iteration #  2     ecut=    50.00 Ry     beta=0.60
     Davidson diagonalization with overlap
     ethr =  6.13E-09,  avg # of iterations =  4.4

     total cpu time spent up to now is     2922.4 secs

     total energy              =    -234.58135928 Ry
     Harris-Foulkes estimate   =    -234.58136731 Ry
     estimated scf accuracy    <       0.00005877 Ry

     iteration #  3     ecut=    50.00 Ry     beta=0.60
     Davidson diagonalization with overlap
     ethr =  6.13E-09,  avg # of iterations =  4.0

     total cpu time spent up to now is     2941.4 secs

     total energy              =    -234.58136277 Ry
     Harris-Foulkes estimate   =    -234.58136297 Ry
     estimated scf accuracy    <       0.00000062 Ry

     iteration #  4     ecut=    50.00 Ry     beta=0.60
     Davidson diagonalization with overlap
     ethr =  2.48E-09,  avg # of iterations =  1.4

[...]

     total cpu time spent up to now is     4005.5 secs

     total energy              =    -234.58136402 Ry
     Harris-Foulkes estimate   =    -234.58136403 Ry
     estimated scf accuracy    <          1.5E-09 Ry

     iteration #  4     ecut=    50.00 Ry     beta=0.60
     Davidson diagonalization with overlap
     ethr =  1.96E-12,  avg # of iterations =  2.6

     total cpu time spent up to now is     4020.7 secs

     total energy              =    -234.58136402 Ry
     Harris-Foulkes estimate   =    -234.58136402 Ry
     estimated scf accuracy    <          1.5E-10 Ry

     iteration #  5     ecut=    50.00 Ry     beta=0.60
     Davidson diagonalization with overlap
     ethr =  5.85E-13,  avg # of iterations =  2.4

     total cpu time spent up to now is     4035.8 secs

     total energy              =    -234.58136402 Ry
     Harris-Foulkes estimate   =    -234.58136402 Ry
     estimated scf accuracy    <          1.6E-12 Ry

     iteration #  6     ecut=    50.00 Ry     beta=0.60
     Davidson diagonalization with overlap
     ethr =  1.00E-13,  avg # of iterations =  1.8

     total cpu time spent up to now is     4049.6 secs

     End of self-consistent calculation

     Number of k-points >= 100: set verbosity='high' to print the bands.

     the Fermi energy is    15.7353 ev

!    total energy              =    -234.58136402 Ry
     Harris-Foulkes estimate   =    -234.58136402 Ry
     estimated scf accuracy    <          2.2E-13 Ry

     The total energy is the sum of the following terms:

     one-electron contribution =     -56.87609921 Ry
     hartree contribution      =      39.20640060 Ry
     xc contribution           =     -32.98430601 Ry
     ewald contribution        =    -183.92747347 Ry
     smearing contrib. (-TS)   =       0.00011407 Ry

     convergence has been achieved in   6 iterations

     Forces acting on atoms (Ry/au):

     atom    1 type  2   force =     0.00000000    0.00000000    0.00000000
     atom    2 type  1   force =     0.00000000    0.00000000    0.00000000

     Total force =     0.000000     Total SCF correction =     0.000000


     entering subroutine stress ...

          total   stress  (Ry/bohr**3)                   (kbar)     P=   -0.00
  -0.00000011   0.00000000   0.00000000         -0.02      0.00      0.00
   0.00000000   0.00000001   0.00000039          0.00      0.00      0.06
   0.00000000   0.00000039   0.00000001          0.00      0.06      0.00


     bfgs converged in  13 scf cycles and  12 bfgs steps
     (criteria: energy <  1.0E-10, force <  1.0E-05, cell <  1.0E-03)

     End of BFGS Geometry Optimization

     Final enthalpy =    -234.5813640247 Ry
Begin final coordinates
     new unit-cell volume =    236.85290 a.u.^3 (    35.09798 Ang^3 )

CELL_PARAMETERS (alat=  1.88972599)
  -1.631843086   1.636858813  -1.636858813
  -1.631843086  -1.636858813   1.636858813
   0.000000000   3.284979010   3.284979010

ATOMIC_POSITIONS (angstrom)
Ti      -1.631843086   1.642489505   1.642489505
Nb      -3.263686171   3.284979010   3.284979010
End final coordinates



     A final scf calculation at the relaxed structure.
     The G-vectors are recalculated for the final unit cell
     Results may differ from those at the preceding step.

   Info: using nr1, nr2, nr3 values from input

   Info: using nr1, nr2, nr3 values from input

     Parallelization info
     --------------------
     sticks:   dense  smooth     PW     G-vecs:    dense   smooth      PW
     Min         266     105     34                11160     2817     530
     Max         267     107     35                11163     2818     533
     Sum        1067     423    137                44645    11269    2127



     bravais-lattice index     =            0
     lattice parameter (alat)  =       1.8897  a.u.
     unit-cell volume          =     236.8529 (a.u.)^3
     number of atoms/cell      =            2
     number of atomic types    =            2
     number of electrons       =        25.00
     number of Kohn-Sham states=           17
     kinetic-energy cutoff     =      50.0000  Ry
     charge density cutoff     =     500.0000  Ry
     convergence threshold     =      1.0E-12
     mixing beta               =       0.6000
     number of iterations used =            8  plain     mixing
     Exchange-correlation      = SLA  PW   PBE  PBE ( 1  4  3  4 0 0)

     celldm(1)=   1.889726  celldm(2)=   0.000000  celldm(3)=   0.000000
     celldm(4)=   0.000000  celldm(5)=   0.000000  celldm(6)=   0.000000

     crystal axes: (cart. coord. in units of alat)
               a(1) = (  -1.631843   1.636859  -1.636859 )  
               a(2) = (  -1.631843  -1.636859   1.636859 )  
               a(3) = (   0.000000   3.284979   3.284979 )  

     reciprocal axes: (cart. coord. in units 2 pi/alat)
               b(1) = ( -0.306402  0.152732 -0.152732 )  
               b(2) = ( -0.306402 -0.152732  0.152732 )  
               b(3) = (  0.000000  0.152208  0.152208 )  


     PseudoPot. # 1 for Nb read from file:
     ./Nb.pbe-nsp-van.UPF
     MD5 check sum: 0a22fc7fb0ba19a08ca5db297a5d2854
     Pseudo is Ultrasoft + core correction, Zval = 13.0
     Generated by new atomic code, or converted to UPF format
     Using radial grid of  887 points,  6 beta functions with: 
                l(1) =   0
                l(2) =   0
                l(3) =   1
                l(4) =   1
                l(5) =   2
                l(6) =   2
     Q(r) pseudized with  6 coefficients,  rinner =    1.000   1.000   1.000
                                                       1.000   1.000

     PseudoPot. # 2 for Ti read from file:
     ./Ti.pbe-sp-van_ak.UPF
     MD5 check sum: f98fea3e8887528921fefa5636a534ca
     Pseudo is Ultrasoft, Zval = 12.0
     Generated by new atomic code, or converted to UPF format
     Using radial grid of  851 points,  6 beta functions with: 
                l(1) =   0
                l(2) =   0
                l(3) =   1
                l(4) =   1
                l(5) =   2
                l(6) =   2
     Q(r) pseudized with  8 coefficients,  rinner =    1.000   1.000   1.000
                                                       1.000   1.000

     atomic species   valence    mass     pseudopotential
        Nb            13.00    92.90638     Nb( 1.00)
        Ti            12.00    47.86700     Ti( 1.00)

      8 Sym. Ops., with inversion, found



   Cartesian axes

     site n.     atom                  positions (alat units)
         1           Ti  tau(   1) = (  -1.6318432   1.6424896   1.6424896  )
         2           Nb  tau(   2) = (  -3.2636864   3.2849793   3.2849793  )

     number of k points=   700  Marzari-Vanderbilt smearing, width (Ry)=  0.0200

     Number of k-points >= 100: set verbosity='high' to print them.

     Dense  grid:    44645 G-vectors     FFT dimensions: (  45,  45,  72)

     Smooth grid:    11269 G-vectors     FFT dimensions: (  25,  25,  45)

     Estimated max dynamical RAM per process >      72.35Mb

     Estimated total allocated dynamical RAM >     289.38Mb

     Initial potential from superposition of free atoms

     starting charge   23.99722, renormalised to   25.00000
     Starting wfc are   23 randomized atomic wfcs

     total cpu time spent up to now is     4064.6 secs

     per-process dynamical memory:   158.7 Mb

     Self-consistent Calculation

     iteration #  1     ecut=    50.00 Ry     beta=0.60
     Davidson diagonalization with overlap
     c_bands:  1 eigenvalues not converged
     c_bands:  1 eigenvalues not converged
     c_bands:  1 eigenvalues not converged
     c_bands:  1 eigenvalues not converged
     c_bands:  1 eigenvalues not converged
     c_bands:  1 eigenvalues not converged
     c_bands:  1 eigenvalues not converged
     c_bands:  1 eigenvalues not converged
     c_bands:  1 eigenvalues not converged
     c_bands:  1 eigenvalues not converged
     c_bands:  1 eigenvalues not converged
     ethr =  1.00E-06,  avg # of iterations =  9.9

     total cpu time spent up to now is     4108.3 secs

     total energy              =    -229.95821964 Ry
     Harris-Foulkes estimate   =    -235.49198957 Ry
     estimated scf accuracy    <       6.99204471 Ry

     iteration #  2     ecut=    50.00 Ry     beta=0.60
     Davidson diagonalization with overlap
     ethr =  1.00E-02,  avg # of iterations =  5.1

     total cpu time spent up to now is     4133.9 secs

     total energy              =    -233.84165614 Ry
     Harris-Foulkes estimate   =    -242.26294857 Ry
     estimated scf accuracy    <      23.58045172 Ry

     iteration #  3     ecut=    50.00 Ry     beta=0.60
     Davidson diagonalization with overlap
     ethr =  1.00E-02,  avg # of iterations =  4.1

     total cpu time spent up to now is     4152.9 secs

     total energy              =    -234.99328125 Ry
     Harris-Foulkes estimate   =    -235.28425455 Ry
     estimated scf accuracy    <       4.20319622 Ry

     iteration #  4     ecut=    50.00 Ry     beta=0.60
     Davidson diagonalization with overlap
     ethr =  1.00E-02,  avg # of iterations =  1.0

     total cpu time spent up to now is     4164.2 secs

     total energy              =    -234.49982674 Ry
     Harris-Foulkes estimate   =    -235.01307699 Ry
     estimated scf accuracy    <       3.13845426 Ry

     iteration #  5     ecut=    50.00 Ry     beta=0.60
     Davidson diagonalization with overlap
     ethr =  1.00E-02,  avg # of iterations =  1.4

     total cpu time spent up to now is     4175.7 secs

     total energy              =    -234.44603796 Ry
     Harris-Foulkes estimate   =    -234.60927394 Ry
     estimated scf accuracy    <       0.65115454 Ry

     iteration #  6     ecut=    50.00 Ry     beta=0.60
     Davidson diagonalization with overlap
     ethr =  2.60E-03,  avg # of iterations =  4.4

     total cpu time spent up to now is     4193.3 secs

     total energy              =    -234.54663750 Ry
     Harris-Foulkes estimate   =    -234.61105115 Ry
     estimated scf accuracy    <       0.42397792 Ry

     iteration #  7     ecut=    50.00 Ry     beta=0.60
     Davidson diagonalization with overlap
     ethr =  1.70E-03,  avg # of iterations =  1.2

     total cpu time spent up to now is     4204.7 secs

     total energy              =    -234.57726430 Ry
     Harris-Foulkes estimate   =    -234.57711367 Ry
     estimated scf accuracy    <       0.00364330 Ry

     iteration #  8     ecut=    50.00 Ry     beta=0.60
     Davidson diagonalization with overlap
     ethr =  1.46E-05,  avg # of iterations =  5.4

     total cpu time spent up to now is     4229.1 secs

     total energy              =    -234.57550534 Ry
     Harris-Foulkes estimate   =    -234.58316880 Ry
     estimated scf accuracy    <       0.02798917 Ry

     iteration #  9     ecut=    50.00 Ry     beta=0.60
     Davidson diagonalization with overlap
     ethr =  1.46E-05,  avg # of iterations =  4.6

     total cpu time spent up to now is     4249.4 secs

     total energy              =    -234.57942731 Ry
     Harris-Foulkes estimate   =    -234.58362947 Ry
     estimated scf accuracy    <       0.03060098 Ry

     iteration # 10     ecut=    50.00 Ry     beta=0.60
     Davidson diagonalization with overlap
     ethr =  1.46E-05,  avg # of iterations =  4.0

     total cpu time spent up to now is     4265.0 secs

     total energy              =    -234.58098231 Ry
     Harris-Foulkes estimate   =    -234.58117204 Ry
     estimated scf accuracy    <       0.00046708 Ry

     iteration # 11     ecut=    50.00 Ry     beta=0.60
     Davidson diagonalization with overlap
     ethr =  1.87E-06,  avg # of iterations =  4.8

     total cpu time spent up to now is     4285.8 secs

     total energy              =    -234.58085988 Ry
     Harris-Foulkes estimate   =    -234.58133511 Ry
     estimated scf accuracy    <       0.00246705 Ry

     iteration # 12     ecut=    50.00 Ry     beta=0.60
     Davidson diagonalization with overlap
     ethr =  1.87E-06,  avg # of iterations =  4.3

     total cpu time spent up to now is     4302.1 secs

     total energy              =    -234.58113220 Ry
     Harris-Foulkes estimate   =    -234.58115259 Ry
     estimated scf accuracy    <       0.00021501 Ry

     iteration # 13     ecut=    50.00 Ry     beta=0.60
     Davidson diagonalization with overlap
     ethr =  8.60E-07,  avg # of iterations =  1.0

     total cpu time spent up to now is     4313.3 secs

     total energy              =    -234.58113004 Ry
     Harris-Foulkes estimate   =    -234.58113830 Ry
     estimated scf accuracy    <       0.00004757 Ry

     iteration # 14     ecut=    50.00 Ry     beta=0.60
     Davidson diagonalization with overlap
     ethr =  1.90E-07,  avg # of iterations =  2.6

     total cpu time spent up to now is     4326.6 secs

     total energy              =    -234.58113677 Ry
     Harris-Foulkes estimate   =    -234.58113731 Ry
     estimated scf accuracy    <       0.00000612 Ry

     iteration # 15     ecut=    50.00 Ry     beta=0.60
     Davidson diagonalization with overlap
     ethr =  2.45E-08,  avg # of iterations =  1.9

     total cpu time spent up to now is     4338.7 secs

     total energy              =    -234.58113679 Ry
     Harris-Foulkes estimate   =    -234.58113704 Ry
     estimated scf accuracy    <       0.00000195 Ry

     iteration # 16     ecut=    50.00 Ry     beta=0.60
     Davidson diagonalization with overlap
     ethr =  7.79E-09,  avg # of iterations =  1.9

     total cpu time spent up to now is     4350.8 secs

     total energy              =    -234.58113684 Ry
     Harris-Foulkes estimate   =    -234.58113689 Ry
     estimated scf accuracy    <       0.00000021 Ry

     iteration # 17     ecut=    50.00 Ry     beta=0.60
     Davidson diagonalization with overlap
     ethr =  8.55E-10,  avg # of iterations =  3.7

     total cpu time spent up to now is     4365.9 secs

     total energy              =    -234.58113688 Ry
     Harris-Foulkes estimate   =    -234.58113689 Ry
     estimated scf accuracy    <       0.00000002 Ry

     iteration # 18     ecut=    50.00 Ry     beta=0.60
     Davidson diagonalization with overlap
     ethr =  9.50E-11,  avg # of iterations =  1.9

     total cpu time spent up to now is     4378.2 secs

     total energy              =    -234.58113688 Ry
     Harris-Foulkes estimate   =    -234.58113689 Ry
     estimated scf accuracy    <          5.7E-10 Ry

     iteration # 19     ecut=    50.00 Ry     beta=0.60
     Davidson diagonalization with overlap
     ethr =  2.27E-12,  avg # of iterations =  4.2

     total cpu time spent up to now is     4397.4 secs

     total energy              =    -234.58113689 Ry
     Harris-Foulkes estimate   =    -234.58113689 Ry
     estimated scf accuracy    <          4.6E-10 Ry

     iteration # 20     ecut=    50.00 Ry     beta=0.60
     Davidson diagonalization with overlap
     ethr =  1.85E-12,  avg # of iterations =  1.1

     total cpu time spent up to now is     4408.6 secs

     total energy              =    -234.58113689 Ry
     Harris-Foulkes estimate   =    -234.58113689 Ry
     estimated scf accuracy    <          1.7E-11 Ry

     iteration # 21     ecut=    50.00 Ry     beta=0.60
     Davidson diagonalization with overlap
     ethr =  1.00E-13,  avg # of iterations =  3.8

     total cpu time spent up to now is     4424.4 secs

     total energy              =    -234.58113689 Ry
     Harris-Foulkes estimate   =    -234.58113689 Ry
     estimated scf accuracy    <          2.2E-11 Ry

     iteration # 22     ecut=    50.00 Ry     beta=0.60
     Davidson diagonalization with overlap
     ethr =  1.00E-13,  avg # of iterations =  1.0

     total cpu time spent up to now is     4435.6 secs

     total energy              =    -234.58113689 Ry
     Harris-Foulkes estimate   =    -234.58113689 Ry
     estimated scf accuracy    <          1.1E-12 Ry

     iteration # 23     ecut=    50.00 Ry     beta=0.60
     Davidson diagonalization with overlap
     ethr =  1.00E-13,  avg # of iterations =  1.0

     total cpu time spent up to now is     4446.7 secs

     End of self-consistent calculation

     Number of k-points >= 100: set verbosity='high' to print the bands.

     the Fermi energy is    15.7355 ev

!    total energy              =    -234.58113689 Ry
     Harris-Foulkes estimate   =    -234.58113689 Ry
     estimated scf accuracy    <          5.6E-14 Ry

     The total energy is the sum of the following terms:

     one-electron contribution =     -56.87591591 Ry
     hartree contribution      =      39.20656503 Ry
     xc contribution           =     -32.98442665 Ry
     ewald contribution        =    -183.92747347 Ry
     smearing contrib. (-TS)   =       0.00011411 Ry

     convergence has been achieved in  23 iterations

     Forces acting on atoms (Ry/au):

     atom    1 type  2   force =    -0.00000000    0.00000000    0.00000000
     atom    2 type  1   force =    -0.00000000    0.00000000    0.00000000

     Total force =     0.000000     Total SCF correction =     0.000000


     entering subroutine stress ...

          total   stress  (Ry/bohr**3)                   (kbar)     P=   -0.84
  -0.00000571   0.00000000  -0.00000000         -0.84      0.00     -0.00
  -0.00000000  -0.00000575   0.00000065         -0.00     -0.85      0.09
   0.00000000   0.00000065  -0.00000575          0.00      0.09     -0.85


     init_run     :     15.49s CPU     17.18s WALL (       2 calls)
     electrons    :   4041.48s CPU   4296.91s WALL (      14 calls)
     update_pot   :     16.89s CPU     17.05s WALL (      12 calls)
     forces       :     33.59s CPU     34.44s WALL (      14 calls)
     stress       :     82.64s CPU     84.93s WALL (      14 calls)

     Called by init_run:
     wfcinit      :     13.07s CPU     14.51s WALL (       2 calls)
     potinit      :      0.59s CPU      0.76s WALL (       2 calls)

     Called by electrons:
     c_bands      :   3536.57s CPU   3744.76s WALL (     253 calls)
     sum_band     :    470.10s CPU    510.42s WALL (     253 calls)
     v_of_rho     :      8.66s CPU      9.26s WALL (     259 calls)
     newd         :     26.05s CPU     32.65s WALL (     259 calls)
     mix_rho      :      1.05s CPU      1.10s WALL (     253 calls)

     Called by c_bands:
     init_us_2    :    101.72s CPU    106.95s WALL (  375200 calls)
     cegterg      :   3349.79s CPU   3550.83s WALL (  177100 calls)

     Called by sum_band:
     sum_band:bec :      4.65s CPU      5.03s WALL (  177100 calls)
     addusdens    :     26.44s CPU     34.44s WALL (     253 calls)

     Called by *egterg:
     h_psi        :   1922.70s CPU   2046.89s WALL (  652493 calls)
     s_psi        :    180.52s CPU    193.90s WALL (  652493 calls)
     g_psi        :     14.09s CPU     14.80s WALL (  473993 calls)
     cdiaghg      :    394.19s CPU    413.28s WALL (  637093 calls)

     Called by h_psi:
     h_psi:pot    :   1903.14s CPU   2025.90s WALL (  652493 calls)
     h_psi:calbec :    261.77s CPU    283.90s WALL (  652493 calls)
     vloc_psi     :   1460.90s CPU   1546.73s WALL (  652493 calls)
     add_vuspsi   :    177.98s CPU    192.84s WALL (  652493 calls)

     General routines
     calbec       :    360.24s CPU    388.78s WALL (  878593 calls)
     fft          :      5.14s CPU      5.50s WALL (    4482 calls)
     ffts         :      0.08s CPU      0.09s WALL (     512 calls)
     fftw         :   1374.48s CPU   1459.96s WALL (17960824 calls)
     interpolate  :      0.81s CPU      0.87s WALL (     512 calls)

     Parallel routines
     fft_scatter  :    471.08s CPU    505.22s WALL (17965818 calls)

     PWSCF        :     1h 9m CPU        1h14m WALL


   This run was terminated on:  12:22: 2  26Apr2018            

=------------------------------------------------------------------------------=
   JOB DONE.
=------------------------------------------------------------------------------=
