
     Program PWSCF v.6.0 (svn rev. 13079) starts on  9May2018 at 16:45:28 

     This program is part of the open-source Quantum ESPRESSO suite
     for quantum simulation of materials; please cite
         "P. Giannozzi et al., J. Phys.:Condens. Matter 21 395502 (2009);
          URL http://www.quantum-espresso.org", 
     in publications or presentations arising from this work. More details at
     http://www.quantum-espresso.org/quote

     Parallel version (MPI), running on     4 processors
     R & G space division:  proc/nbgrp/npool/nimage =       4
     Waiting for input...
     Reading input from standard input

     Current dimensions of program PWSCF are:
     Max number of different atomic species (ntypx) = 10
     Max number of k-points (npk) =  40000
     Max angular momentum in pseudopotentials (lmaxx) =  3

     Subspace diagonalization in iterative solution of the eigenvalue problem:
     a serial algorithm will be used


     Parallelization info
     --------------------
     sticks:   dense  smooth     PW     G-vecs:    dense   smooth      PW
     Min         681     274     78                27327     6928    1090
     Max         682     275     79                27332     6929    1095
     Sum        2725    1099    313               109319    27715    4365



     bravais-lattice index     =            0
     lattice parameter (alat)  =       1.8897  a.u.
     unit-cell volume          =     808.3427 (a.u.)^3
     number of atoms/cell      =            6
     number of atomic types    =            2
     number of electrons       =        74.00
     number of Kohn-Sham states=           44
     kinetic-energy cutoff     =      40.0000  Ry
     charge density cutoff     =     400.0000  Ry
     convergence threshold     =      1.0E-10
     mixing beta               =       0.6000
     number of iterations used =            8  plain     mixing
     Exchange-correlation      = SLA  PW   PBE  PBE ( 1  4  3  4 0 0)
     nstep                     =           50


     celldm(1)=   1.889726  celldm(2)=   0.000000  celldm(3)=   0.000000
     celldm(4)=   0.000000  celldm(5)=   0.000000  celldm(6)=   0.000000

     crystal axes: (cart. coord. in units of alat)
               a(1) = (   4.567506  -2.637051   0.000000 )  
               a(2) = (  -4.567506  -2.637051   0.000000 )  
               a(3) = (   0.000000   0.000000  -4.972461 )  

     reciprocal axes: (cart. coord. in units 2 pi/alat)
               b(1) = (  0.109469 -0.189606  0.000000 )  
               b(2) = ( -0.109469 -0.189606 -0.000000 )  
               b(3) = (  0.000000 -0.000000 -0.201108 )  


     PseudoPot. # 1 for Nb read from file:
     ./Nb.pbe-nsp-van.UPF
     MD5 check sum: 0a22fc7fb0ba19a08ca5db297a5d2854
     Pseudo is Ultrasoft + core correction, Zval = 13.0
     Generated by new atomic code, or converted to UPF format
     Using radial grid of  887 points,  6 beta functions with: 
                l(1) =   0
                l(2) =   0
                l(3) =   1
                l(4) =   1
                l(5) =   2
                l(6) =   2
     Q(r) pseudized with  6 coefficients,  rinner =    1.000   1.000   1.000
                                                       1.000   1.000

     PseudoPot. # 2 for Ti read from file:
     ./Ti.pbe-sp-van_ak.UPF
     MD5 check sum: f98fea3e8887528921fefa5636a534ca
     Pseudo is Ultrasoft, Zval = 12.0
     Generated by new atomic code, or converted to UPF format
     Using radial grid of  851 points,  6 beta functions with: 
                l(1) =   0
                l(2) =   0
                l(3) =   1
                l(4) =   1
                l(5) =   2
                l(6) =   2
     Q(r) pseudized with  8 coefficients,  rinner =    1.000   1.000   1.000
                                                       1.000   1.000

     atomic species   valence    mass     pseudopotential
        Nb            13.00    92.90638     Nb( 1.00)
        Ti            12.00    47.86700     Ti( 1.00)

      2 Sym. Ops. (no inversion) found
          (note:  6 additional sym.ops. were found but ignored
           their fractional translations are incommensurate with FFT grid)


   Cartesian axes

     site n.     atom                  positions (alat units)
         1           Ti  tau(   1) = (   0.0000000  -5.2741024  -4.9724614  )
         2           Ti  tau(   2) = (   0.0000015  -1.7580350  -2.4862307  )
         3           Ti  tau(   3) = (  -1.5225021  -2.6370512  -4.9724614  )
         4           Ti  tau(   4) = (  -1.5225006  -4.3950862  -2.4862307  )
         5           Nb  tau(   5) = (   1.5225021  -2.6370512  -4.9724614  )
         6           Nb  tau(   6) = (   1.5225036  -4.3950862  -2.4862307  )

     number of k points=   427  Marzari-Vanderbilt smearing, width (Ry)=  0.0200

     Number of k-points >= 100: set verbosity='high' to print them.

     Dense  grid:   109319 G-vectors     FFT dimensions: (  64,  64,  60)

     Smooth grid:    27715 G-vectors     FFT dimensions: (  45,  45,  40)

     Estimated max dynamical RAM per process >     270.49Mb

     Estimated total allocated dynamical RAM >    1081.95Mb

     Initial potential from superposition of free atoms

     starting charge   69.99436, renormalised to   74.00000
     Starting wfc are   66 randomized atomic wfcs

     total cpu time spent up to now is       57.1 secs

     per-process dynamical memory:   347.8 Mb

     Self-consistent Calculation

     iteration #  1     ecut=    40.00 Ry     beta=0.60
     Davidson diagonalization with overlap
     ethr =  1.00E-02,  avg # of iterations =  3.5

     total cpu time spent up to now is      195.4 secs

     total energy              =    -697.54956107 Ry
     Harris-Foulkes estimate   =    -704.32064147 Ry
     estimated scf accuracy    <       8.79226416 Ry

     iteration #  2     ecut=    40.00 Ry     beta=0.60
     Davidson diagonalization with overlap
     ethr =  1.00E-02,  avg # of iterations =  4.6

     total cpu time spent up to now is      383.1 secs

     total energy              =    -697.30131274 Ry
     Harris-Foulkes estimate   =    -713.21134061 Ry
     estimated scf accuracy    <      54.41935312 Ry

     iteration #  3     ecut=    40.00 Ry     beta=0.60
     Davidson diagonalization with overlap
     ethr =  1.00E-02,  avg # of iterations =  5.0

     total cpu time spent up to now is      541.9 secs

     total energy              =    -702.26113886 Ry
     Harris-Foulkes estimate   =    -702.38361257 Ry
     estimated scf accuracy    <       0.37921555 Ry

     iteration #  4     ecut=    40.00 Ry     beta=0.60
     Davidson diagonalization with overlap
     ethr =  5.12E-04,  avg # of iterations =  7.1

     total cpu time spent up to now is      774.5 secs

     total energy              =    -702.33961063 Ry
     Harris-Foulkes estimate   =    -702.42328329 Ry
     estimated scf accuracy    <       0.31602858 Ry

     iteration #  5     ecut=    40.00 Ry     beta=0.60
     Davidson diagonalization with overlap
     ethr =  4.27E-04,  avg # of iterations =  4.5

     total cpu time spent up to now is      914.8 secs

     total energy              =    -702.43532787 Ry
     Harris-Foulkes estimate   =    -702.43373384 Ry
     estimated scf accuracy    <       0.40246373 Ry

     iteration #  6     ecut=    40.00 Ry     beta=0.60
     Davidson diagonalization with overlap
     ethr =  4.27E-04,  avg # of iterations =  1.4

     total cpu time spent up to now is     1004.2 secs

     total energy              =    -702.41148584 Ry
     Harris-Foulkes estimate   =    -702.43646358 Ry
     estimated scf accuracy    <       0.41407954 Ry

     iteration #  7     ecut=    40.00 Ry     beta=0.60
     Davidson diagonalization with overlap
     ethr =  4.27E-04,  avg # of iterations =  1.0

     total cpu time spent up to now is     1092.5 secs

     total energy              =    -702.36014522 Ry
     Harris-Foulkes estimate   =    -702.41315109 Ry
     estimated scf accuracy    <       0.29936550 Ry

     iteration #  8     ecut=    40.00 Ry     beta=0.60
     Davidson diagonalization with overlap
     ethr =  4.05E-04,  avg # of iterations =  1.7

     total cpu time spent up to now is     1183.7 secs

     total energy              =    -702.36668607 Ry
     Harris-Foulkes estimate   =    -702.37800122 Ry
     estimated scf accuracy    <       0.06994524 Ry

     iteration #  9     ecut=    40.00 Ry     beta=0.60
     Davidson diagonalization with overlap
     ethr =  9.45E-05,  avg # of iterations =  4.6

     total cpu time spent up to now is     1327.9 secs

     total energy              =    -702.38483835 Ry
     Harris-Foulkes estimate   =    -702.38664469 Ry
     estimated scf accuracy    <       0.03654226 Ry

     iteration # 10     ecut=    40.00 Ry     beta=0.60
     Davidson diagonalization with overlap
     ethr =  4.94E-05,  avg # of iterations =  1.3

     total cpu time spent up to now is     1417.9 secs

     total energy              =    -702.38356728 Ry
     Harris-Foulkes estimate   =    -702.38556302 Ry
     estimated scf accuracy    <       0.02533168 Ry

     iteration # 11     ecut=    40.00 Ry     beta=0.60
     Davidson diagonalization with overlap
     ethr =  3.42E-05,  avg # of iterations =  1.1

     total cpu time spent up to now is     1506.7 secs

     total energy              =    -702.38138561 Ry
     Harris-Foulkes estimate   =    -702.38402315 Ry
     estimated scf accuracy    <       0.01193216 Ry

     iteration # 12     ecut=    40.00 Ry     beta=0.60
     Davidson diagonalization with overlap
     ethr =  1.61E-05,  avg # of iterations =  4.5

     total cpu time spent up to now is     1648.0 secs

     total energy              =    -702.38310087 Ry
     Harris-Foulkes estimate   =    -702.38415079 Ry
     estimated scf accuracy    <       0.00728211 Ry

     iteration # 13     ecut=    40.00 Ry     beta=0.60
     Davidson diagonalization with overlap
     c_bands:  1 eigenvalues not converged
     ethr =  9.84E-06,  avg # of iterations =  1.8

     total cpu time spent up to now is     1742.1 secs

     total energy              =    -702.38345086 Ry
     Harris-Foulkes estimate   =    -702.38357227 Ry
     estimated scf accuracy    <       0.00251516 Ry

     iteration # 14     ecut=    40.00 Ry     beta=0.60
     Davidson diagonalization with overlap
     ethr =  3.40E-06,  avg # of iterations =  5.4

     total cpu time spent up to now is     1870.6 secs

     total energy              =    -702.38378058 Ry
     Harris-Foulkes estimate   =    -702.38376438 Ry
     estimated scf accuracy    <       0.00300377 Ry

     iteration # 15     ecut=    40.00 Ry     beta=0.60
     Davidson diagonalization with overlap
     ethr =  3.40E-06,  avg # of iterations =  1.7

     total cpu time spent up to now is     1962.9 secs

     total energy              =    -702.38323375 Ry
     Harris-Foulkes estimate   =    -702.38394082 Ry
     estimated scf accuracy    <       0.00421335 Ry

     iteration # 16     ecut=    40.00 Ry     beta=0.60
     Davidson diagonalization with overlap
     ethr =  3.40E-06,  avg # of iterations =  2.5

     total cpu time spent up to now is     2059.6 secs

     total energy              =    -702.38338874 Ry
     Harris-Foulkes estimate   =    -702.38346999 Ry
     estimated scf accuracy    <       0.00061334 Ry

     iteration # 17     ecut=    40.00 Ry     beta=0.60
     Davidson diagonalization with overlap
     c_bands:  1 eigenvalues not converged
     c_bands:  1 eigenvalues not converged
     ethr =  8.29E-07,  avg # of iterations =  6.1

     total cpu time spent up to now is     2215.1 secs

     total energy              =    -702.38348221 Ry
     Harris-Foulkes estimate   =    -702.38353593 Ry
     estimated scf accuracy    <       0.00035298 Ry

     iteration # 18     ecut=    40.00 Ry     beta=0.60
     Davidson diagonalization with overlap
     ethr =  4.77E-07,  avg # of iterations =  3.7

     total cpu time spent up to now is     2319.6 secs

     total energy              =    -702.38347648 Ry
     Harris-Foulkes estimate   =    -702.38352483 Ry
     estimated scf accuracy    <       0.00031074 Ry

     iteration # 19     ecut=    40.00 Ry     beta=0.60
     Davidson diagonalization with overlap
     ethr =  4.20E-07,  avg # of iterations =  3.9

     total cpu time spent up to now is     2430.6 secs

     total energy              =    -702.38349360 Ry
     Harris-Foulkes estimate   =    -702.38351850 Ry
     estimated scf accuracy    <       0.00019191 Ry

     iteration # 20     ecut=    40.00 Ry     beta=0.60
     Davidson diagonalization with overlap
     ethr =  2.59E-07,  avg # of iterations =  1.3

     total cpu time spent up to now is     2520.1 secs

     total energy              =    -702.38350342 Ry
     Harris-Foulkes estimate   =    -702.38350486 Ry
     estimated scf accuracy    <       0.00000999 Ry

     iteration # 21     ecut=    40.00 Ry     beta=0.60
     Davidson diagonalization with overlap
     ethr =  1.35E-08,  avg # of iterations =  5.8

     total cpu time spent up to now is     2695.3 secs

     total energy              =    -702.38350936 Ry
     Harris-Foulkes estimate   =    -702.38351109 Ry
     estimated scf accuracy    <       0.00001991 Ry

     iteration # 22     ecut=    40.00 Ry     beta=0.60
     Davidson diagonalization with overlap
     ethr =  1.35E-08,  avg # of iterations =  1.0

     total cpu time spent up to now is     2783.9 secs

     total energy              =    -702.38350889 Ry
     Harris-Foulkes estimate   =    -702.38350971 Ry
     estimated scf accuracy    <       0.00000657 Ry

     iteration # 23     ecut=    40.00 Ry     beta=0.60
     Davidson diagonalization with overlap
     ethr =  8.87E-09,  avg # of iterations =  4.0

     total cpu time spent up to now is     2910.0 secs

     total energy              =    -702.38350967 Ry
     Harris-Foulkes estimate   =    -702.38350972 Ry
     estimated scf accuracy    <       0.00000086 Ry

     iteration # 24     ecut=    40.00 Ry     beta=0.60
     Davidson diagonalization with overlap
     ethr =  1.17E-09,  avg # of iterations =  2.8

     total cpu time spent up to now is     3010.7 secs

     total energy              =    -702.38350966 Ry
     Harris-Foulkes estimate   =    -702.38350972 Ry
     estimated scf accuracy    <       0.00000050 Ry

     iteration # 25     ecut=    40.00 Ry     beta=0.60
     Davidson diagonalization with overlap
     ethr =  6.78E-10,  avg # of iterations =  3.2

     total cpu time spent up to now is     3110.9 secs

     total energy              =    -702.38350969 Ry
     Harris-Foulkes estimate   =    -702.38350969 Ry
     estimated scf accuracy    <       0.00000007 Ry

     iteration # 26     ecut=    40.00 Ry     beta=0.60
     Davidson diagonalization with overlap
     ethr =  9.65E-11,  avg # of iterations =  4.9

     total cpu time spent up to now is     3251.5 secs

     total energy              =    -702.38350970 Ry
     Harris-Foulkes estimate   =    -702.38350970 Ry
     estimated scf accuracy    <       0.00000003 Ry

     iteration # 27     ecut=    40.00 Ry     beta=0.60
     Davidson diagonalization with overlap
     ethr =  4.30E-11,  avg # of iterations =  1.0

     total cpu time spent up to now is     3340.0 secs

     total energy              =    -702.38350970 Ry
     Harris-Foulkes estimate   =    -702.38350970 Ry
     estimated scf accuracy    <       0.00000003 Ry

     iteration # 28     ecut=    40.00 Ry     beta=0.60
     Davidson diagonalization with overlap
     ethr =  3.49E-11,  avg # of iterations =  1.0

     total cpu time spent up to now is     3428.6 secs

     total energy              =    -702.38350970 Ry
     Harris-Foulkes estimate   =    -702.38350970 Ry
     estimated scf accuracy    <       0.00000002 Ry

     iteration # 29     ecut=    40.00 Ry     beta=0.60
     Davidson diagonalization with overlap
     ethr =  2.55E-11,  avg # of iterations =  4.0

     total cpu time spent up to now is     3547.1 secs

     total energy              =    -702.38350970 Ry
     Harris-Foulkes estimate   =    -702.38350970 Ry
     estimated scf accuracy    <       0.00000001 Ry

     iteration # 30     ecut=    40.00 Ry     beta=0.60
     Davidson diagonalization with overlap
     ethr =  2.00E-11,  avg # of iterations =  1.0

     total cpu time spent up to now is     3635.6 secs

     total energy              =    -702.38350970 Ry
     Harris-Foulkes estimate   =    -702.38350970 Ry
     estimated scf accuracy    <          6.9E-09 Ry

     iteration # 31     ecut=    40.00 Ry     beta=0.60
     Davidson diagonalization with overlap
     ethr =  9.30E-12,  avg # of iterations =  2.9

     total cpu time spent up to now is     3736.1 secs

     total energy              =    -702.38350970 Ry
     Harris-Foulkes estimate   =    -702.38350970 Ry
     estimated scf accuracy    <          1.3E-09 Ry

     iteration # 32     ecut=    40.00 Ry     beta=0.60
     Davidson diagonalization with overlap
     ethr =  1.76E-12,  avg # of iterations =  5.1

     total cpu time spent up to now is     3887.8 secs

     total energy              =    -702.38350970 Ry
     Harris-Foulkes estimate   =    -702.38350970 Ry
     estimated scf accuracy    <          8.0E-10 Ry

     iteration # 33     ecut=    40.00 Ry     beta=0.60
     Davidson diagonalization with overlap
     ethr =  1.08E-12,  avg # of iterations =  1.0

     total cpu time spent up to now is     3976.2 secs

     total energy              =    -702.38350970 Ry
     Harris-Foulkes estimate   =    -702.38350970 Ry
     estimated scf accuracy    <          1.6E-10 Ry

     iteration # 34     ecut=    40.00 Ry     beta=0.60
     Davidson diagonalization with overlap
     ethr =  2.20E-13,  avg # of iterations =  4.4

     total cpu time spent up to now is     4093.9 secs

     End of self-consistent calculation

     Number of k-points >= 100: set verbosity='high' to print the bands.

     the Fermi energy is    13.0088 ev

!    total energy              =    -702.38350970 Ry
     Harris-Foulkes estimate   =    -702.38350970 Ry
     estimated scf accuracy    <          3.0E-11 Ry

     The total energy is the sum of the following terms:

     one-electron contribution =    -231.18880729 Ry
     hartree contribution      =     137.68834046 Ry
     xc contribution           =     -94.33458813 Ry
     ewald contribution        =    -514.54027695 Ry
     smearing contrib. (-TS)   =      -0.00817778 Ry

     convergence has been achieved in  34 iterations

     Forces acting on atoms (Ry/au):

     atom    1 type  2   force =     0.00127487    0.00114976    0.00000000
     atom    2 type  2   force =     0.00129579   -0.00116298    0.00000000
     atom    3 type  2   force =    -0.00128177    0.00115042   -0.00000000
     atom    4 type  2   force =    -0.00127830   -0.00113067   -0.00000000
     atom    5 type  1   force =    -0.00000461   -0.00390433    0.00000000
     atom    6 type  1   force =    -0.00000599    0.00389781    0.00000000

     Total force =     0.006503     Total SCF correction =     0.000006


     entering subroutine stress ...

          total   stress  (Ry/bohr**3)                   (kbar)     P= -130.28
  -0.00088918   0.00000000   0.00000000       -130.80      0.00      0.00
   0.00000000  -0.00089216   0.00000000          0.00   -131.24      0.00
   0.00000000   0.00000000  -0.00087554          0.00      0.00   -128.80


     BFGS Geometry Optimization

     number of scf cycles    =   1
     number of bfgs steps    =   0

     enthalpy new            =    -702.3835096988 Ry

     new trust radius        =       0.1268262631 bohr
     new conv_thr            =            1.0E-10 Ry

     new unit-cell volume =    755.83105 a.u.^3 (   112.00260 Ang^3 )

CELL_PARAMETERS (alat=  1.88972599)
   4.465972460  -2.578234008   0.000000000
  -4.465972905  -2.578234779   0.000000000
   0.000000000   0.000000000  -4.863621444

ATOMIC_POSITIONS (angstrom)
Ti       0.000659192  -5.155873932  -4.863621444
Ti       0.000671800  -1.719425484  -2.431810722
Ti      -1.489320989  -2.577639326  -4.863621444
Ti      -1.489317850  -4.297643293  -2.431810722
Nb       1.488654953  -2.580254267  -4.863621444
Nb       1.488655581  -4.295041426  -2.431810722


     NEW-OLD atomic charge density approx. for the potential
     extrapolated charge   69.13711, renormalised to   74.00000

     total cpu time spent up to now is     4143.7 secs

     per-process dynamical memory:   358.0 Mb

     Self-consistent Calculation

     iteration #  1     ecut=    40.00 Ry     beta=0.60
     Davidson diagonalization with overlap
     c_bands:  2 eigenvalues not converged
     c_bands:  1 eigenvalues not converged
     c_bands:  1 eigenvalues not converged
     c_bands:  1 eigenvalues not converged
     c_bands:  1 eigenvalues not converged
     c_bands:  1 eigenvalues not converged
     c_bands:  1 eigenvalues not converged
     c_bands:  1 eigenvalues not converged
     c_bands:  1 eigenvalues not converged
     c_bands:  1 eigenvalues not converged
     c_bands:  2 eigenvalues not converged
     c_bands:  1 eigenvalues not converged
     c_bands:  2 eigenvalues not converged
     c_bands:  1 eigenvalues not converged
     c_bands:  1 eigenvalues not converged
     c_bands:  2 eigenvalues not converged
     c_bands:  1 eigenvalues not converged
     c_bands:  1 eigenvalues not converged
     c_bands:  1 eigenvalues not converged
     c_bands:  2 eigenvalues not converged
     c_bands:  1 eigenvalues not converged
     c_bands:  2 eigenvalues not converged
     c_bands:  2 eigenvalues not converged
     c_bands:  1 eigenvalues not converged
     c_bands:  1 eigenvalues not converged
     c_bands:  2 eigenvalues not converged
     c_bands:  1 eigenvalues not converged
     c_bands:  1 eigenvalues not converged
     c_bands:  1 eigenvalues not converged
     c_bands:  1 eigenvalues not converged
     c_bands:  1 eigenvalues not converged
     c_bands:  1 eigenvalues not converged
     c_bands:  1 eigenvalues not converged
     c_bands:  2 eigenvalues not converged
     c_bands:  2 eigenvalues not converged
     c_bands:  1 eigenvalues not converged
     c_bands:  1 eigenvalues not converged
     c_bands:  2 eigenvalues not converged
     c_bands:  1 eigenvalues not converged
     c_bands:  1 eigenvalues not converged
     c_bands:  1 eigenvalues not converged
     c_bands:  1 eigenvalues not converged
     c_bands:  2 eigenvalues not converged
     c_bands:  1 eigenvalues not converged
     c_bands:  2 eigenvalues not converged
     c_bands:  2 eigenvalues not converged
     c_bands:  1 eigenvalues not converged
     c_bands:  1 eigenvalues not converged
     c_bands:  1 eigenvalues not converged
     c_bands:  1 eigenvalues not converged
     c_bands:  1 eigenvalues not converged
     c_bands:  1 eigenvalues not converged
     c_bands:  1 eigenvalues not converged
     c_bands:  1 eigenvalues not converged
     c_bands:  1 eigenvalues not converged
     c_bands:  1 eigenvalues not converged
     c_bands:  1 eigenvalues not converged
     c_bands:  1 eigenvalues not converged
     c_bands:  1 eigenvalues not converged
     c_bands:  1 eigenvalues not converged
     c_bands:  1 eigenvalues not converged
     c_bands:  1 eigenvalues not converged
     c_bands:  1 eigenvalues not converged
     c_bands:  1 eigenvalues not converged
     c_bands:  1 eigenvalues not converged
     c_bands:  1 eigenvalues not converged
     c_bands:  2 eigenvalues not converged
     c_bands:  1 eigenvalues not converged
     c_bands:  2 eigenvalues not converged
     c_bands:  1 eigenvalues not converged
     c_bands:  1 eigenvalues not converged
     c_bands:  1 eigenvalues not converged
     c_bands:  1 eigenvalues not converged
     c_bands:  1 eigenvalues not converged
     c_bands:  1 eigenvalues not converged
     c_bands:  2 eigenvalues not converged
     c_bands:  1 eigenvalues not converged
     c_bands:  1 eigenvalues not converged
     c_bands:  1 eigenvalues not converged
     c_bands:  1 eigenvalues not converged
     c_bands:  2 eigenvalues not converged
     c_bands:  1 eigenvalues not converged
     c_bands:  2 eigenvalues not converged
     c_bands:  2 eigenvalues not converged
     c_bands:  2 eigenvalues not converged
     c_bands:  1 eigenvalues not converged
     c_bands:  2 eigenvalues not converged
     c_bands:  1 eigenvalues not converged
     c_bands:  1 eigenvalues not converged
     c_bands:  1 eigenvalues not converged
     c_bands:  1 eigenvalues not converged
     c_bands:  1 eigenvalues not converged
     c_bands:  1 eigenvalues not converged
     c_bands:  1 eigenvalues not converged
     c_bands:  2 eigenvalues not converged
     c_bands:  1 eigenvalues not converged
     c_bands:  2 eigenvalues not converged
     c_bands:  1 eigenvalues not converged
     c_bands:  1 eigenvalues not converged
     c_bands:  1 eigenvalues not converged
     c_bands:  1 eigenvalues not converged
     c_bands:  2 eigenvalues not converged
     c_bands:  2 eigenvalues not converged
     c_bands:  1 eigenvalues not converged
     c_bands:  1 eigenvalues not converged
     c_bands:  1 eigenvalues not converged
     c_bands:  1 eigenvalues not converged
     c_bands:  1 eigenvalues not converged
     c_bands:  1 eigenvalues not converged
     c_bands:  2 eigenvalues not converged
     c_bands:  1 eigenvalues not converged
     c_bands:  2 eigenvalues not converged
     c_bands:  2 eigenvalues not converged
     c_bands:  1 eigenvalues not converged
     c_bands:  1 eigenvalues not converged
     c_bands:  1 eigenvalues not converged
     c_bands:  1 eigenvalues not converged
     c_bands:  1 eigenvalues not converged
     c_bands:  1 eigenvalues not converged
     c_bands:  1 eigenvalues not converged
     c_bands:  2 eigenvalues not converged
     c_bands:  2 eigenvalues not converged
     c_bands:  1 eigenvalues not converged
     c_bands:  1 eigenvalues not converged
     c_bands:  1 eigenvalues not converged
     c_bands:  1 eigenvalues not converged
     c_bands:  2 eigenvalues not converged
     c_bands:  1 eigenvalues not converged
     c_bands:  2 eigenvalues not converged
     c_bands:  1 eigenvalues not converged
     c_bands:  2 eigenvalues not converged
     c_bands:  1 eigenvalues not converged
     c_bands:  1 eigenvalues not converged
     c_bands:  1 eigenvalues not converged
     c_bands:  2 eigenvalues not converged
     c_bands:  2 eigenvalues not converged
     c_bands:  2 eigenvalues not converged
     c_bands:  2 eigenvalues not converged
     c_bands:  1 eigenvalues not converged
     c_bands:  1 eigenvalues not converged
     c_bands:  1 eigenvalues not converged
     c_bands:  2 eigenvalues not converged
     c_bands:  2 eigenvalues not converged
     c_bands:  1 eigenvalues not converged
     c_bands:  1 eigenvalues not converged
     c_bands:  1 eigenvalues not converged
     c_bands:  1 eigenvalues not converged
     c_bands:  1 eigenvalues not converged
     c_bands:  1 eigenvalues not converged
     c_bands:  2 eigenvalues not converged
     c_bands:  1 eigenvalues not converged
     c_bands:  1 eigenvalues not converged
     c_bands:  1 eigenvalues not converged
     c_bands:  2 eigenvalues not converged
     c_bands:  2 eigenvalues not converged
     c_bands:  2 eigenvalues not converged
     c_bands:  2 eigenvalues not converged
     c_bands:  1 eigenvalues not converged
     c_bands:  1 eigenvalues not converged
     c_bands:  2 eigenvalues not converged
     c_bands:  1 eigenvalues not converged
     c_bands:  2 eigenvalues not converged
     c_bands:  1 eigenvalues not converged
     c_bands:  1 eigenvalues not converged
     c_bands:  1 eigenvalues not converged
     c_bands:  2 eigenvalues not converged
     c_bands:  2 eigenvalues not converged
     c_bands:  1 eigenvalues not converged
     ethr =  1.00E-06,  avg # of iterations = 18.4

     total cpu time spent up to now is     4714.6 secs

     total energy              =    -694.98589869 Ry
     Harris-Foulkes estimate   =    -713.14021249 Ry
     estimated scf accuracy    <       7.77100722 Ry

     iteration #  2     ecut=    40.00 Ry     beta=0.60
     Davidson diagonalization with overlap
     ethr =  1.00E-02,  avg # of iterations =  5.0

     total cpu time spent up to now is     4977.8 secs

     total energy              =    -700.68399349 Ry
     Harris-Foulkes estimate   =    -714.65376474 Ry
     estimated scf accuracy    <      50.57442337 Ry

     iteration #  3     ecut=    40.00 Ry     beta=0.60
     Davidson diagonalization with overlap
     ethr =  1.00E-02,  avg # of iterations =  3.5

     total cpu time spent up to now is     5107.5 secs

     total energy              =    -702.62204548 Ry
     Harris-Foulkes estimate   =    -704.05767345 Ry
     estimated scf accuracy    <       6.85128888 Ry

     iteration #  4     ecut=    40.00 Ry     beta=0.60
     Davidson diagonalization with overlap
     ethr =  9.26E-03,  avg # of iterations =  2.0

     total cpu time spent up to now is     5200.2 secs

     total energy              =    -702.71978053 Ry
     Harris-Foulkes estimate   =    -702.88592585 Ry
     estimated scf accuracy    <       4.42374941 Ry

     iteration #  5     ecut=    40.00 Ry     beta=0.60
     Davidson diagonalization with overlap
     ethr =  5.98E-03,  avg # of iterations =  1.0

     total cpu time spent up to now is     5288.2 secs

     total energy              =    -702.15837246 Ry
     Harris-Foulkes estimate   =    -702.78230949 Ry
     estimated scf accuracy    <       3.65978424 Ry

     iteration #  6     ecut=    40.00 Ry     beta=0.60
     Davidson diagonalization with overlap
     ethr =  4.95E-03,  avg # of iterations =  3.0

     total cpu time spent up to now is     5387.1 secs

     total energy              =    -702.34836475 Ry
     Harris-Foulkes estimate   =    -702.34421060 Ry
     estimated scf accuracy    <       0.89675947 Ry

     iteration #  7     ecut=    40.00 Ry     beta=0.60
     Davidson diagonalization with overlap
     ethr =  1.21E-03,  avg # of iterations =  4.9

     total cpu time spent up to now is     5530.7 secs

     total energy              =    -702.49046921 Ry
     Harris-Foulkes estimate   =    -702.47071706 Ry
     estimated scf accuracy    <       0.30404732 Ry

     iteration #  8     ecut=    40.00 Ry     beta=0.60
     Davidson diagonalization with overlap
     ethr =  4.11E-04,  avg # of iterations =  2.2

     total cpu time spent up to now is     5624.0 secs

     total energy              =    -702.50045376 Ry
     Harris-Foulkes estimate   =    -702.49580595 Ry
     estimated scf accuracy    <       0.42086016 Ry

     iteration #  9     ecut=    40.00 Ry     beta=0.60
     Davidson diagonalization with overlap
     ethr =  4.11E-04,  avg # of iterations =  1.1

     total cpu time spent up to now is     5713.0 secs

     total energy              =    -702.47927066 Ry
     Harris-Foulkes estimate   =    -702.50167876 Ry
     estimated scf accuracy    <       0.45418741 Ry

     iteration # 10     ecut=    40.00 Ry     beta=0.60
     Davidson diagonalization with overlap
     ethr =  4.11E-04,  avg # of iterations =  1.0

     total cpu time spent up to now is     5801.1 secs

     total energy              =    -702.40174288 Ry
     Harris-Foulkes estimate   =    -702.48043965 Ry
     estimated scf accuracy    <       0.39241840 Ry

     iteration # 11     ecut=    40.00 Ry     beta=0.60
     Davidson diagonalization with overlap
     ethr =  4.11E-04,  avg # of iterations =  2.6

     total cpu time spent up to now is     5899.6 secs

     total energy              =    -702.42393367 Ry
     Harris-Foulkes estimate   =    -702.41737974 Ry
     estimated scf accuracy    <       0.13491096 Ry

     iteration # 12     ecut=    40.00 Ry     beta=0.60
     Davidson diagonalization with overlap
     ethr =  1.82E-04,  avg # of iterations =  1.6

     total cpu time spent up to now is     5990.1 secs

     total energy              =    -702.42658099 Ry
     Harris-Foulkes estimate   =    -702.42739636 Ry
     estimated scf accuracy    <       0.17848415 Ry

     iteration # 13     ecut=    40.00 Ry     beta=0.60
     Davidson diagonalization with overlap
     ethr =  1.82E-04,  avg # of iterations =  1.0

     total cpu time spent up to now is     6078.1 secs

     total energy              =    -702.42413513 Ry
     Harris-Foulkes estimate   =    -702.42800810 Ry
     estimated scf accuracy    <       0.15782815 Ry

     iteration # 14     ecut=    40.00 Ry     beta=0.60
     Davidson diagonalization with overlap
     ethr =  1.82E-04,  avg # of iterations =  1.0

     total cpu time spent up to now is     6166.0 secs

     total energy              =    -702.42213690 Ry
     Harris-Foulkes estimate   =    -702.42530543 Ry
     estimated scf accuracy    <       0.12357229 Ry

     iteration # 15     ecut=    40.00 Ry     beta=0.60
     Davidson diagonalization with overlap
     ethr =  1.67E-04,  avg # of iterations =  1.0

     total cpu time spent up to now is     6254.0 secs

     total energy              =    -702.40270148 Ry
     Harris-Foulkes estimate   =    -702.42362876 Ry
     estimated scf accuracy    <       0.07961863 Ry

     iteration # 16     ecut=    40.00 Ry     beta=0.60
     Davidson diagonalization with overlap
     ethr =  1.08E-04,  avg # of iterations =  6.2

     total cpu time spent up to now is     6414.9 secs

     total energy              =    -702.41711712 Ry
     Harris-Foulkes estimate   =    -702.42168318 Ry
     estimated scf accuracy    <       0.03272502 Ry

     iteration # 17     ecut=    40.00 Ry     beta=0.60
     Davidson diagonalization with overlap
     ethr =  4.42E-05,  avg # of iterations =  1.6

     total cpu time spent up to now is     6505.8 secs

     total energy              =    -702.41759619 Ry
     Harris-Foulkes estimate   =    -702.41847661 Ry
     estimated scf accuracy    <       0.00656611 Ry

     iteration # 18     ecut=    40.00 Ry     beta=0.60
     Davidson diagonalization with overlap
     ethr =  8.87E-06,  avg # of iterations =  6.1

     total cpu time spent up to now is     6671.1 secs

     total energy              =    -702.41929721 Ry
     Harris-Foulkes estimate   =    -702.41940979 Ry
     estimated scf accuracy    <       0.00245237 Ry

     iteration # 19     ecut=    40.00 Ry     beta=0.60
     Davidson diagonalization with overlap
     c_bands:  1 eigenvalues not converged
     ethr =  3.31E-06,  avg # of iterations =  1.7

     total cpu time spent up to now is     6762.6 secs

     total energy              =    -702.41916088 Ry
     Harris-Foulkes estimate   =    -702.41937944 Ry
     estimated scf accuracy    <       0.00294508 Ry

     iteration # 20     ecut=    40.00 Ry     beta=0.60
     Davidson diagonalization with overlap
     ethr =  3.31E-06,  avg # of iterations =  1.2

     total cpu time spent up to now is     6851.4 secs

     total energy              =    -702.41914031 Ry
     Harris-Foulkes estimate   =    -702.41925687 Ry
     estimated scf accuracy    <       0.00206153 Ry

     iteration # 21     ecut=    40.00 Ry     beta=0.60
     Davidson diagonalization with overlap
     ethr =  2.79E-06,  avg # of iterations =  3.2

     total cpu time spent up to now is     6966.8 secs

     total energy              =    -702.41884261 Ry
     Harris-Foulkes estimate   =    -702.41937878 Ry
     estimated scf accuracy    <       0.00116747 Ry

     iteration # 22     ecut=    40.00 Ry     beta=0.60
     Davidson diagonalization with overlap
     ethr =  1.58E-06,  avg # of iterations =  3.3

     total cpu time spent up to now is     7092.3 secs

     total energy              =    -702.41905679 Ry
     Harris-Foulkes estimate   =    -702.41907857 Ry
     estimated scf accuracy    <       0.00007832 Ry

     iteration # 23     ecut=    40.00 Ry     beta=0.60
     Davidson diagonalization with overlap
     ethr =  1.06E-07,  avg # of iterations =  6.0

     total cpu time spent up to now is     7284.8 secs

     total energy              =    -702.41906298 Ry
     Harris-Foulkes estimate   =    -702.41913777 Ry
     estimated scf accuracy    <       0.00067591 Ry

     iteration # 24     ecut=    40.00 Ry     beta=0.60
     Davidson diagonalization with overlap
     ethr =  1.06E-07,  avg # of iterations =  4.3

     total cpu time spent up to now is     7425.3 secs

     total energy              =    -702.41907917 Ry
     Harris-Foulkes estimate   =    -702.41908920 Ry
     estimated scf accuracy    <       0.00010409 Ry

     iteration # 25     ecut=    40.00 Ry     beta=0.60
     Davidson diagonalization with overlap
     ethr =  1.06E-07,  avg # of iterations =  1.0

     total cpu time spent up to now is     7513.1 secs

     total energy              =    -702.41907811 Ry
     Harris-Foulkes estimate   =    -702.41908194 Ry
     estimated scf accuracy    <       0.00004267 Ry

     iteration # 26     ecut=    40.00 Ry     beta=0.60
     Davidson diagonalization with overlap
     ethr =  5.77E-08,  avg # of iterations =  3.1

     total cpu time spent up to now is     7611.7 secs

     total energy              =    -702.41907766 Ry
     Harris-Foulkes estimate   =    -702.41908021 Ry
     estimated scf accuracy    <       0.00001275 Ry

     iteration # 27     ecut=    40.00 Ry     beta=0.60
     Davidson diagonalization with overlap
     ethr =  1.72E-08,  avg # of iterations =  4.8

     total cpu time spent up to now is     7760.9 secs

     total energy              =    -702.41908081 Ry
     Harris-Foulkes estimate   =    -702.41908158 Ry
     estimated scf accuracy    <       0.00000723 Ry

     iteration # 28     ecut=    40.00 Ry     beta=0.60
     Davidson diagonalization with overlap
     ethr =  9.77E-09,  avg # of iterations =  1.0

     total cpu time spent up to now is     7848.7 secs

     total energy              =    -702.41908077 Ry
     Harris-Foulkes estimate   =    -702.41908099 Ry
     estimated scf accuracy    <       0.00000234 Ry

     iteration # 29     ecut=    40.00 Ry     beta=0.60
     Davidson diagonalization with overlap
     ethr =  3.16E-09,  avg # of iterations =  3.7

     total cpu time spent up to now is     7959.5 secs

     total energy              =    -702.41908090 Ry
     Harris-Foulkes estimate   =    -702.41908097 Ry
     estimated scf accuracy    <       0.00000048 Ry

     iteration # 30     ecut=    40.00 Ry     beta=0.60
     Davidson diagonalization with overlap
     ethr =  6.49E-10,  avg # of iterations =  4.2

     total cpu time spent up to now is     8086.6 secs

     total energy              =    -702.41908098 Ry
     Harris-Foulkes estimate   =    -702.41908098 Ry
     estimated scf accuracy    <       0.00000005 Ry

     iteration # 31     ecut=    40.00 Ry     beta=0.60
     Davidson diagonalization with overlap
     ethr =  6.67E-11,  avg # of iterations =  3.9

     total cpu time spent up to now is     8202.4 secs

     total energy              =    -702.41908098 Ry
     Harris-Foulkes estimate   =    -702.41908098 Ry
     estimated scf accuracy    <          8.8E-09 Ry

     iteration # 32     ecut=    40.00 Ry     beta=0.60
     Davidson diagonalization with overlap
     ethr =  1.19E-11,  avg # of iterations =  4.4

     total cpu time spent up to now is     8334.4 secs

     total energy              =    -702.41908098 Ry
     Harris-Foulkes estimate   =    -702.41908098 Ry
     estimated scf accuracy    <          2.3E-09 Ry

     iteration # 33     ecut=    40.00 Ry     beta=0.60
     Davidson diagonalization with overlap
     ethr =  3.05E-12,  avg # of iterations =  2.5

     total cpu time spent up to now is     8432.3 secs

     total energy              =    -702.41908098 Ry
     Harris-Foulkes estimate   =    -702.41908098 Ry
     estimated scf accuracy    <          7.5E-10 Ry

     iteration # 34     ecut=    40.00 Ry     beta=0.60
     Davidson diagonalization with overlap
     ethr =  1.01E-12,  avg # of iterations =  4.3

     total cpu time spent up to now is     8556.7 secs

     total energy              =    -702.41908098 Ry
     Harris-Foulkes estimate   =    -702.41908098 Ry
     estimated scf accuracy    <          4.6E-10 Ry

     iteration # 35     ecut=    40.00 Ry     beta=0.60
     Davidson diagonalization with overlap
     ethr =  6.22E-13,  avg # of iterations =  3.1

     total cpu time spent up to now is     8655.5 secs

     total energy              =    -702.41908098 Ry
     Harris-Foulkes estimate   =    -702.41908098 Ry
     estimated scf accuracy    <          3.7E-10 Ry

     iteration # 36     ecut=    40.00 Ry     beta=0.60
     Davidson diagonalization with overlap
     ethr =  4.96E-13,  avg # of iterations =  2.2

     total cpu time spent up to now is     8748.9 secs

     End of self-consistent calculation

     Number of k-points >= 100: set verbosity='high' to print the bands.

     the Fermi energy is    14.0949 ev

!    total energy              =    -702.41908098 Ry
     Harris-Foulkes estimate   =    -702.41908098 Ry
     estimated scf accuracy    <          8.2E-11 Ry

     The total energy is the sum of the following terms:

     one-electron contribution =    -213.96406345 Ry
     hartree contribution      =     132.39597347 Ry
     xc contribution           =     -94.65812385 Ry
     ewald contribution        =    -526.18517474 Ry
     smearing contrib. (-TS)   =      -0.00769241 Ry

     convergence has been achieved in  36 iterations

     Forces acting on atoms (Ry/au):

     atom    1 type  2   force =    -0.00046951   -0.00002528   -0.00000000
     atom    2 type  2   force =    -0.00046170    0.00002981   -0.00000000
     atom    3 type  2   force =     0.00046315   -0.00002406    0.00000000
     atom    4 type  2   force =     0.00047378    0.00002402    0.00000000
     atom    5 type  1   force =    -0.00000299   -0.00057298    0.00000000
     atom    6 type  1   force =    -0.00000273    0.00056850    0.00000000

     Total force =     0.001236     Total SCF correction =     0.000008


     entering subroutine stress ...

          total   stress  (Ry/bohr**3)                   (kbar)     P=  -65.30
  -0.00045683   0.00000000   0.00000000        -67.20      0.00      0.00
   0.00000000  -0.00045604   0.00000000          0.00    -67.09      0.00
   0.00000000   0.00000000  -0.00041885          0.00      0.00    -61.62


     number of scf cycles    =   2
     number of bfgs steps    =   1

     enthalpy old            =    -702.3835096988 Ry
     enthalpy new            =    -702.4190809822 Ry

     CASE: enthalpy_new < enthalpy_old

     new trust radius        =       0.1180895287 bohr
     new conv_thr            =            5.7E-11 Ry

     new unit-cell volume =    709.49565 a.u.^3 (   105.13641 Ang^3 )

CELL_PARAMETERS (alat=  1.88972599)
   4.370057433  -2.522948056   0.000000000
  -4.370058565  -2.522950017   0.000000000
   0.000000000   0.000000000  -4.767904607

ATOMIC_POSITIONS (angstrom)
Ti       0.000199227  -5.045339063  -4.767904607
Ti       0.000219463  -1.682528279  -2.383952303
Ti      -1.456896463  -2.522388859  -4.767904607
Ti      -1.456883517  -4.205466763  -2.383952303
Nb       1.456680255  -2.525472956  -4.767904607
Nb       1.456680879  -4.202398897  -2.383952303


     NEW-OLD atomic charge density approx. for the potential
     extrapolated charge   69.42884, renormalised to   74.00000

     total cpu time spent up to now is     8799.8 secs

     per-process dynamical memory:   358.0 Mb

     Self-consistent Calculation

     iteration #  1     ecut=    40.00 Ry     beta=0.60
     Davidson diagonalization with overlap
     c_bands:  1 eigenvalues not converged
     c_bands:  1 eigenvalues not converged
     c_bands:  1 eigenvalues not converged
     c_bands:  1 eigenvalues not converged
     c_bands:  2 eigenvalues not converged
     c_bands:  1 eigenvalues not converged
     c_bands:  1 eigenvalues not converged
     c_bands:  1 eigenvalues not converged
     c_bands:  1 eigenvalues not converged
     c_bands:  1 eigenvalues not converged
     c_bands:  1 eigenvalues not converged
     c_bands:  1 eigenvalues not converged
     c_bands:  2 eigenvalues not converged
     c_bands:  1 eigenvalues not converged
     c_bands:  2 eigenvalues not converged
     c_bands:  1 eigenvalues not converged
     c_bands:  1 eigenvalues not converged
     c_bands:  2 eigenvalues not converged
     c_bands:  3 eigenvalues not converged
     c_bands:  1 eigenvalues not converged
     c_bands:  2 eigenvalues not converged
     c_bands:  1 eigenvalues not converged
     c_bands:  2 eigenvalues not converged
     c_bands:  1 eigenvalues not converged
     c_bands:  1 eigenvalues not converged
     c_bands:  4 eigenvalues not converged
     c_bands:  1 eigenvalues not converged
     c_bands:  2 eigenvalues not converged
     c_bands:  1 eigenvalues not converged
     c_bands:  4 eigenvalues not converged
     c_bands:  1 eigenvalues not converged
     c_bands:  1 eigenvalues not converged
     c_bands:  1 eigenvalues not converged
     c_bands:  1 eigenvalues not converged
     c_bands:  1 eigenvalues not converged
     c_bands:  1 eigenvalues not converged
     c_bands:  2 eigenvalues not converged
     c_bands:  2 eigenvalues not converged
     c_bands:  1 eigenvalues not converged
     c_bands:  1 eigenvalues not converged
     c_bands:  1 eigenvalues not converged
     c_bands:  1 eigenvalues not converged
     c_bands:  1 eigenvalues not converged
     c_bands:  2 eigenvalues not converged
     c_bands:  1 eigenvalues not converged
     c_bands:  2 eigenvalues not converged
     c_bands:  1 eigenvalues not converged
     c_bands:  1 eigenvalues not converged
     c_bands:  1 eigenvalues not converged
     c_bands:  1 eigenvalues not converged
     c_bands:  1 eigenvalues not converged
     c_bands:  1 eigenvalues not converged
     c_bands:  1 eigenvalues not converged
     c_bands:  1 eigenvalues not converged
     c_bands:  1 eigenvalues not converged
     c_bands:  1 eigenvalues not converged
     c_bands:  1 eigenvalues not converged
     c_bands:  1 eigenvalues not converged
     c_bands:  1 eigenvalues not converged
     c_bands:  1 eigenvalues not converged
     c_bands:  1 eigenvalues not converged
     c_bands:  1 eigenvalues not converged
     c_bands:  1 eigenvalues not converged
     c_bands:  1 eigenvalues not converged
     c_bands:  1 eigenvalues not converged
     c_bands:  1 eigenvalues not converged
     c_bands:  1 eigenvalues not converged
     c_bands:  1 eigenvalues not converged
     c_bands:  2 eigenvalues not converged
     c_bands:  2 eigenvalues not converged
     c_bands:  2 eigenvalues not converged
     c_bands:  1 eigenvalues not converged
     c_bands:  1 eigenvalues not converged
     c_bands:  1 eigenvalues not converged
     c_bands:  1 eigenvalues not converged
     c_bands:  1 eigenvalues not converged
     c_bands:  1 eigenvalues not converged
     c_bands:  1 eigenvalues not converged
     c_bands:  1 eigenvalues not converged
     c_bands:  1 eigenvalues not converged
     c_bands:  2 eigenvalues not converged
     c_bands:  2 eigenvalues not converged
     c_bands:  2 eigenvalues not converged
     c_bands:  2 eigenvalues not converged
     c_bands:  2 eigenvalues not converged
     c_bands:  2 eigenvalues not converged
     c_bands:  2 eigenvalues not converged
     c_bands:  2 eigenvalues not converged
     c_bands:  2 eigenvalues not converged
     c_bands:  1 eigenvalues not converged
     c_bands:  1 eigenvalues not converged
     c_bands:  1 eigenvalues not converged
     c_bands:  1 eigenvalues not converged
     c_bands:  1 eigenvalues not converged
     c_bands:  1 eigenvalues not converged
     c_bands:  1 eigenvalues not converged
     c_bands:  1 eigenvalues not converged
     c_bands:  1 eigenvalues not converged
     c_bands:  1 eigenvalues not converged
     c_bands:  1 eigenvalues not converged
     c_bands:  1 eigenvalues not converged
     c_bands:  1 eigenvalues not converged
     c_bands:  1 eigenvalues not converged
     c_bands:  1 eigenvalues not converged
     c_bands:  1 eigenvalues not converged
     c_bands:  1 eigenvalues not converged
     c_bands:  1 eigenvalues not converged
     c_bands:  2 eigenvalues not converged
     c_bands:  1 eigenvalues not converged
     c_bands:  1 eigenvalues not converged
     c_bands:  1 eigenvalues not converged
     c_bands:  2 eigenvalues not converged
     c_bands:  2 eigenvalues not converged
     c_bands:  1 eigenvalues not converged
     c_bands:  1 eigenvalues not converged
     c_bands:  1 eigenvalues not converged
     c_bands:  1 eigenvalues not converged
     c_bands:  1 eigenvalues not converged
     c_bands:  1 eigenvalues not converged
     c_bands:  1 eigenvalues not converged
     c_bands:  1 eigenvalues not converged
     c_bands:  2 eigenvalues not converged
     c_bands:  1 eigenvalues not converged
     c_bands:  2 eigenvalues not converged
     c_bands:  2 eigenvalues not converged
     c_bands:  2 eigenvalues not converged
     c_bands:  2 eigenvalues not converged
     c_bands:  1 eigenvalues not converged
     c_bands:  1 eigenvalues not converged
     c_bands:  1 eigenvalues not converged
     c_bands:  2 eigenvalues not converged
     c_bands:  2 eigenvalues not converged
     c_bands:  2 eigenvalues not converged
     c_bands:  2 eigenvalues not converged
     c_bands:  1 eigenvalues not converged
     c_bands:  1 eigenvalues not converged
     c_bands:  1 eigenvalues not converged
     c_bands:  4 eigenvalues not converged
     c_bands:  4 eigenvalues not converged
     c_bands:  2 eigenvalues not converged
     c_bands:  2 eigenvalues not converged
     c_bands:  1 eigenvalues not converged
     c_bands:  2 eigenvalues not converged
     c_bands:  1 eigenvalues not converged
     c_bands:  3 eigenvalues not converged
     c_bands:  3 eigenvalues not converged
     c_bands:  5 eigenvalues not converged
     ethr =  1.00E-06,  avg # of iterations = 18.1

     total cpu time spent up to now is     9344.9 secs

     total energy              =    -697.30950849 Ry
     Harris-Foulkes estimate   =    -711.72303188 Ry
     estimated scf accuracy    <       5.22145225 Ry

     iteration #  2     ecut=    40.00 Ry     beta=0.60
     Davidson diagonalization with overlap
     ethr =  7.06E-03,  avg # of iterations =  5.0

     total cpu time spent up to now is     9610.5 secs

     total energy              =    -700.68875237 Ry
     Harris-Foulkes estimate   =    -710.95158713 Ry
     estimated scf accuracy    <      39.49279482 Ry

     iteration #  3     ecut=    40.00 Ry     beta=0.60
     Davidson diagonalization with overlap
     ethr =  7.06E-03,  avg # of iterations =  4.3

     total cpu time spent up to now is     9752.4 secs

     total energy              =    -702.56330826 Ry
     Harris-Foulkes estimate   =    -703.50612959 Ry
     estimated scf accuracy    <       4.21397940 Ry

     iteration #  4     ecut=    40.00 Ry     beta=0.60
     Davidson diagonalization with overlap
     ethr =  5.69E-03,  avg # of iterations =  2.0

     total cpu time spent up to now is     9845.8 secs

     total energy              =    -702.57119852 Ry
     Harris-Foulkes estimate   =    -702.74640328 Ry
     estimated scf accuracy    <       2.68225565 Ry

     iteration #  5     ecut=    40.00 Ry     beta=0.60
     Davidson diagonalization with overlap
     ethr =  3.62E-03,  avg # of iterations =  1.3

     total cpu time spent up to now is     9934.8 secs

     total energy              =    -702.27690980 Ry
     Harris-Foulkes estimate   =    -702.62114582 Ry
     estimated scf accuracy    <       1.97810585 Ry

     iteration #  6     ecut=    40.00 Ry     beta=0.60
     Davidson diagonalization with overlap
     ethr =  2.67E-03,  avg # of iterations =  3.2

     total cpu time spent up to now is    10035.8 secs

     total energy              =    -702.37868403 Ry
     Harris-Foulkes estimate   =    -702.38451152 Ry
     estimated scf accuracy    <       0.47370632 Ry

     iteration #  7     ecut=    40.00 Ry     beta=0.60
     Davidson diagonalization with overlap
     ethr =  6.40E-04,  avg # of iterations =  5.0

     total cpu time spent up to now is    10185.0 secs

     total energy              =    -702.48683885 Ry
     Harris-Foulkes estimate   =    -702.45284204 Ry
     estimated scf accuracy    <       0.12488599 Ry

     iteration #  8     ecut=    40.00 Ry     beta=0.60
     Davidson diagonalization with overlap
     ethr =  1.69E-04,  avg # of iterations =  2.9

     total cpu time spent up to now is    10282.7 secs

     total energy              =    -702.49491002 Ry
     Harris-Foulkes estimate   =    -702.49463500 Ry
     estimated scf accuracy    <       0.30772719 Ry

     iteration #  9     ecut=    40.00 Ry     beta=0.60
     Davidson diagonalization with overlap
     ethr =  1.69E-04,  avg # of iterations =  1.2

     total cpu time spent up to now is    10371.7 secs

     total energy              =    -702.49483727 Ry
     Harris-Foulkes estimate   =    -702.49615403 Ry
     estimated scf accuracy    <       0.31291581 Ry

     iteration # 10     ecut=    40.00 Ry     beta=0.60
     Davidson diagonalization with overlap
     ethr =  1.69E-04,  avg # of iterations =  1.0

     total cpu time spent up to now is    10459.7 secs

     total energy              =    -702.43479695 Ry
     Harris-Foulkes estimate   =    -702.49556398 Ry
     estimated scf accuracy    <       0.33298158 Ry

     iteration # 11     ecut=    40.00 Ry     beta=0.60
     Davidson diagonalization with overlap
     ethr =  1.69E-04,  avg # of iterations =  2.5

     total cpu time spent up to now is    10558.0 secs

     total energy              =    -702.44442661 Ry
     Harris-Foulkes estimate   =    -702.44327332 Ry
     estimated scf accuracy    <       0.15207501 Ry

     iteration # 12     ecut=    40.00 Ry     beta=0.60
     Davidson diagonalization with overlap
     ethr =  1.69E-04,  avg # of iterations =  1.0

     total cpu time spent up to now is    10646.1 secs

     total energy              =    -702.44528815 Ry
     Harris-Foulkes estimate   =    -702.44593908 Ry
     estimated scf accuracy    <       0.16169344 Ry

     iteration # 13     ecut=    40.00 Ry     beta=0.60
     Davidson diagonalization with overlap
     ethr =  1.69E-04,  avg # of iterations =  1.0

     total cpu time spent up to now is    10734.1 secs

     total energy              =    -702.44723422 Ry
     Harris-Foulkes estimate   =    -702.44578623 Ry
     estimated scf accuracy    <       0.15629132 Ry

     iteration # 14     ecut=    40.00 Ry     beta=0.60
     Davidson diagonalization with overlap
     ethr =  1.69E-04,  avg # of iterations =  1.0

     total cpu time spent up to now is    10822.1 secs

     total energy              =    -702.44634733 Ry
     Harris-Foulkes estimate   =    -702.44749590 Ry
     estimated scf accuracy    <       0.16973183 Ry

     iteration # 15     ecut=    40.00 Ry     beta=0.60
     Davidson diagonalization with overlap
     ethr =  1.69E-04,  avg # of iterations =  1.0

     total cpu time spent up to now is    10910.0 secs

     total energy              =    -702.43181882 Ry
     Harris-Foulkes estimate   =    -702.44646804 Ry
     estimated scf accuracy    <       0.16178898 Ry

     iteration # 16     ecut=    40.00 Ry     beta=0.60
     Davidson diagonalization with overlap
     ethr =  1.69E-04,  avg # of iterations =  1.0

     total cpu time spent up to now is    10998.1 secs

     total energy              =    -702.42510606 Ry
     Harris-Foulkes estimate   =    -702.43350325 Ry
     estimated scf accuracy    <       0.09263212 Ry

     iteration # 17     ecut=    40.00 Ry     beta=0.60
     Davidson diagonalization with overlap
     ethr =  1.25E-04,  avg # of iterations =  2.2

     total cpu time spent up to now is    11093.2 secs

     total energy              =    -702.41704409 Ry
     Harris-Foulkes estimate   =    -702.42831050 Ry
     estimated scf accuracy    <       0.03593076 Ry

     iteration # 18     ecut=    40.00 Ry     beta=0.60
     Davidson diagonalization with overlap
     ethr =  4.86E-05,  avg # of iterations =  6.8

     total cpu time spent up to now is    11280.4 secs

     total energy              =    -702.41953408 Ry
     Harris-Foulkes estimate   =    -702.43582492 Ry
     estimated scf accuracy    <       0.08016744 Ry

     iteration # 19     ecut=    40.00 Ry     beta=0.60
     Davidson diagonalization with overlap
     ethr =  4.86E-05,  avg # of iterations =  4.2

     total cpu time spent up to now is    11411.2 secs

     total energy              =    -702.42775002 Ry
     Harris-Foulkes estimate   =    -702.42843728 Ry
     estimated scf accuracy    <       0.00277080 Ry

     iteration # 20     ecut=    40.00 Ry     beta=0.60
     Davidson diagonalization with overlap
     c_bands:  1 eigenvalues not converged
     c_bands:  1 eigenvalues not converged
     ethr =  3.74E-06,  avg # of iterations =  8.2

     total cpu time spent up to now is    11581.8 secs

     total energy              =    -702.42797699 Ry
     Harris-Foulkes estimate   =    -702.42822713 Ry
     estimated scf accuracy    <       0.00093108 Ry

     iteration # 21     ecut=    40.00 Ry     beta=0.60
     Davidson diagonalization with overlap
     c_bands:  1 eigenvalues not converged
     ethr =  1.26E-06,  avg # of iterations =  3.2

     total cpu time spent up to now is    11689.7 secs

     total energy              =    -702.42803773 Ry
     Harris-Foulkes estimate   =    -702.42807549 Ry
     estimated scf accuracy    <       0.00034838 Ry

     iteration # 22     ecut=    40.00 Ry     beta=0.60
     Davidson diagonalization with overlap
     c_bands:  1 eigenvalues not converged
     ethr =  4.71E-07,  avg # of iterations =  3.2

     total cpu time spent up to now is    11794.7 secs

     total energy              =    -702.42801727 Ry
     Harris-Foulkes estimate   =    -702.42807775 Ry
     estimated scf accuracy    <       0.00027964 Ry

     iteration # 23     ecut=    40.00 Ry     beta=0.60
     Davidson diagonalization with overlap
     ethr =  3.78E-07,  avg # of iterations =  3.3

     total cpu time spent up to now is    11904.5 secs

     total energy              =    -702.42803940 Ry
     Harris-Foulkes estimate   =    -702.42804811 Ry
     estimated scf accuracy    <       0.00005578 Ry

     iteration # 24     ecut=    40.00 Ry     beta=0.60
     Davidson diagonalization with overlap
     ethr =  7.54E-08,  avg # of iterations =  3.9

     total cpu time spent up to now is    12029.3 secs

     total energy              =    -702.42804483 Ry
     Harris-Foulkes estimate   =    -702.42805018 Ry
     estimated scf accuracy    <       0.00004139 Ry

     iteration # 25     ecut=    40.00 Ry     beta=0.60
     Davidson diagonalization with overlap
     ethr =  5.59E-08,  avg # of iterations =  1.0

     total cpu time spent up to now is    12117.3 secs

     total energy              =    -702.42804609 Ry
     Harris-Foulkes estimate   =    -702.42804741 Ry
     estimated scf accuracy    <       0.00000368 Ry

     iteration # 26     ecut=    40.00 Ry     beta=0.60
     Davidson diagonalization with overlap
     ethr =  4.97E-09,  avg # of iterations =  5.7

     total cpu time spent up to now is    12283.3 secs

     total energy              =    -702.42804687 Ry
     Harris-Foulkes estimate   =    -702.42804948 Ry
     estimated scf accuracy    <       0.00002088 Ry

     iteration # 27     ecut=    40.00 Ry     beta=0.60
     Davidson diagonalization with overlap
     ethr =  4.97E-09,  avg # of iterations =  4.5

     total cpu time spent up to now is    12415.0 secs

     total energy              =    -702.42804790 Ry
     Harris-Foulkes estimate   =    -702.42804799 Ry
     estimated scf accuracy    <       0.00000046 Ry

     iteration # 28     ecut=    40.00 Ry     beta=0.60
     Davidson diagonalization with overlap
     ethr =  6.24E-10,  avg # of iterations =  4.8

     total cpu time spent up to now is    12548.0 secs

     total energy              =    -702.42804797 Ry
     Harris-Foulkes estimate   =    -702.42804799 Ry
     estimated scf accuracy    <       0.00000012 Ry

     iteration # 29     ecut=    40.00 Ry     beta=0.60
     Davidson diagonalization with overlap
     ethr =  1.59E-10,  avg # of iterations =  3.4

     total cpu time spent up to now is    12652.8 secs

     total energy              =    -702.42804798 Ry
     Harris-Foulkes estimate   =    -702.42804798 Ry
     estimated scf accuracy    <       0.00000002 Ry

     iteration # 30     ecut=    40.00 Ry     beta=0.60
     Davidson diagonalization with overlap
     ethr =  2.70E-11,  avg # of iterations =  3.5

     total cpu time spent up to now is    12769.3 secs

     total energy              =    -702.42804798 Ry
     Harris-Foulkes estimate   =    -702.42804798 Ry
     estimated scf accuracy    <          7.2E-09 Ry

     iteration # 31     ecut=    40.00 Ry     beta=0.60
     Davidson diagonalization with overlap
     ethr =  9.71E-12,  avg # of iterations =  2.8

     total cpu time spent up to now is    12869.0 secs

     total energy              =    -702.42804798 Ry
     Harris-Foulkes estimate   =    -702.42804798 Ry
     estimated scf accuracy    <          1.8E-09 Ry

     iteration # 32     ecut=    40.00 Ry     beta=0.60
     Davidson diagonalization with overlap
     ethr =  2.41E-12,  avg # of iterations =  4.2

     total cpu time spent up to now is    12998.5 secs

     total energy              =    -702.42804798 Ry
     Harris-Foulkes estimate   =    -702.42804798 Ry
     estimated scf accuracy    <          6.6E-10 Ry

     iteration # 33     ecut=    40.00 Ry     beta=0.60
     Davidson diagonalization with overlap
     ethr =  8.95E-13,  avg # of iterations =  3.6

     total cpu time spent up to now is    13106.9 secs

     total energy              =    -702.42804798 Ry
     Harris-Foulkes estimate   =    -702.42804798 Ry
     estimated scf accuracy    <          6.0E-11 Ry

     iteration # 34     ecut=    40.00 Ry     beta=0.60
     Davidson diagonalization with overlap
     ethr =  1.00E-13,  avg # of iterations =  4.6

     total cpu time spent up to now is    13245.8 secs

     End of self-consistent calculation

     Number of k-points >= 100: set verbosity='high' to print the bands.

     the Fermi energy is    15.1762 ev

!    total energy              =    -702.42804798 Ry
     Harris-Foulkes estimate   =    -702.42804798 Ry
     estimated scf accuracy    <          3.9E-11 Ry

     The total energy is the sum of the following terms:

     one-electron contribution =    -197.50512996 Ry
     hartree contribution      =     127.47177509 Ry
     xc contribution           =     -94.98787100 Ry
     ewald contribution        =    -537.39965366 Ry
     smearing contrib. (-TS)   =      -0.00716846 Ry

     convergence has been achieved in  34 iterations

     Forces acting on atoms (Ry/au):

     atom    1 type  2   force =    -0.00219236   -0.00120516   -0.00000000
     atom    2 type  2   force =    -0.00219332    0.00121772   -0.00000000
     atom    3 type  2   force =     0.00218741   -0.00120301    0.00000000
     atom    4 type  2   force =     0.00219980    0.00119216    0.00000000
     atom    5 type  1   force =    -0.00000143    0.00310363    0.00000000
     atom    6 type  1   force =    -0.00000009   -0.00310533    0.00000000

     Total force =     0.006657     Total SCF correction =     0.000007


     entering subroutine stress ...

          total   stress  (Ry/bohr**3)                   (kbar)     P=   12.39
   0.00006074  -0.00000001   0.00000000          8.94     -0.00      0.00
  -0.00000001   0.00006547   0.00000000         -0.00      9.63      0.00
   0.00000000   0.00000000   0.00012638          0.00      0.00     18.59


     number of scf cycles    =   3
     number of bfgs steps    =   2

     enthalpy old            =    -702.4190809822 Ry
     enthalpy new            =    -702.4280479824 Ry

     CASE: enthalpy_new < enthalpy_old

     new trust radius        =       0.0210555455 bohr
     new conv_thr            =            1.0E-10 Ry

     new unit-cell volume =    716.30621 a.u.^3 (   106.14563 Ang^3 )

CELL_PARAMETERS (alat=  1.88972599)
   4.382125786  -2.530152182   0.000000000
  -4.382126012  -2.530152573   0.000000000
   0.000000000   0.000000000  -4.786749305

ATOMIC_POSITIONS (angstrom)
Ti      -0.000670098  -5.060238292  -4.786749305
Ti      -0.000651322  -1.686833108  -2.393374653
Ti      -1.460050055  -2.530083679  -4.786749305
Ti      -1.460032380  -4.216984758  -2.393374653
Nb       1.460702936  -2.531368637  -4.786749305
Nb       1.460704397  -4.215713074  -2.393374653


     NEW-OLD atomic charge density approx. for the potential
     extrapolated charge   74.66550, renormalised to   74.00000

     total cpu time spent up to now is    13297.1 secs

     per-process dynamical memory:   358.3 Mb

     Self-consistent Calculation

     iteration #  1     ecut=    40.00 Ry     beta=0.60
     Davidson diagonalization with overlap
     c_bands:  1 eigenvalues not converged
     c_bands:  1 eigenvalues not converged
     c_bands:  1 eigenvalues not converged
     c_bands:  2 eigenvalues not converged
     c_bands:  1 eigenvalues not converged
     c_bands:  1 eigenvalues not converged
     c_bands:  1 eigenvalues not converged
     c_bands:  1 eigenvalues not converged
     c_bands:  1 eigenvalues not converged
     c_bands:  1 eigenvalues not converged
     c_bands:  2 eigenvalues not converged
     c_bands:  1 eigenvalues not converged
     c_bands:  1 eigenvalues not converged
     c_bands:  1 eigenvalues not converged
     c_bands:  1 eigenvalues not converged
     c_bands:  1 eigenvalues not converged
     c_bands:  1 eigenvalues not converged
     c_bands:  1 eigenvalues not converged
     c_bands:  1 eigenvalues not converged
     ethr =  1.00E-06,  avg # of iterations = 10.5

     total cpu time spent up to now is    13613.5 secs

     total energy              =    -702.38406629 Ry
     Harris-Foulkes estimate   =    -701.14630285 Ry
     estimated scf accuracy    <       0.03840760 Ry

     iteration #  2     ecut=    40.00 Ry     beta=0.60
     Davidson diagonalization with overlap
     ethr =  5.19E-05,  avg # of iterations =  6.3

     total cpu time spent up to now is    13864.6 secs

     total energy              =    -702.37679207 Ry
     Harris-Foulkes estimate   =    -702.50358581 Ry
     estimated scf accuracy    <       0.71571163 Ry

     iteration #  3     ecut=    40.00 Ry     beta=0.60
     Davidson diagonalization with overlap
     ethr =  5.19E-05,  avg # of iterations =  5.2

     total cpu time spent up to now is    14052.8 secs

     total energy              =    -702.42728292 Ry
     Harris-Foulkes estimate   =    -702.43712591 Ry
     estimated scf accuracy    <       0.02931173 Ry

     iteration #  4     ecut=    40.00 Ry     beta=0.60
     Davidson diagonalization with overlap
     ethr =  3.96E-05,  avg # of iterations =  2.1

     total cpu time spent up to now is    14151.8 secs

     total energy              =    -702.42922643 Ry
     Harris-Foulkes estimate   =    -702.43041440 Ry
     estimated scf accuracy    <       0.00901521 Ry

     iteration #  5     ecut=    40.00 Ry     beta=0.60
     Davidson diagonalization with overlap
     ethr =  1.22E-05,  avg # of iterations =  2.4

     total cpu time spent up to now is    14249.9 secs

     total energy              =    -702.42920230 Ry
     Harris-Foulkes estimate   =    -702.42963089 Ry
     estimated scf accuracy    <       0.00624948 Ry

     iteration #  6     ecut=    40.00 Ry     beta=0.60
     Davidson diagonalization with overlap
     ethr =  8.45E-06,  avg # of iterations =  1.0

     total cpu time spent up to now is    14337.5 secs

     total energy              =    -702.42875867 Ry
     Harris-Foulkes estimate   =    -702.42930825 Ry
     estimated scf accuracy    <       0.00520148 Ry

     iteration #  7     ecut=    40.00 Ry     beta=0.60
     Davidson diagonalization with overlap
     ethr =  7.03E-06,  avg # of iterations =  1.0

     total cpu time spent up to now is    14425.3 secs

     total energy              =    -702.42846692 Ry
     Harris-Foulkes estimate   =    -702.42885223 Ry
     estimated scf accuracy    <       0.00312389 Ry

     iteration #  8     ecut=    40.00 Ry     beta=0.60
     Davidson diagonalization with overlap
     ethr =  4.22E-06,  avg # of iterations =  1.7

     total cpu time spent up to now is    14515.7 secs

     total energy              =    -702.42847802 Ry
     Harris-Foulkes estimate   =    -702.42855092 Ry
     estimated scf accuracy    <       0.00163553 Ry

     iteration #  9     ecut=    40.00 Ry     beta=0.60
     Davidson diagonalization with overlap
     ethr =  2.21E-06,  avg # of iterations =  1.4

     total cpu time spent up to now is    14605.3 secs

     total energy              =    -702.42832058 Ry
     Harris-Foulkes estimate   =    -702.42850241 Ry
     estimated scf accuracy    <       0.00130337 Ry

     iteration # 10     ecut=    40.00 Ry     beta=0.60
     Davidson diagonalization with overlap
     ethr =  1.76E-06,  avg # of iterations =  2.7

     total cpu time spent up to now is    14701.0 secs

     total energy              =    -702.42824912 Ry
     Harris-Foulkes estimate   =    -702.42837082 Ry
     estimated scf accuracy    <       0.00047187 Ry

     iteration # 11     ecut=    40.00 Ry     beta=0.60
     Davidson diagonalization with overlap
     ethr =  6.38E-07,  avg # of iterations =  4.5

     total cpu time spent up to now is    14841.1 secs

     total energy              =    -702.42837613 Ry
     Harris-Foulkes estimate   =    -702.42838582 Ry
     estimated scf accuracy    <       0.00011147 Ry

     iteration # 12     ecut=    40.00 Ry     beta=0.60
     Davidson diagonalization with overlap
     ethr =  1.51E-07,  avg # of iterations =  1.6

     total cpu time spent up to now is    14930.9 secs

     total energy              =    -702.42837550 Ry
     Harris-Foulkes estimate   =    -702.42837935 Ry
     estimated scf accuracy    <       0.00005476 Ry

     iteration # 13     ecut=    40.00 Ry     beta=0.60
     Davidson diagonalization with overlap
     ethr =  7.40E-08,  avg # of iterations =  1.7

     total cpu time spent up to now is    15021.4 secs

     total energy              =    -702.42837448 Ry
     Harris-Foulkes estimate   =    -702.42837689 Ry
     estimated scf accuracy    <       0.00002777 Ry

     iteration # 14     ecut=    40.00 Ry     beta=0.60
     Davidson diagonalization with overlap
     ethr =  3.75E-08,  avg # of iterations =  3.9

     total cpu time spent up to now is    15129.0 secs

     total energy              =    -702.42837555 Ry
     Harris-Foulkes estimate   =    -702.42837631 Ry
     estimated scf accuracy    <       0.00000527 Ry

     iteration # 15     ecut=    40.00 Ry     beta=0.60
     Davidson diagonalization with overlap
     ethr =  7.12E-09,  avg # of iterations =  4.5

     total cpu time spent up to now is    15260.6 secs

     total energy              =    -702.42837688 Ry
     Harris-Foulkes estimate   =    -702.42837693 Ry
     estimated scf accuracy    <       0.00000023 Ry

     iteration # 16     ecut=    40.00 Ry     beta=0.60
     Davidson diagonalization with overlap
     ethr =  3.11E-10,  avg # of iterations =  5.4

     total cpu time spent up to now is    15415.7 secs

     total energy              =    -702.42837698 Ry
     Harris-Foulkes estimate   =    -702.42837697 Ry
     estimated scf accuracy    <       0.00000008 Ry

     iteration # 17     ecut=    40.00 Ry     beta=0.60
     Davidson diagonalization with overlap
     ethr =  1.08E-10,  avg # of iterations =  4.5

     total cpu time spent up to now is    15554.8 secs

     total energy              =    -702.42837703 Ry
     Harris-Foulkes estimate   =    -702.42837701 Ry
     estimated scf accuracy    <       0.00000044 Ry

     iteration # 18     ecut=    40.00 Ry     beta=0.60
     Davidson diagonalization with overlap
     ethr =  1.08E-10,  avg # of iterations =  3.7

     total cpu time spent up to now is    15671.8 secs

     total energy              =    -702.42837707 Ry
     Harris-Foulkes estimate   =    -702.42837704 Ry
     estimated scf accuracy    <       0.00000078 Ry

     iteration # 19     ecut=    40.00 Ry     beta=0.60
     Davidson diagonalization with overlap
     ethr =  1.08E-10,  avg # of iterations =  4.2

     total cpu time spent up to now is    15802.7 secs

     total energy              =    -702.42837701 Ry
     Harris-Foulkes estimate   =    -702.42837709 Ry
     estimated scf accuracy    <       0.00000138 Ry

     iteration # 20     ecut=    40.00 Ry     beta=0.60
     Davidson diagonalization with overlap
     ethr =  1.08E-10,  avg # of iterations =  3.2

     total cpu time spent up to now is    15903.1 secs

     total energy              =    -702.42837686 Ry
     Harris-Foulkes estimate   =    -702.42837702 Ry
     estimated scf accuracy    <       0.00000084 Ry

     iteration # 21     ecut=    40.00 Ry     beta=0.60
     Davidson diagonalization with overlap
     ethr =  1.08E-10,  avg # of iterations =  5.1

     total cpu time spent up to now is    16061.9 secs

     total energy              =    -702.42837695 Ry
     Harris-Foulkes estimate   =    -702.42837696 Ry
     estimated scf accuracy    <       0.00000002 Ry

     iteration # 22     ecut=    40.00 Ry     beta=0.60
     Davidson diagonalization with overlap
     ethr =  3.35E-11,  avg # of iterations =  2.8

     total cpu time spent up to now is    16158.0 secs

     total energy              =    -702.42837696 Ry
     Harris-Foulkes estimate   =    -702.42837696 Ry
     estimated scf accuracy    <          6.4E-10 Ry

     iteration # 23     ecut=    40.00 Ry     beta=0.60
     Davidson diagonalization with overlap
     ethr =  8.64E-13,  avg # of iterations =  5.9

     total cpu time spent up to now is    16358.1 secs

     total energy              =    -702.42837696 Ry
     Harris-Foulkes estimate   =    -702.42837696 Ry
     estimated scf accuracy    <       0.00000001 Ry

     iteration # 24     ecut=    40.00 Ry     beta=0.60
     Davidson diagonalization with overlap
     ethr =  8.64E-13,  avg # of iterations =  4.1

     total cpu time spent up to now is    16491.6 secs

     total energy              =    -702.42837696 Ry
     Harris-Foulkes estimate   =    -702.42837696 Ry
     estimated scf accuracy    <          4.7E-09 Ry

     iteration # 25     ecut=    40.00 Ry     beta=0.60
     Davidson diagonalization with overlap
     ethr =  8.64E-13,  avg # of iterations =  4.8

     total cpu time spent up to now is    16644.1 secs

     End of self-consistent calculation

     Number of k-points >= 100: set verbosity='high' to print the bands.

     the Fermi energy is    15.0081 ev

!    total energy              =    -702.42837696 Ry
     Harris-Foulkes estimate   =    -702.42837696 Ry
     estimated scf accuracy    <          1.4E-11 Ry

     The total energy is the sum of the following terms:

     one-electron contribution =    -199.99640969 Ry
     hartree contribution      =     128.20749029 Ry
     xc contribution           =     -94.93631289 Ry
     ewald contribution        =    -535.69590352 Ry
     smearing contrib. (-TS)   =      -0.00724114 Ry

     convergence has been achieved in  25 iterations

     Forces acting on atoms (Ry/au):

     atom    1 type  2   force =    -0.00172755   -0.00082588   -0.00000000
     atom    2 type  2   force =    -0.00172788    0.00083758   -0.00000000
     atom    3 type  2   force =     0.00172403   -0.00082553    0.00000000
     atom    4 type  2   force =     0.00173507    0.00081603    0.00000000
     atom    5 type  1   force =    -0.00000217    0.00228507    0.00000000
     atom    6 type  1   force =    -0.00000150   -0.00228727    0.00000000

     Total force =     0.005014     Total SCF correction =     0.000006


     entering subroutine stress ...

          total   stress  (Ry/bohr**3)                   (kbar)     P=   -0.68
  -0.00002284  -0.00000001   0.00000000         -3.36     -0.00      0.00
  -0.00000001  -0.00001985   0.00000000         -0.00     -2.92      0.00
   0.00000000   0.00000000   0.00002890          0.00      0.00      4.25


     number of scf cycles    =   4
     number of bfgs steps    =   3

     enthalpy old            =    -702.4280479824 Ry
     enthalpy new            =    -702.4283769570 Ry

     CASE: enthalpy_new < enthalpy_old

     new trust radius        =       0.0050602535 bohr
     new conv_thr            =            1.0E-10 Ry

     new unit-cell volume =    716.35957 a.u.^3 (   106.15353 Ang^3 )

CELL_PARAMETERS (alat=  1.88972599)
   4.380034649  -2.529158710   0.000000000
  -4.380034066  -2.529157700   0.000000000
   0.000000000   0.000000000  -4.791274462

ATOMIC_POSITIONS (angstrom)
Ti      -0.001633071  -5.058717283  -4.791274462
Ti      -0.001615030  -1.685696563  -2.395637231
Ti      -1.458390679  -2.529556342  -4.791274462
Ti      -1.458366640  -4.214865743  -2.395637231
Nb       1.460005004  -2.529091789  -4.791274462
Nb       1.460007126  -4.215340449  -2.395637231


     NEW-OLD atomic charge density approx. for the potential
     extrapolated charge   74.00521, renormalised to   74.00000

     total cpu time spent up to now is    16695.7 secs

     per-process dynamical memory:   358.3 Mb

     Self-consistent Calculation

     iteration #  1     ecut=    40.00 Ry     beta=0.60
     Davidson diagonalization with overlap
     ethr =  1.00E-06,  avg # of iterations =  3.0

     Threshold (ethr) on eigenvalues was too large:
     Diagonalizing with lowered threshold

     Davidson diagonalization with overlap
     ethr =  3.34E-08,  avg # of iterations =  3.7

     total cpu time spent up to now is    17008.6 secs

     total energy              =    -702.42841602 Ry
     Harris-Foulkes estimate   =    -702.41833522 Ry
     estimated scf accuracy    <       0.00002704 Ry

     iteration #  2     ecut=    40.00 Ry     beta=0.60
     Davidson diagonalization with overlap
     ethr =  3.65E-08,  avg # of iterations =  5.4

     total cpu time spent up to now is    17186.4 secs

     total energy              =    -702.42838892 Ry
     Harris-Foulkes estimate   =    -702.42846701 Ry
     estimated scf accuracy    <       0.00038858 Ry

     iteration #  3     ecut=    40.00 Ry     beta=0.60
     Davidson diagonalization with overlap
     ethr =  3.65E-08,  avg # of iterations =  5.5

     total cpu time spent up to now is    17358.2 secs

     total energy              =    -702.42842992 Ry
     Harris-Foulkes estimate   =    -702.42843446 Ry
     estimated scf accuracy    <       0.00002357 Ry

     iteration #  4     ecut=    40.00 Ry     beta=0.60
     Davidson diagonalization with overlap
     ethr =  3.19E-08,  avg # of iterations =  1.1

     total cpu time spent up to now is    17446.3 secs

     total energy              =    -702.42843012 Ry
     Harris-Foulkes estimate   =    -702.42843101 Ry
     estimated scf accuracy    <       0.00000520 Ry

     iteration #  5     ecut=    40.00 Ry     beta=0.60
     Davidson diagonalization with overlap
     ethr =  7.03E-09,  avg # of iterations =  4.4

     total cpu time spent up to now is    17586.3 secs

     total energy              =    -702.42843144 Ry
     Harris-Foulkes estimate   =    -702.42843215 Ry
     estimated scf accuracy    <       0.00000811 Ry

     iteration #  6     ecut=    40.00 Ry     beta=0.60
     Davidson diagonalization with overlap
     ethr =  7.03E-09,  avg # of iterations =  1.0

[...]

     total cpu time spent up to now is    70152.4 secs

     per-process dynamical memory:   358.0 Mb

     Self-consistent Calculation

     iteration #  1     ecut=    40.00 Ry     beta=0.60
     Davidson diagonalization with overlap
     ethr =  1.00E-06,  avg # of iterations =  3.0

     Threshold (ethr) on eigenvalues was too large:
     Diagonalizing with lowered threshold

     Davidson diagonalization with overlap
     ethr =  1.34E-08,  avg # of iterations =  4.8

     total cpu time spent up to now is    70485.3 secs

     total energy              =    -702.42883626 Ry
     Harris-Foulkes estimate   =    -702.43407121 Ry
     estimated scf accuracy    <       0.00001094 Ry

     iteration #  2     ecut=    40.00 Ry     beta=0.60
     Davidson diagonalization with overlap
     ethr =  1.48E-08,  avg # of iterations =  5.5

     total cpu time spent up to now is    70680.2 secs

     total energy              =    -702.42882269 Ry
     Harris-Foulkes estimate   =    -702.42886594 Ry
     estimated scf accuracy    <       0.00025544 Ry

     iteration #  3     ecut=    40.00 Ry     beta=0.60
     Davidson diagonalization with overlap
     ethr =  1.48E-08,  avg # of iterations =  5.6

     total cpu time spent up to now is    70854.2 secs

     total energy              =    -702.42884307 Ry
     Harris-Foulkes estimate   =    -702.42884344 Ry
     estimated scf accuracy    <       0.00000089 Ry

     iteration #  4     ecut=    40.00 Ry     beta=0.60
     Davidson diagonalization with overlap
     ethr =  1.20E-09,  avg # of iterations =  3.6

     total cpu time spent up to now is    70991.0 secs

     total energy              =    -702.42884323 Ry
     Harris-Foulkes estimate   =    -702.42884331 Ry
     estimated scf accuracy    <       0.00000017 Ry

     iteration #  5     ecut=    40.00 Ry     beta=0.60
     Davidson diagonalization with overlap
     ethr =  2.35E-10,  avg # of iterations =  5.6

     total cpu time spent up to now is    71165.8 secs

     total energy              =    -702.42884307 Ry
     Harris-Foulkes estimate   =    -702.42884352 Ry
     estimated scf accuracy    <       0.00000300 Ry

     iteration #  6     ecut=    40.00 Ry     beta=0.60
     Davidson diagonalization with overlap
     ethr =  2.35E-10,  avg # of iterations =  5.3

     total cpu time spent up to now is    71330.6 secs

     total energy              =    -702.42884330 Ry
     Harris-Foulkes estimate   =    -702.42884331 Ry
     estimated scf accuracy    <       0.00000005 Ry

     iteration #  7     ecut=    40.00 Ry     beta=0.60
     Davidson diagonalization with overlap
     ethr =  6.35E-11,  avg # of iterations =  3.8

     total cpu time spent up to now is    71437.8 secs

     total energy              =    -702.42884330 Ry
     Harris-Foulkes estimate   =    -702.42884331 Ry
     estimated scf accuracy    <       0.00000002 Ry

     iteration #  8     ecut=    40.00 Ry     beta=0.60
     Davidson diagonalization with overlap
     ethr =  3.03E-11,  avg # of iterations =  4.2

     total cpu time spent up to now is    71558.9 secs

     total energy              =    -702.42884331 Ry
     Harris-Foulkes estimate   =    -702.42884331 Ry
     estimated scf accuracy    <       0.00000002 Ry

     iteration #  9     ecut=    40.00 Ry     beta=0.60
     Davidson diagonalization with overlap
     ethr =  2.03E-11,  avg # of iterations =  3.2

     total cpu time spent up to now is    71658.6 secs

     total energy              =    -702.42884331 Ry
     Harris-Foulkes estimate   =    -702.42884331 Ry
     estimated scf accuracy    <          6.6E-09 Ry

     iteration # 10     ecut=    40.00 Ry     beta=0.60
     Davidson diagonalization with overlap
     ethr =  8.93E-12,  avg # of iterations =  3.6

     total cpu time spent up to now is    71767.4 secs

     total energy              =    -702.42884331 Ry
     Harris-Foulkes estimate   =    -702.42884331 Ry
     estimated scf accuracy    <          9.5E-10 Ry

     iteration # 11     ecut=    40.00 Ry     beta=0.60
     Davidson diagonalization with overlap
     ethr =  1.28E-12,  avg # of iterations =  4.1

     total cpu time spent up to now is    71893.8 secs

     total energy              =    -702.42884331 Ry
     Harris-Foulkes estimate   =    -702.42884331 Ry
     estimated scf accuracy    <          8.0E-10 Ry

     iteration # 12     ecut=    40.00 Ry     beta=0.60
     Davidson diagonalization with overlap
     ethr =  1.09E-12,  avg # of iterations =  1.6

     total cpu time spent up to now is    71984.3 secs

     End of self-consistent calculation

     Number of k-points >= 100: set verbosity='high' to print the bands.

     the Fermi energy is    15.0448 ev

!    total energy              =    -702.42884331 Ry
     Harris-Foulkes estimate   =    -702.42884331 Ry
     estimated scf accuracy    <          8.4E-11 Ry

     The total energy is the sum of the following terms:

     one-electron contribution =    -199.08752268 Ry
     hartree contribution      =     127.97143134 Ry
     xc contribution           =     -94.95608054 Ry
     ewald contribution        =    -536.35052109 Ry
     smearing contrib. (-TS)   =      -0.00615034 Ry

     convergence has been achieved in  12 iterations

     Forces acting on atoms (Ry/au):

     atom    1 type  2   force =     0.00502571    0.00581605    0.00000000
     atom    2 type  2   force =     0.00504217   -0.00590696    0.00000000
     atom    3 type  2   force =    -0.00510253    0.00590783   -0.00000000
     atom    4 type  2   force =    -0.00509820   -0.00582070   -0.00000000
     atom    5 type  1   force =     0.00006132    0.00063579    0.00000000
     atom    6 type  1   force =     0.00007153   -0.00063201    0.00000000

     Total force =     0.015525     Total SCF correction =     0.000017


     entering subroutine stress ...

          total   stress  (Ry/bohr**3)                   (kbar)     P=    0.01
   0.00004250   0.00000016   0.00000000          6.25      0.02      0.00
   0.00000016  -0.00000413   0.00000000          0.02     -0.61      0.00
   0.00000000   0.00000000  -0.00003818          0.00      0.00     -5.62


     number of scf cycles    =  28
     number of bfgs steps    =  24

     enthalpy old            =    -702.4288351886 Ry
     enthalpy new            =    -702.4288433085 Ry

     CASE: enthalpy_new < enthalpy_old

     new trust radius        =       0.0067779675 bohr
     new conv_thr            =            1.0E-10 Ry

     new unit-cell volume =    713.32676 a.u.^3 (   105.70412 Ang^3 )

CELL_PARAMETERS (alat=  1.88972599)
   4.363406932  -2.499949644   0.000000000
  -4.363278424  -2.499715881   0.000000000
   0.000000000   0.000000000  -4.845423451

ATOMIC_POSITIONS (angstrom)
Ti      -0.030404604  -4.982495903  -4.845423451
Ti      -0.030705839  -1.683371508  -2.422711726
Ti      -1.423466022  -2.482819748  -4.845423451
Ti      -1.423580738  -4.183676628  -2.422711726
Nb       1.454330248  -2.424674178  -4.845423451
Nb       1.454145760  -4.241731487  -2.422711726


     NEW-OLD atomic charge density approx. for the potential
     extrapolated charge   73.99553, renormalised to   74.00000

     total cpu time spent up to now is    72042.6 secs

     per-process dynamical memory:   358.0 Mb

     Self-consistent Calculation

     iteration #  1     ecut=    40.00 Ry     beta=0.60
     Davidson diagonalization with overlap
     ethr =  1.00E-06,  avg # of iterations =  3.3

     Threshold (ethr) on eigenvalues was too large:
     Diagonalizing with lowered threshold

     Davidson diagonalization with overlap
     ethr =  3.14E-08,  avg # of iterations =  3.8

     total cpu time spent up to now is    72371.1 secs

     total energy              =    -702.42883580 Ry
     Harris-Foulkes estimate   =    -702.43747847 Ry
     estimated scf accuracy    <       0.00002520 Ry

     iteration #  2     ecut=    40.00 Ry     beta=0.60
     Davidson diagonalization with overlap
     ethr =  3.41E-08,  avg # of iterations =  5.6

     total cpu time spent up to now is    72562.7 secs

     total energy              =    -702.42880474 Ry
     Harris-Foulkes estimate   =    -702.42890503 Ry
     estimated scf accuracy    <       0.00059397 Ry

     iteration #  3     ecut=    40.00 Ry     beta=0.60
     Davidson diagonalization with overlap
     ethr =  3.41E-08,  avg # of iterations =  5.5

     total cpu time spent up to now is    72734.7 secs

     total energy              =    -702.42885179 Ry
     Harris-Foulkes estimate   =    -702.42885269 Ry
     estimated scf accuracy    <       0.00000215 Ry

     iteration #  4     ecut=    40.00 Ry     beta=0.60
     Davidson diagonalization with overlap
     ethr =  2.91E-09,  avg # of iterations =  3.5

     total cpu time spent up to now is    72869.9 secs

     total energy              =    -702.42885222 Ry
     Harris-Foulkes estimate   =    -702.42885232 Ry
     estimated scf accuracy    <       0.00000031 Ry

     iteration #  5     ecut=    40.00 Ry     beta=0.60
     Davidson diagonalization with overlap
     ethr =  4.21E-10,  avg # of iterations =  5.7

     total cpu time spent up to now is    73048.2 secs

     total energy              =    -702.42885189 Ry
     Harris-Foulkes estimate   =    -702.42885272 Ry
     estimated scf accuracy    <       0.00000567 Ry

     iteration #  6     ecut=    40.00 Ry     beta=0.60
     Davidson diagonalization with overlap
     ethr =  4.21E-10,  avg # of iterations =  5.3

     total cpu time spent up to now is    73213.5 secs

     total energy              =    -702.42885231 Ry
     Harris-Foulkes estimate   =    -702.42885235 Ry
     estimated scf accuracy    <       0.00000017 Ry

     iteration #  7     ecut=    40.00 Ry     beta=0.60
     Davidson diagonalization with overlap
     ethr =  2.36E-10,  avg # of iterations =  4.3

     total cpu time spent up to now is    73340.7 secs

     total energy              =    -702.42885230 Ry
     Harris-Foulkes estimate   =    -702.42885237 Ry
     estimated scf accuracy    <       0.00000054 Ry

     iteration #  8     ecut=    40.00 Ry     beta=0.60
     Davidson diagonalization with overlap
     ethr =  2.36E-10,  avg # of iterations =  3.9

     total cpu time spent up to now is    73446.2 secs

     total energy              =    -702.42885233 Ry
     Harris-Foulkes estimate   =    -702.42885233 Ry
     estimated scf accuracy    <       0.00000001 Ry

     iteration #  9     ecut=    40.00 Ry     beta=0.60
     Davidson diagonalization with overlap
     ethr =  1.70E-11,  avg # of iterations =  5.5

     total cpu time spent up to now is    73614.0 secs

     total energy              =    -702.42885233 Ry
     Harris-Foulkes estimate   =    -702.42885234 Ry
     estimated scf accuracy    <       0.00000006 Ry

     iteration # 10     ecut=    40.00 Ry     beta=0.60
     Davidson diagonalization with overlap
     ethr =  1.70E-11,  avg # of iterations =  4.4

     total cpu time spent up to now is    73755.7 secs

     total energy              =    -702.42885234 Ry
     Harris-Foulkes estimate   =    -702.42885234 Ry
     estimated scf accuracy    <       0.00000002 Ry

     iteration # 11     ecut=    40.00 Ry     beta=0.60
     Davidson diagonalization with overlap
     ethr =  1.70E-11,  avg # of iterations =  1.0

     total cpu time spent up to now is    73843.9 secs

     total energy              =    -702.42885234 Ry
     Harris-Foulkes estimate   =    -702.42885234 Ry
     estimated scf accuracy    <          8.5E-09 Ry

     iteration # 12     ecut=    40.00 Ry     beta=0.60
     Davidson diagonalization with overlap
     ethr =  1.15E-11,  avg # of iterations =  3.7

     total cpu time spent up to now is    73960.1 secs

     total energy              =    -702.42885234 Ry
     Harris-Foulkes estimate   =    -702.42885234 Ry
     estimated scf accuracy    <          2.6E-09 Ry

     iteration # 13     ecut=    40.00 Ry     beta=0.60
     Davidson diagonalization with overlap
     ethr =  3.57E-12,  avg # of iterations =  3.0

     total cpu time spent up to now is    74061.6 secs

     total energy              =    -702.42885234 Ry
     Harris-Foulkes estimate   =    -702.42885234 Ry
     estimated scf accuracy    <          2.5E-10 Ry

     iteration # 14     ecut=    40.00 Ry     beta=0.60
     Davidson diagonalization with overlap
     ethr =  3.37E-13,  avg # of iterations =  4.9

     total cpu time spent up to now is    74215.5 secs

     total energy              =    -702.42885234 Ry
     Harris-Foulkes estimate   =    -702.42885234 Ry
     estimated scf accuracy    <          2.1E-10 Ry

     iteration # 15     ecut=    40.00 Ry     beta=0.60
     Davidson diagonalization with overlap
     ethr =  2.85E-13,  avg # of iterations =  1.0

     total cpu time spent up to now is    74303.8 secs

     End of self-consistent calculation

     Number of k-points >= 100: set verbosity='high' to print the bands.

     the Fermi energy is    15.0445 ev

!    total energy              =    -702.42885234 Ry
     Harris-Foulkes estimate   =    -702.42885234 Ry
     estimated scf accuracy    <          5.8E-11 Ry

     The total energy is the sum of the following terms:

     one-electron contribution =    -199.09081015 Ry
     hartree contribution      =     127.97602774 Ry
     xc contribution           =     -94.95645416 Ry
     ewald contribution        =    -536.35151633 Ry
     smearing contrib. (-TS)   =      -0.00609944 Ry

     convergence has been achieved in  15 iterations

     Forces acting on atoms (Ry/au):

     atom    1 type  2   force =     0.00512907    0.00597373    0.00000000
     atom    2 type  2   force =     0.00513321   -0.00607168    0.00000000
     atom    3 type  2   force =    -0.00520831    0.00606980   -0.00000000
     atom    4 type  2   force =    -0.00520926   -0.00598343   -0.00000000
     atom    5 type  1   force =     0.00008045    0.00047264    0.00000000
     atom    6 type  1   force =     0.00007485   -0.00046106    0.00000000

     Total force =     0.015892     Total SCF correction =     0.000009


     entering subroutine stress ...

          total   stress  (Ry/bohr**3)                   (kbar)     P=   -0.02
   0.00004563   0.00000025   0.00000000          6.71      0.04      0.00
   0.00000025  -0.00000808   0.00000000          0.04     -1.19      0.00
   0.00000000   0.00000000  -0.00003794          0.00      0.00     -5.58


     number of scf cycles    =  29
     number of bfgs steps    =  25

     enthalpy old            =    -702.4288433085 Ry
     enthalpy new            =    -702.4288523361 Ry

     CASE: enthalpy_new < enthalpy_old

     new trust radius        =       0.0101706055 bohr
     new conv_thr            =            1.0E-10 Ry

     new unit-cell volume =    713.27234 a.u.^3 (   105.69605 Ang^3 )

CELL_PARAMETERS (alat=  1.88972599)
   4.360804370  -2.501161427   0.000000000
  -4.360763011  -2.501071626   0.000000000
   0.000000000   0.000000000  -4.845408612

ATOMIC_POSITIONS (angstrom)
Ti      -0.031526237  -4.983607414  -4.845408612
Ti      -0.031862627  -1.685682732  -2.422704306
Ti      -1.421499473  -2.482648285  -4.845408612
Ti      -1.421799153  -4.187314452  -2.422704306
Nb       1.453501409  -2.420584387  -4.845408612
Nb       1.453011560  -4.249266593  -2.422704306


     NEW-OLD atomic charge density approx. for the potential
     extrapolated charge   73.99466, renormalised to   74.00000

     total cpu time spent up to now is    74361.6 secs

     per-process dynamical memory:   358.3 Mb

     Self-consistent Calculation

     iteration #  1     ecut=    40.00 Ry     beta=0.60
     Davidson diagonalization with overlap
     ethr =  1.00E-06,  avg # of iterations =  4.0

     Threshold (ethr) on eigenvalues was too large:
     Diagonalizing with lowered threshold

     Davidson diagonalization with overlap
     ethr =  6.49E-08,  avg # of iterations =  3.0

     total cpu time spent up to now is    74700.3 secs

     total energy              =    -702.42882796 Ry
     Harris-Foulkes estimate   =    -702.43917582 Ry
     estimated scf accuracy    <       0.00004999 Ry

     iteration #  2     ecut=    40.00 Ry     beta=0.60
     Davidson diagonalization with overlap
     ethr =  6.76E-08,  avg # of iterations =  5.5

     total cpu time spent up to now is    74887.9 secs

     total energy              =    -702.42876682 Ry
     Harris-Foulkes estimate   =    -702.42895992 Ry
     estimated scf accuracy    <       0.00113392 Ry

     iteration #  3     ecut=    40.00 Ry     beta=0.60
     Davidson diagonalization with overlap
     ethr =  6.76E-08,  avg # of iterations =  5.5

     total cpu time spent up to now is    75059.4 secs

     total energy              =    -702.42885843 Ry
     Harris-Foulkes estimate   =    -702.42886015 Ry
     estimated scf accuracy    <       0.00000428 Ry

     iteration #  4     ecut=    40.00 Ry     beta=0.60
     Davidson diagonalization with overlap
     ethr =  5.78E-09,  avg # of iterations =  3.9

     total cpu time spent up to now is    75198.0 secs

     total energy              =    -702.42885867 Ry
     Harris-Foulkes estimate   =    -702.42885966 Ry
     estimated scf accuracy    <       0.00000237 Ry

     iteration #  5     ecut=    40.00 Ry     beta=0.60
     Davidson diagonalization with overlap
     ethr =  3.20E-09,  avg # of iterations =  5.1

     total cpu time spent up to now is    75355.5 secs

     total energy              =    -702.42885774 Ry
     Harris-Foulkes estimate   =    -702.42886126 Ry
     estimated scf accuracy    <       0.00002876 Ry

     iteration #  6     ecut=    40.00 Ry     beta=0.60
     Davidson diagonalization with overlap
     ethr =  3.20E-09,  avg # of iterations =  4.6

     total cpu time spent up to now is    75505.7 secs

     total energy              =    -702.42885935 Ry
     Harris-Foulkes estimate   =    -702.42885971 Ry
     estimated scf accuracy    <       0.00000220 Ry

     iteration #  7     ecut=    40.00 Ry     beta=0.60
     Davidson diagonalization with overlap
     ethr =  2.98E-09,  avg # of iterations =  1.5

     total cpu time spent up to now is    75596.2 secs

     total energy              =    -702.42885950 Ry
     Harris-Foulkes estimate   =    -702.42885952 Ry
     estimated scf accuracy    <       0.00000009 Ry

     iteration #  8     ecut=    40.00 Ry     beta=0.60
     Davidson diagonalization with overlap
     ethr =  1.23E-10,  avg # of iterations =  5.7

     total cpu time spent up to now is    75772.3 secs

     total energy              =    -702.42885956 Ry
     Harris-Foulkes estimate   =    -702.42885960 Ry
     estimated scf accuracy    <       0.00000032 Ry

     iteration #  9     ecut=    40.00 Ry     beta=0.60
     Davidson diagonalization with overlap
     ethr =  1.23E-10,  avg # of iterations =  4.2

     total cpu time spent up to now is    75894.9 secs

     total energy              =    -702.42885956 Ry
     Harris-Foulkes estimate   =    -702.42885958 Ry
     estimated scf accuracy    <       0.00000017 Ry

     iteration # 10     ecut=    40.00 Ry     beta=0.60
     Davidson diagonalization with overlap
     ethr =  1.23E-10,  avg # of iterations =  4.0

     total cpu time spent up to now is    76012.3 secs

     total energy              =    -702.42885957 Ry
     Harris-Foulkes estimate   =    -702.42885957 Ry
     estimated scf accuracy    <       0.00000002 Ry

     iteration # 11     ecut=    40.00 Ry     beta=0.60
     Davidson diagonalization with overlap
     ethr =  2.24E-11,  avg # of iterations =  4.4

     total cpu time spent up to now is    76161.4 secs

     total energy              =    -702.42885957 Ry
     Harris-Foulkes estimate   =    -702.42885957 Ry
     estimated scf accuracy    <       0.00000002 Ry

     iteration # 12     ecut=    40.00 Ry     beta=0.60
     Davidson diagonalization with overlap
