
     Program PWSCF v.6.3MaX starts on 21Feb2020 at 15:57:33 

     This program is part of the open-source Quantum ESPRESSO suite
     for quantum simulation of materials; please cite
         "P. Giannozzi et al., J. Phys.:Condens. Matter 21 395502 (2009);
         "P. Giannozzi et al., J. Phys.:Condens. Matter 29 465901 (2017);
          URL http://www.quantum-espresso.org", 
     in publications or presentations arising from this work. More details at
     http://www.quantum-espresso.org/quote

     Parallel version (MPI), running on     6 processors

     MPI processes distributed on     1 nodes
     R & G space division:  proc/nbgrp/npool/nimage =       6
     Waiting for input...
     Reading input from standard input

     Current dimensions of program PWSCF are:
     Max number of different atomic species (ntypx) = 10
     Max number of k-points (npk) =  40000
     Max angular momentum in pseudopotentials (lmaxx) =  3
     Message from routine iosys:
     minimal I/O required, wf_collect reset to FALSE

     Subspace diagonalization in iterative solution of the eigenvalue problem:
     a serial algorithm will be used

 
     Parallelization info
     --------------------
     sticks:   dense  smooth     PW     G-vecs:    dense   smooth      PW
     Min         324     130     43                18212     4609     901
     Max         325     131     44                18214     4613     905
     Sum        1949     781    259               109279    27659    5417
 


     bravais-lattice index     =            0
     lattice parameter (alat)  =       1.8897  a.u.
     unit-cell volume          =     808.3427 (a.u.)^3
     number of atoms/cell      =            6
     number of atomic types    =            2
     number of electrons       =        76.00
     number of Kohn-Sham states=           46
     kinetic-energy cutoff     =      40.0000  Ry
     charge density cutoff     =     400.0000  Ry
     convergence threshold     =      1.0E-10
     mixing beta               =       0.6000
     number of iterations used =            8  plain     mixing
     Exchange-correlation      = SLA PW PBE PBE ( 1  4  3  4 0 0)
     nstep                     =           50


     celldm(1)=   1.889726  celldm(2)=   0.000000  celldm(3)=   0.000000
     celldm(4)=   0.000000  celldm(5)=   0.000000  celldm(6)=   0.000000

     crystal axes: (cart. coord. in units of alat)
               a(1) = (  -3.045004   0.000000   4.972461 )  
               a(2) = (  -1.522502   2.637051   4.972461 )  
               a(3) = (  -4.567506   2.637051  -4.972461 )  

     reciprocal axes: (cart. coord. in units 2 pi/alat)
               b(1) = ( -0.218938 -0.252808  0.067036 )  
               b(2) = (  0.109469  0.316010  0.067036 )  
               b(3) = ( -0.109469  0.063202 -0.067036 )  


     PseudoPot. # 1 for Nb read from file:
     ./Nb.pbe-nsp-van.UPF
     MD5 check sum: 0a22fc7fb0ba19a08ca5db297a5d2854
     Pseudo is Ultrasoft + core correction, Zval = 13.0
     Generated by new atomic code, or converted to UPF format
     Using radial grid of  887 points,  6 beta functions with: 
                l(1) =   0
                l(2) =   0
                l(3) =   1
                l(4) =   1
                l(5) =   2
                l(6) =   2
     Q(r) pseudized with  6 coefficients,  rinner =    1.000   1.000   1.000
                                                       1.000   1.000

     PseudoPot. # 2 for Ti read from file:
     ./Ti.pbe-sp-van_ak.UPF
     MD5 check sum: f98fea3e8887528921fefa5636a534ca
     Pseudo is Ultrasoft, Zval = 12.0
     Generated by new atomic code, or converted to UPF format
     Using radial grid of  851 points,  6 beta functions with: 
                l(1) =   0
                l(2) =   0
                l(3) =   1
                l(4) =   1
                l(5) =   2
                l(6) =   2
     Q(r) pseudized with  8 coefficients,  rinner =    1.000   1.000   1.000
                                                       1.000   1.000

     atomic species   valence    mass     pseudopotential
        Nb            13.00    92.90638     Nb( 1.00)
        Ti            12.00    47.86700     Ti( 1.00)

      2 Sym. Ops. (no inversion) found



   Cartesian axes

     site n.     atom                  positions (alat units)
         1           Ti  tau(   1) = (  -4.5675063   2.6370512   0.0000000  )
         2           Nb  tau(   2) = (  -6.0900069   3.5160674   2.4862307  )
         3           Nb  tau(   3) = (  -4.5675063   2.6370512   4.9724614  )
         4           Ti  tau(   4) = (  -6.0900069   3.5160674   7.4586921  )
         5           Nb  tau(   5) = (  -9.1350127   5.2741024   4.9724614  )
         6           Nb  tau(   6) = (  -1.5225006   0.8790162   2.4862307  )

     number of k points=   398  Marzari-Vanderbilt smearing, width (Ry)=  0.0200

     Number of k-points >= 100: set verbosity='high' to print them.

     Dense  grid:   109279 G-vectors     FFT dimensions: (  72,  72,  90)

     Smooth grid:    27659 G-vectors     FFT dimensions: (  45,  45,  60)

     Estimated max dynamical RAM per process >     233.59 MB

     Estimated total dynamical RAM >       1.37 GB

     Initial potential from superposition of free atoms

     starting charge   73.98898, renormalised to   76.00000
     Starting wfcs are   72 randomized atomic wfcs

     total cpu time spent up to now is       21.2 secs

     Self-consistent Calculation

     iteration #  1     ecut=    40.00 Ry     beta= 0.60
     Davidson diagonalization with overlap
     ethr =  1.00E-02,  avg # of iterations =  2.9

     total cpu time spent up to now is       64.1 secs

     total energy              =    -651.58015796 Ry
     Harris-Foulkes estimate   =    -710.03823693 Ry
     estimated scf accuracy    <      72.43990223 Ry

     iteration #  2     ecut=    40.00 Ry     beta= 0.60
     Davidson diagonalization with overlap
     ethr =  1.00E-02,  avg # of iterations =  7.9

     total cpu time spent up to now is      154.2 secs

     total energy              =    -663.63144390 Ry
     Harris-Foulkes estimate   =    -812.14559685 Ry
     estimated scf accuracy    <     522.93978061 Ry

     iteration #  3     ecut=    40.00 Ry     beta= 0.60
     Davidson diagonalization with overlap
     ethr =  1.00E-02,  avg # of iterations =  6.4

     total cpu time spent up to now is      230.1 secs

     total energy              =    -705.65055659 Ry
     Harris-Foulkes estimate   =    -716.77887272 Ry
     estimated scf accuracy    <      58.14297773 Ry

     iteration #  4     ecut=    40.00 Ry     beta= 0.60
     Davidson diagonalization with overlap
     ethr =  1.00E-02,  avg # of iterations =  3.5

     total cpu time spent up to now is      272.9 secs

     total energy              =    -707.46500934 Ry
     Harris-Foulkes estimate   =    -710.20501195 Ry
     estimated scf accuracy    <      28.02569618 Ry

     iteration #  5     ecut=    40.00 Ry     beta= 0.60
     Davidson diagonalization with overlap
     ethr =  1.00E-02,  avg # of iterations =  1.1

     total cpu time spent up to now is      305.5 secs

     total energy              =    -707.19534432 Ry
     Harris-Foulkes estimate   =    -707.77759388 Ry
     estimated scf accuracy    <      15.95441557 Ry

     iteration #  6     ecut=    40.00 Ry     beta= 0.60
     Davidson diagonalization with overlap
     ethr =  1.00E-02,  avg # of iterations =  1.0

     total cpu time spent up to now is      337.8 secs

     total energy              =    -705.95087657 Ry
     Harris-Foulkes estimate   =    -707.23516774 Ry
     estimated scf accuracy    <      14.00303600 Ry

     iteration #  7     ecut=    40.00 Ry     beta= 0.60
     Davidson diagonalization with overlap
     ethr =  1.00E-02,  avg # of iterations =  1.0

     total cpu time spent up to now is      370.2 secs

     total energy              =    -704.75059482 Ry
     Harris-Foulkes estimate   =    -706.03152001 Ry
     estimated scf accuracy    <      10.34776819 Ry

     iteration #  8     ecut=    40.00 Ry     beta= 0.60
     Davidson diagonalization with overlap
     ethr =  1.00E-02,  avg # of iterations =  2.2

     total cpu time spent up to now is      405.3 secs

     total energy              =    -704.91604390 Ry
     Harris-Foulkes estimate   =    -704.99643168 Ry
     estimated scf accuracy    <       3.94627138 Ry

     iteration #  9     ecut=    40.00 Ry     beta= 0.60
     Davidson diagonalization with overlap
     ethr =  5.19E-03,  avg # of iterations =  1.7

     total cpu time spent up to now is      439.0 secs

     total energy              =    -704.89887654 Ry
     Harris-Foulkes estimate   =    -704.98182474 Ry
     estimated scf accuracy    <       3.02460250 Ry

     iteration # 10     ecut=    40.00 Ry     beta= 0.60
     Davidson diagonalization with overlap
     ethr =  3.98E-03,  avg # of iterations =  1.7

     total cpu time spent up to now is      472.9 secs

     total energy              =    -703.88897180 Ry
     Harris-Foulkes estimate   =    -704.95232734 Ry
     estimated scf accuracy    <       1.84327819 Ry

     iteration # 11     ecut=    40.00 Ry     beta= 0.60
     Davidson diagonalization with overlap
     ethr =  2.43E-03,  avg # of iterations =  4.8

     total cpu time spent up to now is      535.6 secs

     total energy              =    -704.18857924 Ry
     Harris-Foulkes estimate   =    -710.17942239 Ry
     estimated scf accuracy    <      81.06925306 Ry

     iteration # 12     ecut=    40.00 Ry     beta= 0.60
     Davidson diagonalization with overlap
     ethr =  2.43E-03,  avg # of iterations =  4.1

     total cpu time spent up to now is      584.0 secs

     total energy              =    -704.89299493 Ry
     Harris-Foulkes estimate   =    -705.51534111 Ry
     estimated scf accuracy    <      14.20892391 Ry

     iteration # 13     ecut=    40.00 Ry     beta= 0.60
     Davidson diagonalization with overlap
     ethr =  2.43E-03,  avg # of iterations =  1.1

     total cpu time spent up to now is      616.3 secs

     total energy              =    -704.94720450 Ry
     Harris-Foulkes estimate   =    -705.04725701 Ry
     estimated scf accuracy    <       4.40999449 Ry

     iteration # 14     ecut=    40.00 Ry     beta= 0.60
     Davidson diagonalization with overlap
     ethr =  2.43E-03,  avg # of iterations =  1.3

     total cpu time spent up to now is      649.1 secs

     total energy              =    -704.55186849 Ry
     Harris-Foulkes estimate   =    -704.98396007 Ry
     estimated scf accuracy    <       2.66361364 Ry

     iteration # 15     ecut=    40.00 Ry     beta= 0.60
     Davidson diagonalization with overlap
     ethr =  2.43E-03,  avg # of iterations =  5.0

     total cpu time spent up to now is      697.5 secs

     total energy              =    -704.81108682 Ry
     Harris-Foulkes estimate   =    -705.00801766 Ry
     estimated scf accuracy    <       1.31544207 Ry

     iteration # 16     ecut=    40.00 Ry     beta= 0.60
     Davidson diagonalization with overlap
     ethr =  1.73E-03,  avg # of iterations =  1.2

     total cpu time spent up to now is      730.0 secs

     total energy              =    -704.88401762 Ry
     Harris-Foulkes estimate   =    -704.88593567 Ry
     estimated scf accuracy    <       0.09213720 Ry

     iteration # 17     ecut=    40.00 Ry     beta= 0.60
     Davidson diagonalization with overlap
     ethr =  1.21E-04,  avg # of iterations =  5.3

     total cpu time spent up to now is      786.4 secs

     total energy              =    -704.90218030 Ry
     Harris-Foulkes estimate   =    -704.90640460 Ry
     estimated scf accuracy    <       0.02307418 Ry

     iteration # 18     ecut=    40.00 Ry     beta= 0.60
     Davidson diagonalization with overlap
     ethr =  3.04E-05,  avg # of iterations =  2.7

     total cpu time spent up to now is      822.4 secs

     total energy              =    -704.89818218 Ry
     Harris-Foulkes estimate   =    -704.90422195 Ry
     estimated scf accuracy    <       0.02365469 Ry

     iteration # 19     ecut=    40.00 Ry     beta= 0.60
     Davidson diagonalization with overlap
     ethr =  3.04E-05,  avg # of iterations =  3.8

     total cpu time spent up to now is      866.9 secs

     total energy              =    -704.89815643 Ry
     Harris-Foulkes estimate   =    -704.90552626 Ry
     estimated scf accuracy    <       0.06021006 Ry

     iteration # 20     ecut=    40.00 Ry     beta= 0.60
     Davidson diagonalization with overlap
     ethr =  3.04E-05,  avg # of iterations =  2.9

     total cpu time spent up to now is      904.9 secs

     total energy              =    -704.90054481 Ry
     Harris-Foulkes estimate   =    -704.90201968 Ry
     estimated scf accuracy    <       0.00544448 Ry

     iteration # 21     ecut=    40.00 Ry     beta= 0.60
     Davidson diagonalization with overlap
     ethr =  7.16E-06,  avg # of iterations =  3.7

     total cpu time spent up to now is      950.1 secs

     total energy              =    -704.90134034 Ry
     Harris-Foulkes estimate   =    -704.90150767 Ry
     estimated scf accuracy    <       0.00336096 Ry

     iteration # 22     ecut=    40.00 Ry     beta= 0.60
     Davidson diagonalization with overlap
     ethr =  4.42E-06,  avg # of iterations =  1.4

     total cpu time spent up to now is      983.4 secs

     total energy              =    -704.90125252 Ry
     Harris-Foulkes estimate   =    -704.90150335 Ry
     estimated scf accuracy    <       0.00340599 Ry

     iteration # 23     ecut=    40.00 Ry     beta= 0.60
     Davidson diagonalization with overlap
     ethr =  4.42E-06,  avg # of iterations =  1.0

     total cpu time spent up to now is     1015.8 secs

     total energy              =    -704.90105905 Ry
     Harris-Foulkes estimate   =    -704.90132706 Ry
     estimated scf accuracy    <       0.00141048 Ry

     iteration # 24     ecut=    40.00 Ry     beta= 0.60
     Davidson diagonalization with overlap
     ethr =  1.86E-06,  avg # of iterations =  5.1

     total cpu time spent up to now is     1064.6 secs

     total energy              =    -704.90099586 Ry
     Harris-Foulkes estimate   =    -704.90150122 Ry
     estimated scf accuracy    <       0.00499295 Ry

     iteration # 25     ecut=    40.00 Ry     beta= 0.60
     Davidson diagonalization with overlap
     ethr =  1.86E-06,  avg # of iterations =  3.6

     total cpu time spent up to now is     1104.2 secs

     total energy              =    -704.90121370 Ry
     Harris-Foulkes estimate   =    -704.90125347 Ry
     estimated scf accuracy    <       0.00022416 Ry

     iteration # 26     ecut=    40.00 Ry     beta= 0.60
     Davidson diagonalization with overlap
     ethr =  2.95E-07,  avg # of iterations =  4.2

     total cpu time spent up to now is     1151.0 secs

     total energy              =    -704.90125218 Ry
     Harris-Foulkes estimate   =    -704.90126418 Ry
     estimated scf accuracy    <       0.00011974 Ry

     iteration # 27     ecut=    40.00 Ry     beta= 0.60
     Davidson diagonalization with overlap
     ethr =  1.58E-07,  avg # of iterations =  1.0

     total cpu time spent up to now is     1183.4 secs

     total energy              =    -704.90125408 Ry
     Harris-Foulkes estimate   =    -704.90125623 Ry
     estimated scf accuracy    <       0.00002476 Ry

     iteration # 28     ecut=    40.00 Ry     beta= 0.60
     Davidson diagonalization with overlap
     ethr =  3.26E-08,  avg # of iterations =  3.5

     total cpu time spent up to now is     1225.2 secs

     total energy              =    -704.90125644 Ry
     Harris-Foulkes estimate   =    -704.90125658 Ry
     estimated scf accuracy    <       0.00000101 Ry

     iteration # 29     ecut=    40.00 Ry     beta= 0.60
     Davidson diagonalization with overlap
     ethr =  1.33E-09,  avg # of iterations =  4.2

     total cpu time spent up to now is     1273.5 secs

     total energy              =    -704.90125652 Ry
     Harris-Foulkes estimate   =    -704.90125676 Ry
     estimated scf accuracy    <       0.00000189 Ry

     iteration # 30     ecut=    40.00 Ry     beta= 0.60
     Davidson diagonalization with overlap
     ethr =  1.33E-09,  avg # of iterations =  2.6

     total cpu time spent up to now is     1309.7 secs

     total energy              =    -704.90125659 Ry
     Harris-Foulkes estimate   =    -704.90125665 Ry
     estimated scf accuracy    <       0.00000059 Ry

     iteration # 31     ecut=    40.00 Ry     beta= 0.60
     Davidson diagonalization with overlap
     ethr =  7.76E-10,  avg # of iterations =  2.3

     total cpu time spent up to now is     1344.8 secs

     total energy              =    -704.90125660 Ry
     Harris-Foulkes estimate   =    -704.90125664 Ry
     estimated scf accuracy    <       0.00000030 Ry

     iteration # 32     ecut=    40.00 Ry     beta= 0.60
     Davidson diagonalization with overlap
     ethr =  3.96E-10,  avg # of iterations =  1.8

     total cpu time spent up to now is     1378.4 secs

     total energy              =    -704.90125662 Ry
     Harris-Foulkes estimate   =    -704.90125662 Ry
     estimated scf accuracy    <       0.00000003 Ry

     iteration # 33     ecut=    40.00 Ry     beta= 0.60
     Davidson diagonalization with overlap
     ethr =  4.55E-11,  avg # of iterations =  4.4

     total cpu time spent up to now is     1427.4 secs

     total energy              =    -704.90125662 Ry
     Harris-Foulkes estimate   =    -704.90125663 Ry
     estimated scf accuracy    <       0.00000002 Ry

     iteration # 34     ecut=    40.00 Ry     beta= 0.60
     Davidson diagonalization with overlap
     ethr =  2.88E-11,  avg # of iterations =  1.0

     total cpu time spent up to now is     1459.4 secs

     total energy              =    -704.90125662 Ry
     Harris-Foulkes estimate   =    -704.90125662 Ry
     estimated scf accuracy    <          8.2E-09 Ry

     iteration # 35     ecut=    40.00 Ry     beta= 0.60
     Davidson diagonalization with overlap
     ethr =  1.07E-11,  avg # of iterations =  3.0

     total cpu time spent up to now is     1497.7 secs

     total energy              =    -704.90125662 Ry
     Harris-Foulkes estimate   =    -704.90125662 Ry
     estimated scf accuracy    <          1.3E-09 Ry

     iteration # 36     ecut=    40.00 Ry     beta= 0.60
     Davidson diagonalization with overlap
     ethr =  1.68E-12,  avg # of iterations =  3.1

     total cpu time spent up to now is     1537.4 secs

     total energy              =    -704.90125662 Ry
     Harris-Foulkes estimate   =    -704.90125662 Ry
     estimated scf accuracy    <          3.1E-10 Ry

     iteration # 37     ecut=    40.00 Ry     beta= 0.60
     Davidson diagonalization with overlap
     ethr =  4.02E-13,  avg # of iterations =  3.9

     total cpu time spent up to now is     1579.9 secs

     End of self-consistent calculation

     Number of k-points >= 100: set verbosity='high' to print the bands.

     the Fermi energy is    14.6565 ev

!    total energy              =    -704.90125662 Ry
     Harris-Foulkes estimate   =    -704.90125662 Ry
     estimated scf accuracy    <          9.8E-11 Ry

     The total energy is the sum of the following terms:

     one-electron contribution =    -177.75050917 Ry
     hartree contribution      =     117.60510877 Ry
     xc contribution           =    -102.16510692 Ry
     ewald contribution        =    -542.58677589 Ry
     smearing contrib. (-TS)   =      -0.00397342 Ry

     convergence has been achieved in  37 iterations

     Forces acting on atoms (cartesian axes, Ry/au):

     atom    1 type  2   force =     0.00288741   -0.00166705    0.00805201
     atom    2 type  1   force =     0.00251983   -0.00145482    0.00515003
     atom    3 type  1   force =    -0.00251851    0.00145406   -0.00514971
     atom    4 type  2   force =    -0.00288728    0.00166697   -0.00805235
     atom    5 type  1   force =    -0.00194610    0.00112358   -0.00634769
     atom    6 type  1   force =     0.00194466   -0.00112275    0.00634771

     Total force =     0.017679     Total SCF correction =     0.000044


     Computing stress (Cartesian axis) and pressure

          total   stress  (Ry/bohr**3)                   (kbar)     P= -117.23
  -0.00088494  -0.00002568   0.00000601       -130.18     -3.78      0.88
  -0.00002568  -0.00091459  -0.00000347         -3.78   -134.54     -0.51
   0.00000601  -0.00000347  -0.00059123          0.88     -0.51    -86.97


     BFGS Geometry Optimization

     number of scf cycles    =   1
     number of bfgs steps    =   0

     enthalpy new            =    -704.9012566242 Ry

     new trust radius        =       0.1300680064 bohr
     new conv_thr            =            1.0E-10 Ry

     new unit-cell volume =    760.96880 a.u.^3 (   112.76394 Ang^3 )
     density =      6.88224 g/cm^3

CELL_PARAMETERS (alat=  1.88972599)
  -2.976890671   0.001523551   4.898506985
  -1.489764769   2.577301355   4.898506985
  -4.468896297   2.580118665  -4.899879226

ATOMIC_POSITIONS (angstrom)
Ti      -4.466653989   2.578824068   0.003283437
Nb      -5.955852656   3.438613381   2.450947693
Nb      -4.468706550   2.580009115   4.895364475
Ti      -5.957905831   3.439798783   7.343028383
Nb      -8.936559673   5.159525503   4.893825135
Nb      -1.488000959   0.859097817   2.452486877


     NEW-OLD atomic charge density approx. for the potential

     Check: negative/imaginary core charge=   -0.000001    0.000000
     extrapolated charge   71.39383, renormalised to   76.00000

     total cpu time spent up to now is     1592.6 secs

     Self-consistent Calculation

     iteration #  1     ecut=    40.00 Ry     beta= 0.60
     Davidson diagonalization with overlap
     c_bands:  1 eigenvalues not converged
     c_bands:  1 eigenvalues not converged
     c_bands:  1 eigenvalues not converged
     c_bands:  1 eigenvalues not converged
     c_bands:  1 eigenvalues not converged
     c_bands:  1 eigenvalues not converged
     c_bands:  1 eigenvalues not converged
     c_bands:  1 eigenvalues not converged
     c_bands:  1 eigenvalues not converged
     c_bands:  1 eigenvalues not converged
     c_bands:  1 eigenvalues not converged
     c_bands:  1 eigenvalues not converged
     c_bands:  1 eigenvalues not converged
     c_bands:  1 eigenvalues not converged
     c_bands:  1 eigenvalues not converged
     c_bands:  1 eigenvalues not converged
     c_bands:  1 eigenvalues not converged
     c_bands:  1 eigenvalues not converged
     c_bands:  1 eigenvalues not converged
     c_bands:  1 eigenvalues not converged
     c_bands:  1 eigenvalues not converged
     c_bands:  1 eigenvalues not converged
     c_bands:  2 eigenvalues not converged
     c_bands:  1 eigenvalues not converged
     c_bands:  1 eigenvalues not converged
     c_bands:  1 eigenvalues not converged
     c_bands:  1 eigenvalues not converged
     c_bands:  2 eigenvalues not converged
     c_bands:  1 eigenvalues not converged
     c_bands:  1 eigenvalues not converged
     c_bands:  1 eigenvalues not converged
     c_bands:  1 eigenvalues not converged
     c_bands:  1 eigenvalues not converged
     c_bands:  1 eigenvalues not converged
     c_bands:  1 eigenvalues not converged
     c_bands:  1 eigenvalues not converged
     c_bands:  1 eigenvalues not converged
     c_bands:  1 eigenvalues not converged
     c_bands:  1 eigenvalues not converged
     c_bands:  1 eigenvalues not converged
     c_bands:  1 eigenvalues not converged
     c_bands:  1 eigenvalues not converged
     c_bands:  1 eigenvalues not converged
     c_bands:  1 eigenvalues not converged
     c_bands:  1 eigenvalues not converged
     c_bands:  1 eigenvalues not converged
     c_bands:  2 eigenvalues not converged
     c_bands:  1 eigenvalues not converged
     c_bands:  1 eigenvalues not converged
     c_bands:  1 eigenvalues not converged
     c_bands:  1 eigenvalues not converged
     c_bands:  1 eigenvalues not converged
     c_bands:  1 eigenvalues not converged
     c_bands:  1 eigenvalues not converged
     c_bands:  1 eigenvalues not converged
     c_bands:  1 eigenvalues not converged
     c_bands:  1 eigenvalues not converged
     c_bands:  1 eigenvalues not converged
     c_bands:  1 eigenvalues not converged
     c_bands:  1 eigenvalues not converged
     c_bands:  1 eigenvalues not converged
     c_bands:  1 eigenvalues not converged
     c_bands:  1 eigenvalues not converged
     c_bands:  1 eigenvalues not converged
     c_bands:  1 eigenvalues not converged
     c_bands:  1 eigenvalues not converged
     c_bands:  1 eigenvalues not converged
     c_bands:  1 eigenvalues not converged
     c_bands:  1 eigenvalues not converged
     c_bands:  1 eigenvalues not converged
     c_bands:  1 eigenvalues not converged
     c_bands:  1 eigenvalues not converged
     c_bands:  1 eigenvalues not converged
     c_bands:  1 eigenvalues not converged
     c_bands:  1 eigenvalues not converged
     c_bands:  1 eigenvalues not converged
     c_bands:  1 eigenvalues not converged
     c_bands:  1 eigenvalues not converged
     c_bands:  1 eigenvalues not converged
     c_bands:  2 eigenvalues not converged
     c_bands:  1 eigenvalues not converged
     c_bands:  1 eigenvalues not converged
     c_bands:  1 eigenvalues not converged
     c_bands:  1 eigenvalues not converged
     c_bands:  2 eigenvalues not converged
     c_bands:  1 eigenvalues not converged
     c_bands:  1 eigenvalues not converged
     c_bands:  2 eigenvalues not converged
     c_bands:  1 eigenvalues not converged
     c_bands:  1 eigenvalues not converged
     c_bands:  1 eigenvalues not converged
     c_bands:  1 eigenvalues not converged
     c_bands:  1 eigenvalues not converged
     c_bands:  1 eigenvalues not converged
     c_bands:  1 eigenvalues not converged
     c_bands:  1 eigenvalues not converged
     c_bands:  1 eigenvalues not converged
     c_bands:  1 eigenvalues not converged
     c_bands:  1 eigenvalues not converged
     c_bands:  1 eigenvalues not converged
     c_bands:  1 eigenvalues not converged
     c_bands:  1 eigenvalues not converged
     c_bands:  1 eigenvalues not converged
     c_bands:  1 eigenvalues not converged
     c_bands:  2 eigenvalues not converged
     c_bands:  1 eigenvalues not converged
     c_bands:  1 eigenvalues not converged
     c_bands:  1 eigenvalues not converged
     ethr =  1.00E-06,  avg # of iterations = 16.8

     total cpu time spent up to now is     1733.4 secs

     total energy              =    -700.42780947 Ry
     Harris-Foulkes estimate   =    -712.14406823 Ry
     estimated scf accuracy    <       4.66939283 Ry

     iteration #  2     ecut=    40.00 Ry     beta= 0.60
     Davidson diagonalization with overlap
     ethr =  6.14E-03,  avg # of iterations =  5.8

     total cpu time spent up to now is     1800.5 secs

     total energy              =    -704.41826585 Ry
     Harris-Foulkes estimate   =    -712.20079933 Ry
     estimated scf accuracy    <      26.38721189 Ry

     iteration #  3     ecut=    40.00 Ry     beta= 0.60
     Davidson diagonalization with overlap
     ethr =  6.14E-03,  avg # of iterations =  4.0

     total cpu time spent up to now is     1849.5 secs

     total energy              =    -704.95791370 Ry
     Harris-Foulkes estimate   =    -706.24307083 Ry
     estimated scf accuracy    <       6.54363689 Ry

     iteration #  4     ecut=    40.00 Ry     beta= 0.60
     Davidson diagonalization with overlap
     ethr =  6.14E-03,  avg # of iterations =  2.7

     total cpu time spent up to now is     1887.5 secs

     total energy              =    -704.83668473 Ry
     Harris-Foulkes estimate   =    -705.82490633 Ry
     estimated scf accuracy    <       8.43102212 Ry

     iteration #  5     ecut=    40.00 Ry     beta= 0.60
     Davidson diagonalization with overlap
     ethr =  6.14E-03,  avg # of iterations =  1.2

     total cpu time spent up to now is     1920.0 secs

     total energy              =    -704.84501535 Ry
     Harris-Foulkes estimate   =    -705.15961978 Ry
     estimated scf accuracy    <       2.18160779 Ry

     iteration #  6     ecut=    40.00 Ry     beta= 0.60
     Davidson diagonalization with overlap
     ethr =  2.87E-03,  avg # of iterations =  3.3

     total cpu time spent up to now is     1958.3 secs

     total energy              =    -704.95605865 Ry
     Harris-Foulkes estimate   =    -704.96535727 Ry
     estimated scf accuracy    <       0.40277156 Ry

     iteration #  7     ecut=    40.00 Ry     beta= 0.60
     Davidson diagonalization with overlap
     ethr =  5.30E-04,  avg # of iterations =  5.0

     total cpu time spent up to now is     2003.9 secs

     total energy              =    -704.95324838 Ry
     Harris-Foulkes estimate   =    -704.98231011 Ry
     estimated scf accuracy    <       0.34966363 Ry

     iteration #  8     ecut=    40.00 Ry     beta= 0.60
     Davidson diagonalization with overlap
     ethr =  4.60E-04,  avg # of iterations =  1.2

     total cpu time spent up to now is     2036.2 secs

     total energy              =    -704.94318565 Ry
     Harris-Foulkes estimate   =    -704.95679791 Ry
     estimated scf accuracy    <       0.24459129 Ry

     iteration #  9     ecut=    40.00 Ry     beta= 0.60
     Davidson diagonalization with overlap
     ethr =  3.22E-04,  avg # of iterations =  1.2

     total cpu time spent up to now is     2068.5 secs

     total energy              =    -704.90349628 Ry
     Harris-Foulkes estimate   =    -704.94598816 Ry
     estimated scf accuracy    <       0.15843415 Ry

     iteration # 10     ecut=    40.00 Ry     beta= 0.60
     Davidson diagonalization with overlap
     ethr =  2.08E-04,  avg # of iterations =  5.3

     total cpu time spent up to now is     2118.5 secs

     total energy              =    -704.93451356 Ry
     Harris-Foulkes estimate   =    -704.93284037 Ry
     estimated scf accuracy    <       0.05312972 Ry

     iteration # 11     ecut=    40.00 Ry     beta= 0.60
     Davidson diagonalization with overlap
     ethr =  6.99E-05,  avg # of iterations =  2.7

     total cpu time spent up to now is     2155.0 secs

     total energy              =    -704.92755432 Ry
     Harris-Foulkes estimate   =    -704.93598434 Ry
     estimated scf accuracy    <       0.07736850 Ry

     iteration # 12     ecut=    40.00 Ry     beta= 0.60
     Davidson diagonalization with overlap
     ethr =  6.99E-05,  avg # of iterations =  1.0

     total cpu time spent up to now is     2187.0 secs

     total energy              =    -704.92915792 Ry
     Harris-Foulkes estimate   =    -704.93006579 Ry
     estimated scf accuracy    <       0.01064418 Ry

     iteration # 13     ecut=    40.00 Ry     beta= 0.60
     Davidson diagonalization with overlap
     ethr =  1.40E-05,  avg # of iterations =  4.3

     total cpu time spent up to now is     2231.3 secs

     total energy              =    -704.92992023 Ry
     Harris-Foulkes estimate   =    -704.93012389 Ry
     estimated scf accuracy    <       0.00064937 Ry

     iteration # 14     ecut=    40.00 Ry     beta= 0.60
     Davidson diagonalization with overlap
     ethr =  8.54E-07,  avg # of iterations =  5.0

     total cpu time spent up to now is     2286.8 secs

     total energy              =    -704.92978639 Ry
     Harris-Foulkes estimate   =    -704.93049595 Ry
     estimated scf accuracy    <       0.00542844 Ry

     iteration # 15     ecut=    40.00 Ry     beta= 0.60
     Davidson diagonalization with overlap
     ethr =  8.54E-07,  avg # of iterations =  3.9

     total cpu time spent up to now is     2333.3 secs

     total energy              =    -704.93010906 Ry
     Harris-Foulkes estimate   =    -704.93011518 Ry
     estimated scf accuracy    <       0.00002566 Ry

     iteration # 16     ecut=    40.00 Ry     beta= 0.60
     Davidson diagonalization with overlap
     ethr =  3.38E-08,  avg # of iterations =  4.2

     total cpu time spent up to now is     2379.2 secs

     total energy              =    -704.93011007 Ry
     Harris-Foulkes estimate   =    -704.93011531 Ry
     estimated scf accuracy    <       0.00002924 Ry

     iteration # 17     ecut=    40.00 Ry     beta= 0.60
     Davidson diagonalization with overlap
     ethr =  3.38E-08,  avg # of iterations =  3.5

     total cpu time spent up to now is     2418.8 secs

     total energy              =    -704.93011364 Ry
     Harris-Foulkes estimate   =    -704.93011431 Ry
     estimated scf accuracy    <       0.00000897 Ry

     iteration # 18     ecut=    40.00 Ry     beta= 0.60
     Davidson diagonalization with overlap
     ethr =  1.18E-08,  avg # of iterations =  2.9

     total cpu time spent up to now is     2456.2 secs

     total energy              =    -704.93011379 Ry
     Harris-Foulkes estimate   =    -704.93011422 Ry
     estimated scf accuracy    <       0.00000563 Ry

     iteration # 19     ecut=    40.00 Ry     beta= 0.60
     Davidson diagonalization with overlap
     ethr =  7.41E-09,  avg # of iterations =  1.3

     total cpu time spent up to now is     2489.2 secs

     total energy              =    -704.93011380 Ry
     Harris-Foulkes estimate   =    -704.93011396 Ry
     estimated scf accuracy    <       0.00000211 Ry

     iteration # 20     ecut=    40.00 Ry     beta= 0.60
     Davidson diagonalization with overlap
     ethr =  2.78E-09,  avg # of iterations =  2.9

     total cpu time spent up to now is     2526.2 secs

     total energy              =    -704.93011382 Ry
     Harris-Foulkes estimate   =    -704.93011388 Ry
     estimated scf accuracy    <       0.00000064 Ry

     iteration # 21     ecut=    40.00 Ry     beta= 0.60
     Davidson diagonalization with overlap
     ethr =  8.37E-10,  avg # of iterations =  3.5

     total cpu time spent up to now is     2566.0 secs

     total energy              =    -704.93011386 Ry
     Harris-Foulkes estimate   =    -704.93011387 Ry
     estimated scf accuracy    <       0.00000007 Ry

     iteration # 22     ecut=    40.00 Ry     beta= 0.60
     Davidson diagonalization with overlap
     ethr =  9.23E-11,  avg # of iterations =  4.3

     total cpu time spent up to now is     2614.0 secs

     total energy              =    -704.93011387 Ry
     Harris-Foulkes estimate   =    -704.93011388 Ry
     estimated scf accuracy    <       0.00000012 Ry

     iteration # 23     ecut=    40.00 Ry     beta= 0.60
     Davidson diagonalization with overlap
     ethr =  9.23E-11,  avg # of iterations =  1.8

     total cpu time spent up to now is     2647.9 secs

     total energy              =    -704.93011387 Ry
     Harris-Foulkes estimate   =    -704.93011388 Ry
     estimated scf accuracy    <       0.00000003 Ry

     iteration # 24     ecut=    40.00 Ry     beta= 0.60
     Davidson diagonalization with overlap
     ethr =  3.92E-11,  avg # of iterations =  2.9

     total cpu time spent up to now is     2687.3 secs

     total energy              =    -704.93011388 Ry
     Harris-Foulkes estimate   =    -704.93011388 Ry
     estimated scf accuracy    <          4.4E-09 Ry

     iteration # 25     ecut=    40.00 Ry     beta= 0.60
     Davidson diagonalization with overlap
     ethr =  5.79E-12,  avg # of iterations =  2.5

     total cpu time spent up to now is     2725.3 secs

     total energy              =    -704.93011388 Ry
     Harris-Foulkes estimate   =    -704.93011388 Ry
     estimated scf accuracy    <          6.0E-10 Ry

     iteration # 26     ecut=    40.00 Ry     beta= 0.60
     Davidson diagonalization with overlap
     ethr =  7.90E-13,  avg # of iterations =  3.9

     total cpu time spent up to now is     2768.4 secs

     total energy              =    -704.93011388 Ry
     Harris-Foulkes estimate   =    -704.93011388 Ry
     estimated scf accuracy    <          1.7E-10 Ry

     iteration # 27     ecut=    40.00 Ry     beta= 0.60
     Davidson diagonalization with overlap
     ethr =  2.21E-13,  avg # of iterations =  2.0

     total cpu time spent up to now is     2803.8 secs

     End of self-consistent calculation

     Number of k-points >= 100: set verbosity='high' to print the bands.

     the Fermi energy is    15.7289 ev

!    total energy              =    -704.93011388 Ry
     Harris-Foulkes estimate   =    -704.93011388 Ry
     estimated scf accuracy    <          3.6E-11 Ry

     The total energy is the sum of the following terms:

     one-electron contribution =    -161.72763087 Ry
     hartree contribution      =     112.94411839 Ry
     xc contribution           =    -102.50014408 Ry
     ewald contribution        =    -553.64358032 Ry
     smearing contrib. (-TS)   =      -0.00287700 Ry

     convergence has been achieved in  27 iterations

     Forces acting on atoms (cartesian axes, Ry/au):

     atom    1 type  2   force =     0.00330635   -0.00190892    0.01094465
     atom    2 type  1   force =     0.00495403   -0.00286021    0.00668194
     atom    3 type  1   force =    -0.00495402    0.00286021   -0.00668210
     atom    4 type  2   force =    -0.00330620    0.00190883   -0.01094453
     atom    5 type  1   force =    -0.00134910    0.00077890   -0.00608022
     atom    6 type  1   force =     0.00134894   -0.00077881    0.00608026

     Total force =     0.022411     Total SCF correction =     0.000021


     Computing stress (Cartesian axis) and pressure

          total   stress  (Ry/bohr**3)                   (kbar)     P=  -47.76
  -0.00042306  -0.00002881   0.00001100        -62.23     -4.24      1.62
  -0.00002881  -0.00045633  -0.00000635         -4.24    -67.13     -0.93
   0.00001100  -0.00000635  -0.00009470          1.62     -0.93    -13.93


     number of scf cycles    =   2
     number of bfgs steps    =   1

     enthalpy old            =    -704.9012566242 Ry
     enthalpy new            =    -704.9301138762 Ry

     CASE: enthalpy_new < enthalpy_old

     new trust radius        =       0.1154042905 bohr
     new conv_thr            =            1.0E-10 Ry

     new unit-cell volume =    727.06574 a.u.^3 (   107.74003 Ang^3 )
     density =      7.20316 g/cm^3

CELL_PARAMETERS (alat=  1.88972599)
  -2.916858090   0.003991991   4.873126509
  -1.461886210   2.524077399   4.873126509
  -4.387936143   2.533376302  -4.878766872

ATOMIC_POSITIONS (angstrom)
Ti      -4.380465813   2.529063306   0.010344049
Nb      -5.839343858   3.371347001   2.441232597
Nb      -4.387426502   2.533082061   4.862503485
Ti      -5.846305058   3.375366052   7.293391913
Nb      -8.768894700   5.062724094   4.858618574
Nb      -1.457877285   0.841705906   2.445117527


     NEW-OLD atomic charge density approx. for the potential

     Check: negative/imaginary core charge=   -0.000001    0.000000
     extrapolated charge   72.54990, renormalised to   76.00000

     total cpu time spent up to now is     2816.6 secs

     Self-consistent Calculation

     iteration #  1     ecut=    40.00 Ry     beta= 0.60
     Davidson diagonalization with overlap
     c_bands:  1 eigenvalues not converged
     c_bands:  1 eigenvalues not converged
     c_bands:  1 eigenvalues not converged
     c_bands:  1 eigenvalues not converged
     c_bands:  1 eigenvalues not converged
     c_bands:  1 eigenvalues not converged
     c_bands:  1 eigenvalues not converged
     c_bands:  1 eigenvalues not converged
     c_bands:  1 eigenvalues not converged
     c_bands:  2 eigenvalues not converged
     c_bands:  2 eigenvalues not converged
     c_bands:  1 eigenvalues not converged
     c_bands:  1 eigenvalues not converged
     c_bands:  1 eigenvalues not converged
     c_bands:  1 eigenvalues not converged
     c_bands:  1 eigenvalues not converged
     c_bands:  2 eigenvalues not converged
     c_bands:  2 eigenvalues not converged
     c_bands:  1 eigenvalues not converged
     c_bands:  1 eigenvalues not converged
     c_bands:  1 eigenvalues not converged
     c_bands:  1 eigenvalues not converged
     c_bands:  1 eigenvalues not converged
     c_bands:  1 eigenvalues not converged
     c_bands:  1 eigenvalues not converged
     c_bands:  1 eigenvalues not converged
     c_bands:  1 eigenvalues not converged
     c_bands:  1 eigenvalues not converged
     c_bands:  1 eigenvalues not converged
     c_bands:  1 eigenvalues not converged
     c_bands:  1 eigenvalues not converged
     c_bands:  1 eigenvalues not converged
     c_bands:  1 eigenvalues not converged
     c_bands:  1 eigenvalues not converged
     c_bands:  1 eigenvalues not converged
     c_bands:  1 eigenvalues not converged
     c_bands:  1 eigenvalues not converged
     c_bands:  2 eigenvalues not converged
     c_bands:  2 eigenvalues not converged
     c_bands:  1 eigenvalues not converged
     c_bands:  1 eigenvalues not converged
     c_bands:  1 eigenvalues not converged
     c_bands:  2 eigenvalues not converged
     c_bands:  1 eigenvalues not converged
     c_bands:  1 eigenvalues not converged
     c_bands:  1 eigenvalues not converged
     c_bands:  1 eigenvalues not converged
     c_bands:  1 eigenvalues not converged
     c_bands:  2 eigenvalues not converged
     c_bands:  1 eigenvalues not converged
     c_bands:  1 eigenvalues not converged
     c_bands:  1 eigenvalues not converged
     c_bands:  1 eigenvalues not converged
     c_bands:  1 eigenvalues not converged
     c_bands:  1 eigenvalues not converged
     c_bands:  1 eigenvalues not converged
     c_bands:  1 eigenvalues not converged
     c_bands:  1 eigenvalues not converged
     c_bands:  1 eigenvalues not converged
     c_bands:  1 eigenvalues not converged
     c_bands:  1 eigenvalues not converged
     c_bands:  2 eigenvalues not converged
     c_bands:  1 eigenvalues not converged
     c_bands:  1 eigenvalues not converged
     c_bands:  1 eigenvalues not converged
     c_bands:  1 eigenvalues not converged
     c_bands:  1 eigenvalues not converged
     c_bands:  1 eigenvalues not converged
     c_bands:  1 eigenvalues not converged
     c_bands:  1 eigenvalues not converged
     c_bands:  1 eigenvalues not converged
     c_bands:  1 eigenvalues not converged
     c_bands:  1 eigenvalues not converged
     c_bands:  1 eigenvalues not converged
     c_bands:  1 eigenvalues not converged
     c_bands:  1 eigenvalues not converged
     c_bands:  1 eigenvalues not converged
     c_bands:  1 eigenvalues not converged
     c_bands:  1 eigenvalues not converged
     c_bands:  1 eigenvalues not converged
     c_bands:  1 eigenvalues not converged
     c_bands:  1 eigenvalues not converged
     c_bands:  1 eigenvalues not converged
     c_bands:  1 eigenvalues not converged
     c_bands:  1 eigenvalues not converged
     c_bands:  1 eigenvalues not converged
     c_bands:  1 eigenvalues not converged
     c_bands:  1 eigenvalues not converged
     c_bands:  1 eigenvalues not converged
     c_bands:  1 eigenvalues not converged
     c_bands:  1 eigenvalues not converged
     c_bands:  1 eigenvalues not converged
     c_bands:  1 eigenvalues not converged
     c_bands:  1 eigenvalues not converged
     c_bands:  1 eigenvalues not converged
     c_bands:  1 eigenvalues not converged
     c_bands:  2 eigenvalues not converged
     c_bands:  1 eigenvalues not converged
     c_bands:  1 eigenvalues not converged
     c_bands:  1 eigenvalues not converged
     c_bands:  1 eigenvalues not converged
     c_bands:  1 eigenvalues not converged
     ethr =  1.00E-06,  avg # of iterations = 14.8

     total cpu time spent up to now is     2946.9 secs

     total energy              =    -703.23498261 Ry
     Harris-Foulkes estimate   =    -709.90814305 Ry
     estimated scf accuracy    <       1.68313366 Ry

     iteration #  2     ecut=    40.00 Ry     beta= 0.60
     Davidson diagonalization with overlap
     ethr =  2.21E-03,  avg # of iterations =  6.2

     total cpu time spent up to now is     3021.5 secs

     total energy              =    -704.31822797 Ry
     Harris-Foulkes estimate   =    -708.11301789 Ry
     estimated scf accuracy    <      15.74212972 Ry

     iteration #  3     ecut=    40.00 Ry     beta= 0.60
     Davidson diagonalization with overlap
     ethr =  2.21E-03,  avg # of iterations =  4.8

     total cpu time spent up to now is     3081.3 secs

     total energy              =    -704.83679749 Ry
     Harris-Foulkes estimate   =    -705.46303832 Ry
     estimated scf accuracy    <       2.72995866 Ry

     iteration #  4     ecut=    40.00 Ry     beta= 0.60
     Davidson diagonalization with overlap
     ethr =  2.21E-03,  avg # of iterations =  3.3

     total cpu time spent up to now is     3122.6 secs

     total energy              =    -704.90062910 Ry
     Harris-Foulkes estimate   =    -705.27445800 Ry
     estimated scf accuracy    <       3.22551247 Ry

     iteration #  5     ecut=    40.00 Ry     beta= 0.60
     Davidson diagonalization with overlap
     ethr =  2.21E-03,  avg # of iterations =  1.5

     total cpu time spent up to now is     3155.8 secs

     total energy              =    -704.90864168 Ry
     Harris-Foulkes estimate   =    -705.02297044 Ry
     estimated scf accuracy    <       0.82955546 Ry

     iteration #  6     ecut=    40.00 Ry     beta= 0.60
     Davidson diagonalization with overlap
     ethr =  1.09E-03,  avg # of iterations =  2.7

     total cpu time spent up to now is     3192.7 secs

     total energy              =    -704.94456512 Ry
     Harris-Foulkes estimate   =    -704.95163861 Ry
     estimated scf accuracy    <       0.13577241 Ry

     iteration #  7     ecut=    40.00 Ry     beta= 0.60
     Davidson diagonalization with overlap
     ethr =  1.79E-04,  avg # of iterations =  4.7

     total cpu time spent up to now is     3237.0 secs

     total energy              =    -704.93915624 Ry
     Harris-Foulkes estimate   =    -704.95220117 Ry
     estimated scf accuracy    <       0.10799252 Ry

     iteration #  8     ecut=    40.00 Ry     beta= 0.60
     Davidson diagonalization with overlap
     ethr =  1.42E-04,  avg # of iterations =  1.2

     total cpu time spent up to now is     3269.5 secs

     total energy              =    -704.93152844 Ry
     Harris-Foulkes estimate   =    -704.94146618 Ry
     estimated scf accuracy    <       0.04763378 Ry

     iteration #  9     ecut=    40.00 Ry     beta= 0.60
     Davidson diagonalization with overlap
     ethr =  6.27E-05,  avg # of iterations =  5.1

     total cpu time spent up to now is     3319.0 secs

     total energy              =    -704.93768033 Ry
     Harris-Foulkes estimate   =    -704.93797373 Ry
     estimated scf accuracy    <       0.00225506 Ry

     iteration # 10     ecut=    40.00 Ry     beta= 0.60
     Davidson diagonalization with overlap
     ethr =  2.97E-06,  avg # of iterations =  5.2

     total cpu time spent up to now is     3368.1 secs

     total energy              =    -704.93774214 Ry
     Harris-Foulkes estimate   =    -704.93795264 Ry
     estimated scf accuracy    <       0.00113371 Ry

     iteration # 11     ecut=    40.00 Ry     beta= 0.60
     Davidson diagonalization with overlap
     ethr =  1.49E-06,  avg # of iterations =  4.6

     total cpu time spent up to now is     3421.1 secs

     total energy              =    -704.93801367 Ry
     Harris-Foulkes estimate   =    -704.93819431 Ry
     estimated scf accuracy    <       0.00489876 Ry

     iteration # 12     ecut=    40.00 Ry     beta= 0.60
     Davidson diagonalization with overlap
     ethr =  1.49E-06,  avg # of iterations =  1.0

     total cpu time spent up to now is     3453.1 secs

     total energy              =    -704.93770637 Ry
     Harris-Foulkes estimate   =    -704.93804008 Ry
     estimated scf accuracy    <       0.00379466 Ry

     iteration # 13     ecut=    40.00 Ry     beta= 0.60
     Davidson diagonalization with overlap
     ethr =  1.49E-06,  avg # of iterations =  2.7

     total cpu time spent up to now is     3490.4 secs

     total energy              =    -704.93770339 Ry
     Harris-Foulkes estimate   =    -704.93780612 Ry
     estimated scf accuracy    <       0.00139446 Ry

     iteration # 14     ecut=    40.00 Ry     beta= 0.60
     Davidson diagonalization with overlap
     ethr =  1.49E-06,  avg # of iterations =  1.0

     total cpu time spent up to now is     3522.4 secs

     total energy              =    -704.93770788 Ry
     Harris-Foulkes estimate   =    -704.93773242 Ry
     estimated scf accuracy    <       0.00056031 Ry

     iteration # 15     ecut=    40.00 Ry     beta= 0.60
     Davidson diagonalization with overlap
     ethr =  7.37E-07,  avg # of iterations =  1.8

     total cpu time spent up to now is     3555.9 secs

     total energy              =    -704.93770384 Ry
     Harris-Foulkes estimate   =    -704.93772169 Ry
     estimated scf accuracy    <       0.00027498 Ry

     iteration # 16     ecut=    40.00 Ry     beta= 0.60
     Davidson diagonalization with overlap
     ethr =  3.62E-07,  avg # of iterations =  3.5

     total cpu time spent up to now is     3594.4 secs

     total energy              =    -704.93771174 Ry
     Harris-Foulkes estimate   =    -704.93771725 Ry
     estimated scf accuracy    <       0.00006248 Ry

     iteration # 17     ecut=    40.00 Ry     beta= 0.60
     Davidson diagonalization with overlap
     ethr =  8.22E-08,  avg # of iterations =  3.8

     total cpu time spent up to now is     3636.1 secs

     total energy              =    -704.93771893 Ry
     Harris-Foulkes estimate   =    -704.93771926 Ry
     estimated scf accuracy    <       0.00000313 Ry

     iteration # 18     ecut=    40.00 Ry     beta= 0.60
     Davidson diagonalization with overlap
     ethr =  4.12E-09,  avg # of iterations =  4.3

     total cpu time spent up to now is     3681.3 secs

     total energy              =    -704.93771954 Ry
     Harris-Foulkes estimate   =    -704.93771958 Ry
     estimated scf accuracy    <       0.00000031 Ry

     iteration # 19     ecut=    40.00 Ry     beta= 0.60
     Davidson diagonalization with overlap
     ethr =  4.13E-10,  avg # of iterations =  2.5

     total cpu time spent up to now is     3719.9 secs

     total energy              =    -704.93771954 Ry
     Harris-Foulkes estimate   =    -704.93771957 Ry
     estimated scf accuracy    <       0.00000028 Ry

     iteration # 20     ecut=    40.00 Ry     beta= 0.60
     Davidson diagonalization with overlap
     ethr =  3.71E-10,  avg # of iterations =  2.4

     total cpu time spent up to now is     3755.2 secs

     total energy              =    -704.93771954 Ry
     Harris-Foulkes estimate   =    -704.93771957 Ry
     estimated scf accuracy    <       0.00000025 Ry

     iteration # 21     ecut=    40.00 Ry     beta= 0.60
     Davidson diagonalization with overlap
     ethr =  3.35E-10,  avg # of iterations =  1.3

     total cpu time spent up to now is     3787.7 secs

     total energy              =    -704.93771955 Ry
     Harris-Foulkes estimate   =    -704.93771955 Ry
     estimated scf accuracy    <       0.00000001 Ry

     iteration # 22     ecut=    40.00 Ry     beta= 0.60
     Davidson diagonalization with overlap
     ethr =  1.44E-11,  avg # of iterations =  4.5

     total cpu time spent up to now is     3837.1 secs

     total energy              =    -704.93771955 Ry
     Harris-Foulkes estimate   =    -704.93771956 Ry
     estimated scf accuracy    <          4.8E-09 Ry

     iteration # 23     ecut=    40.00 Ry     beta= 0.60
     Davidson diagonalization with overlap
     ethr =  6.33E-12,  avg # of iterations =  1.1

     total cpu time spent up to now is     3869.2 secs

     total energy              =    -704.93771955 Ry
     Harris-Foulkes estimate   =    -704.93771955 Ry
     estimated scf accuracy    <          8.7E-10 Ry

     iteration # 24     ecut=    40.00 Ry     beta= 0.60
     Davidson diagonalization with overlap
     ethr =  1.14E-12,  avg # of iterations =  3.6

     total cpu time spent up to now is     3970.0 secs

     total energy              =    -704.93771956 Ry
     Harris-Foulkes estimate   =    -704.93771956 Ry
     estimated scf accuracy    <          2.1E-10 Ry

     iteration # 25     ecut=    40.00 Ry     beta= 0.60
     Davidson diagonalization with overlap
     ethr =  2.80E-13,  avg # of iterations =  1.5

     total cpu time spent up to now is     4003.2 secs

     End of self-consistent calculation

     Number of k-points >= 100: set verbosity='high' to print the bands.

     the Fermi energy is    16.5698 ev

!    total energy              =    -704.93771955 Ry
     Harris-Foulkes estimate   =    -704.93771955 Ry
     estimated scf accuracy    <          6.6E-11 Ry

     The total energy is the sum of the following terms:

     one-electron contribution =    -149.51291170 Ry
     hartree contribution      =     109.48032225 Ry
     xc contribution           =    -102.77061128 Ry
     ewald contribution        =    -562.13252114 Ry
     smearing contrib. (-TS)   =      -0.00199769 Ry

     convergence has been achieved in  25 iterations

     Forces acting on atoms (cartesian axes, Ry/au):

     atom    1 type  2   force =     0.00258271   -0.00149113    0.01252295
     atom    2 type  1   force =     0.00635725   -0.00367036    0.00687076
     atom    3 type  1   force =    -0.00635815    0.00367088   -0.00687116
     atom    4 type  2   force =    -0.00258264    0.00149109   -0.01252330
     atom    5 type  1   force =    -0.00150131    0.00086678   -0.00319445
     atom    6 type  1   force =     0.00150215   -0.00086726    0.00319520

     Total force =     0.023666     Total SCF correction =     0.000034


     Computing stress (Cartesian axis) and pressure

          total   stress  (Ry/bohr**3)                   (kbar)     P=   15.09
   0.00001168  -0.00003458   0.00001655          1.72     -5.09      2.44
  -0.00003458  -0.00002824  -0.00000956         -5.09     -4.15     -1.41
   0.00001655  -0.00000956   0.00032438          2.44     -1.41     47.72


     number of scf cycles    =   3
     number of bfgs steps    =   2

     enthalpy old            =    -704.9301138762 Ry
     enthalpy new            =    -704.9377195548 Ry

     CASE: enthalpy_new < enthalpy_old

     new trust radius        =       0.0343724312 bohr
     new conv_thr            =            1.0E-10 Ry

     new unit-cell volume =    726.95544 a.u.^3 (   107.72368 Ang^3 )
     density =      7.20425 g/cm^3

CELL_PARAMETERS (alat=  1.88972599)
  -2.906979662   0.005671189   4.902785249
  -1.458401225   2.514682831   4.902785249
  -4.380950943   2.529343396  -4.912366861

ATOMIC_POSITIONS (angstrom)
Ti      -4.369760531   2.522882608   0.015307485
Nb      -5.822599723   3.361679771   2.457467462
Nb      -4.379722304   2.528634041   4.886596314
Ti      -5.832561556   3.367431237   7.328756199
Nb      -8.749439060   5.051491376   4.881986595
Nb      -1.452883835   0.838822937   2.462077799


     NEW-OLD atomic charge density approx. for the potential

     Check: negative/imaginary core charge=   -0.000001    0.000000
     extrapolated charge   75.98877, renormalised to   76.00000

     total cpu time spent up to now is     4016.1 secs

     Self-consistent Calculation

     iteration #  1     ecut=    40.00 Ry     beta= 0.60
     Davidson diagonalization with overlap
     c_bands:  1 eigenvalues not converged
     c_bands:  1 eigenvalues not converged
     c_bands:  1 eigenvalues not converged
     ethr =  1.00E-06,  avg # of iterations =  6.1

     total cpu time spent up to now is     4098.0 secs

     total energy              =    -704.93755117 Ry
     Harris-Foulkes estimate   =    -704.95577607 Ry
     estimated scf accuracy    <       0.00321991 Ry

     iteration #  2     ecut=    40.00 Ry     beta= 0.60
     Davidson diagonalization with overlap
     ethr =  4.24E-06,  avg # of iterations =  5.5

     total cpu time spent up to now is     4166.6 secs

     total energy              =    -704.92676658 Ry
     Harris-Foulkes estimate   =    -704.95365539 Ry
     estimated scf accuracy    <       0.24127262 Ry

     iteration #  3     ecut=    40.00 Ry     beta= 0.60
     Davidson diagonalization with overlap
     ethr =  4.24E-06,  avg # of iterations =  5.7

     total cpu time spent up to now is     4233.0 secs

     total energy              =    -704.93975945 Ry
     Harris-Foulkes estimate   =    -704.93987688 Ry
     estimated scf accuracy    <       0.00030813 Ry

     iteration #  4     ecut=    40.00 Ry     beta= 0.60
     Davidson diagonalization with overlap
     ethr =  4.05E-07,  avg # of iterations =  3.2

     total cpu time spent up to now is     4276.4 secs

     total energy              =    -704.93978929 Ry
     Harris-Foulkes estimate   =    -704.93985157 Ry
     estimated scf accuracy    <       0.00027097 Ry

     iteration #  5     ecut=    40.00 Ry     beta= 0.60
     Davidson diagonalization with overlap
     ethr =  3.57E-07,  avg # of iterations =  2.9

     total cpu time spent up to now is     4316.0 secs

     total energy              =    -704.93982288 Ry
     Harris-Foulkes estimate   =    -704.93983143 Ry
     estimated scf accuracy    <       0.00003943 Ry

     iteration #  6     ecut=    40.00 Ry     beta= 0.60
     Davidson diagonalization with overlap
     ethr =  5.19E-08,  avg # of iterations =  2.3

     total cpu time spent up to now is     4354.7 secs

     total energy              =    -704.93982733 Ry
     Harris-Foulkes estimate   =    -704.93982853 Ry
     estimated scf accuracy    <       0.00000307 Ry

     iteration #  7     ecut=    40.00 Ry     beta= 0.60
     Davidson diagonalization with overlap
     ethr =  4.04E-09,  avg # of iterations =  4.5

     total cpu time spent up to now is     4406.7 secs

     total energy              =    -704.93982563 Ry
     Harris-Foulkes estimate   =    -704.93983122 Ry
     estimated scf accuracy    <       0.00005411 Ry

     iteration #  8     ecut=    40.00 Ry     beta= 0.60
     Davidson diagonalization with overlap
     ethr =  4.04E-09,  avg # of iterations =  4.2

     total cpu time spent up to now is     4456.5 secs

     total energy              =    -704.93982849 Ry
     Harris-Foulkes estimate   =    -704.93982858 Ry
     estimated scf accuracy    <       0.00000046 Ry

     iteration #  9     ecut=    40.00 Ry     beta= 0.60
     Davidson diagonalization with overlap
     ethr =  6.03E-10,  avg # of iterations =  3.4

     total cpu time spent up to now is     4498.8 secs

     total energy              =    -704.93982850 Ry
     Harris-Foulkes estimate   =    -704.93982858 Ry
     estimated scf accuracy    <       0.00000032 Ry

     iteration # 10     ecut=    40.00 Ry     beta= 0.60
     Davidson diagonalization with overlap
     ethr =  4.23E-10,  avg # of iterations =  3.1

     total cpu time spent up to now is     4540.0 secs

     total energy              =    -704.93982854 Ry
     Harris-Foulkes estimate   =    -704.93982856 Ry
     estimated scf accuracy    <       0.00000009 Ry

     iteration # 11     ecut=    40.00 Ry     beta= 0.60
     Davidson diagonalization with overlap
     ethr =  1.16E-10,  avg # of iterations =  2.3

     total cpu time spent up to now is     4576.9 secs

     total energy              =    -704.93982855 Ry
     Harris-Foulkes estimate   =    -704.93982855 Ry
     estimated scf accuracy    <       0.00000001 Ry

     iteration # 12     ecut=    40.00 Ry     beta= 0.60
     Davidson diagonalization with overlap
     ethr =  1.60E-11,  avg # of iterations =  3.3

     total cpu time spent up to now is     4619.8 secs

     total energy              =    -704.93982855 Ry
     Harris-Foulkes estimate   =    -704.93982855 Ry
     estimated scf accuracy    <       0.00000001 Ry

     iteration # 13     ecut=    40.00 Ry     beta= 0.60
     Davidson diagonalization with overlap
     ethr =  1.45E-11,  avg # of iterations =  3.3

     total cpu time spent up to now is     4660.3 secs

     total energy              =    -704.93982855 Ry
     Harris-Foulkes estimate   =    -704.93982855 Ry
     estimated scf accuracy    <       0.00000002 Ry

     iteration # 14     ecut=    40.00 Ry     beta= 0.60
     Davidson diagonalization with overlap
     ethr =  1.45E-11,  avg # of iterations =  1.4

     total cpu time spent up to now is     4693.5 secs

     total energy              =    -704.93982855 Ry
     Harris-Foulkes estimate   =    -704.93982855 Ry
     estimated scf accuracy    <          3.1E-10 Ry

     iteration # 15     ecut=    40.00 Ry     beta= 0.60
     Davidson diagonalization with overlap
     ethr =  4.04E-13,  avg # of iterations =  4.8

     total cpu time spent up to now is     4747.2 secs

     total energy              =    -704.93982855 Ry
     Harris-Foulkes estimate   =    -704.93982855 Ry
     estimated scf accuracy    <          5.9E-10 Ry

     iteration # 16     ecut=    40.00 Ry     beta= 0.60
     Davidson diagonalization with overlap
     ethr =  4.04E-13,  avg # of iterations =  1.0

     total cpu time spent up to now is     4781.5 secs

     total energy              =    -704.93982855 Ry
     Harris-Foulkes estimate   =    -704.93982855 Ry
     estimated scf accuracy    <          2.2E-10 Ry

     iteration # 17     ecut=    40.00 Ry     beta= 0.60
     Davidson diagonalization with overlap
     ethr =  2.96E-13,  avg # of iterations =  2.9

     total cpu time spent up to now is     4819.7 secs

     End of self-consistent calculation

     Number of k-points >= 100: set verbosity='high' to print the bands.

     the Fermi energy is    16.5646 ev

!    total energy              =    -704.93982855 Ry
     Harris-Foulkes estimate   =    -704.93982855 Ry
     estimated scf accuracy    <          2.5E-11 Ry

     The total energy is the sum of the following terms:

     one-electron contribution =    -149.52161805 Ry
     hartree contribution      =     109.49587144 Ry
     xc contribution           =    -102.77348339 Ry
     ewald contribution        =    -562.13869683 Ry
     smearing contrib. (-TS)   =      -0.00190172 Ry

     convergence has been achieved in  17 iterations

     Forces acting on atoms (cartesian axes, Ry/au):

     atom    1 type  2   force =     0.00147922   -0.00085403    0.01150028
     atom    2 type  1   force =     0.00593971   -0.00342929    0.00625787
     atom    3 type  1   force =    -0.00594047    0.00342973   -0.00625810
     atom    4 type  2   force =    -0.00147924    0.00085404   -0.01150033
     atom    5 type  1   force =    -0.00210749    0.00121676   -0.00150401
     atom    6 type  1   force =     0.00210828   -0.00121721    0.00150430

     Total force =     0.021428     Total SCF correction =     0.000023


     Computing stress (Cartesian axis) and pressure

          total   stress  (Ry/bohr**3)                   (kbar)     P=   14.25
   0.00002335  -0.00003743   0.00001873          3.44     -5.51      2.76
  -0.00003743  -0.00001986  -0.00001082         -5.51     -2.92     -1.59
   0.00001873  -0.00001082   0.00028711          2.76     -1.59     42.23


     number of scf cycles    =   4
     number of bfgs steps    =   3

     enthalpy old            =    -704.9377195548 Ry
     enthalpy new            =    -704.9398285509 Ry

     CASE: enthalpy_new < enthalpy_old


     WARNING: bfgs curvature condition failed, Theta= 0.916
     new trust radius        =       0.0512279021 bohr
     new conv_thr            =            1.0E-10 Ry

     new unit-cell volume =    727.46777 a.u.^3 (   107.79960 Ang^3 )
     density =      7.19918 g/cm^3

CELL_PARAMETERS (alat=  1.88972599)
  -2.893473266   0.008508393   4.946803176
  -1.454105118   2.501567348   4.946803176
  -4.374607564   2.525681044  -4.963500626

ATOMIC_POSITIONS (angstrom)
Ti      -4.357794926   2.515974264   0.022397163
Nb      -5.801675203   3.349598995   2.480928608
Nb      -4.371203968   2.523715978   4.921650671
Ti      -5.815083721   3.357340406   7.380182168
Nb      -8.727169140   5.038633832   4.916352702
Nb      -1.445709768   0.834680988   2.486227731


     NEW-OLD atomic charge density approx. for the potential

     Check: negative/imaginary core charge=   -0.000001    0.000000
     extrapolated charge   76.05211, renormalised to   76.00000

     total cpu time spent up to now is     4836.4 secs

     Self-consistent Calculation

     iteration #  1     ecut=    40.00 Ry     beta= 0.60
     Davidson diagonalization with overlap
     c_bands:  1 eigenvalues not converged
     c_bands:  1 eigenvalues not converged
     c_bands:  1 eigenvalues not converged
     c_bands:  1 eigenvalues not converged
     c_bands:  1 eigenvalues not converged
     c_bands:  1 eigenvalues not converged
     c_bands:  1 eigenvalues not converged
     c_bands:  1 eigenvalues not converged
     c_bands:  1 eigenvalues not converged
     c_bands:  1 eigenvalues not converged
     ethr =  1.00E-06,  avg # of iterations =  8.1

     total cpu time spent up to now is     4928.9 secs

     total energy              =    -704.93821798 Ry
     Harris-Foulkes estimate   =    -704.87004199 Ry
     estimated scf accuracy    <       0.00620706 Ry

     iteration #  2     ecut=    40.00 Ry     beta= 0.60
     Davidson diagonalization with overlap
     ethr =  8.17E-06,  avg # of iterations =  5.5

     total cpu time spent up to now is     4996.5 secs

     total energy              =    -704.91864706 Ry
     Harris-Foulkes estimate   =    -704.96631095 Ry
     estimated scf accuracy    <       0.40974770 Ry

     iteration #  3     ecut=    40.00 Ry     beta= 0.60
     Davidson diagonalization with overlap
     ethr =  8.17E-06,  avg # of iterations =  5.7

     total cpu time spent up to now is     5063.0 secs

     total energy              =    -704.94229704 Ry
     Harris-Foulkes estimate   =    -704.94272548 Ry
     estimated scf accuracy    <       0.00198581 Ry

     iteration #  4     ecut=    40.00 Ry     beta= 0.60
     Davidson diagonalization with overlap
     ethr =  2.61E-06,  avg # of iterations =  2.1

     total cpu time spent up to now is     5098.8 secs

     total energy              =    -704.94242125 Ry
     Harris-Foulkes estimate   =    -704.94245790 Ry
     estimated scf accuracy    <       0.00018206 Ry

     iteration #  5     ecut=    40.00 Ry     beta= 0.60
     Davidson diagonalization with overlap
     ethr =  2.40E-07,  avg # of iterations =  4.0

     total cpu time spent up to now is     5149.1 secs

     total energy              =    -704.94245030 Ry
     Harris-Foulkes estimate   =    -704.94250088 Ry
     estimated scf accuracy    <       0.00024304 Ry

     iteration #  6     ecut=    40.00 Ry     beta= 0.60
     Davidson diagonalization with overlap
     ethr =  2.40E-07,  avg # of iterations =  3.5

     total cpu time spent up to now is     5192.0 secs

     total energy              =    -704.94247710 Ry
     Harris-Foulkes estimate   =    -704.94248697 Ry
     estimated scf accuracy    <       0.00006888 Ry

     iteration #  7     ecut=    40.00 Ry     beta= 0.60
     Davidson diagonalization with overlap
     ethr =  9.06E-08,  avg # of iterations =  1.6

     total cpu time spent up to now is     5226.2 secs

     total energy              =    -704.94247812 Ry
     Harris-Foulkes estimate   =    -704.94248230 Ry
     estimated scf accuracy    <       0.00003587 Ry

     iteration #  8     ecut=    40.00 Ry     beta= 0.60
     Davidson diagonalization with overlap
     ethr =  4.72E-08,  avg # of iterations =  2.3

     total cpu time spent up to now is     5261.8 secs

     total energy              =    -704.94247971 Ry
     Harris-Foulkes estimate   =    -704.94248172 Ry
     estimated scf accuracy    <       0.00001535 Ry

     iteration #  9     ecut=    40.00 Ry     beta= 0.60
     Davidson diagonalization with overlap
     ethr =  2.02E-08,  avg # of iterations =  2.7

     total cpu time spent up to now is     5298.1 secs

     total energy              =    -704.94248065 Ry
     Harris-Foulkes estimate   =    -704.94248090 Ry
     estimated scf accuracy    <       0.00000088 Ry

     iteration # 10     ecut=    40.00 Ry     beta= 0.60
     Davidson diagonalization with overlap
     ethr =  1.16E-09,  avg # of iterations =  4.3

     total cpu time spent up to now is     5349.5 secs

     total energy              =    -704.94248086 Ry
     Harris-Foulkes estimate   =    -704.94248133 Ry
     estimated scf accuracy    <       0.00000350 Ry

     iteration # 11     ecut=    40.00 Ry     beta= 0.60
     Davidson diagonalization with overlap
     ethr =  1.16E-09,  avg # of iterations =  3.2

     total cpu time spent up to now is     5392.6 secs

     total energy              =    -704.94248107 Ry
     Harris-Foulkes estimate   =    -704.94248110 Ry
     estimated scf accuracy    <       0.00000019 Ry

     iteration # 12     ecut=    40.00 Ry     beta= 0.60
     Davidson diagonalization with overlap
     ethr =  2.48E-10,  avg # of iterations =  2.6

     total cpu time spent up to now is     5429.7 secs

     total energy              =    -704.94248108 Ry
     Harris-Foulkes estimate   =    -704.94248109 Ry
     estimated scf accuracy    <       0.00000002 Ry

     iteration # 13     ecut=    40.00 Ry     beta= 0.60
     Davidson diagonalization with overlap
     ethr =  2.88E-11,  avg # of iterations =  4.0

     total cpu time spent up to now is     5477.8 secs

     total energy              =    -704.94248108 Ry
     Harris-Foulkes estimate   =    -704.94248109 Ry
     estimated scf accuracy    <       0.00000002 Ry

     iteration # 14     ecut=    40.00 Ry     beta= 0.60
     Davidson diagonalization with overlap
     ethr =  2.88E-11,  avg # of iterations =  2.9

     total cpu time spent up to now is     5516.9 secs

     total energy              =    -704.94248109 Ry
     Harris-Foulkes estimate   =    -704.94248109 Ry
     estimated scf accuracy    <          5.8E-09 Ry

     iteration # 15     ecut=    40.00 Ry     beta= 0.60
     Davidson diagonalization with overlap
     ethr =  7.67E-12,  avg # of iterations =  2.4

     total cpu time spent up to now is     5555.1 secs

     total energy              =    -704.94248109 Ry
     Harris-Foulkes estimate   =    -704.94248109 Ry
     estimated scf accuracy    <          2.7E-09 Ry

     iteration # 16     ecut=    40.00 Ry     beta= 0.60
     Davidson diagonalization with overlap
     ethr =  3.50E-12,  avg # of iterations =  1.0

     total cpu time spent up to now is     5587.7 secs

     total energy              =    -704.94248109 Ry
     Harris-Foulkes estimate   =    -704.94248109 Ry
     estimated scf accuracy    <          3.2E-10 Ry

     iteration # 17     ecut=    40.00 Ry     beta= 0.60
     Davidson diagonalization with overlap
     ethr =  4.16E-13,  avg # of iterations =  3.9

     total cpu time spent up to now is     5633.4 secs

     End of self-consistent calculation

     Number of k-points >= 100: set verbosity='high' to print the bands.

     the Fermi energy is    16.5392 ev

!    total energy              =    -704.94248109 Ry
     Harris-Foulkes estimate   =    -704.94248109 Ry
     estimated scf accuracy    <          5.9E-11 Ry

     The total energy is the sum of the following terms:

     one-electron contribution =    -149.88214730 Ry
     hartree contribution      =     109.63866300 Ry
     xc contribution           =    -102.77393132 Ry
     ewald contribution        =    -561.92320436 Ry
     smearing contrib. (-TS)   =      -0.00186110 Ry

     convergence has been achieved in  17 iterations

     Forces acting on atoms (cartesian axes, Ry/au):

     atom    1 type  2   force =    -0.00031722    0.00018315    0.00950706
     atom    2 type  1   force =     0.00554656   -0.00320231    0.00541318
     atom    3 type  1   force =    -0.00554691    0.00320251   -0.00541338
     atom    4 type  2   force =     0.00031716   -0.00018311   -0.00950697
     atom    5 type  1   force =    -0.00256740    0.00148229    0.00030878
     atom    6 type  1   force =     0.00256781   -0.00148252   -0.00030868

     Total force =     0.018424     Total SCF correction =     0.000033


     Computing stress (Cartesian axis) and pressure

          total   stress  (Ry/bohr**3)                   (kbar)     P=   11.94
   0.00003450  -0.00003917   0.00002206          5.07     -5.76      3.24
  -0.00003917  -0.00001074  -0.00001273         -5.76     -1.58     -1.87
   0.00002206  -0.00001273   0.00021969          3.24     -1.87     32.32


     number of scf cycles    =   5
     number of bfgs steps    =   4

     enthalpy old            =    -704.9398285509 Ry
     enthalpy new            =    -704.9424810875 Ry

     CASE: enthalpy_new < enthalpy_old

     new trust radius        =       0.0761440337 bohr
     new conv_thr            =            1.0E-10 Ry

     new unit-cell volume =    728.98171 a.u.^3 (   108.02394 Ang^3 )
     density =      7.18423 g/cm^3

CELL_PARAMETERS (alat=  1.88972599)
  -2.874386548   0.013237943   5.011635712
  -1.448657670   2.482672991   5.011635712
  -4.371828813   2.524076732  -5.041952029

ATOMIC_POSITIONS (angstrom)
Ti      -4.346312522   2.509344896   0.032139233
Nb      -5.775626305   3.334559657   2.514259970
Nb      -4.362971172   2.518962771   4.971192277
Ti      -5.792283804   3.344176869   7.453313424
Nb      -8.703484046   5.024959238   4.965100994
Nb      -1.435111869   0.828562288   2.520353153


     NEW-OLD atomic charge density approx. for the potential

     Check: negative/imaginary core charge=   -0.000001    0.000000
     extrapolated charge   76.15366, renormalised to   76.00000

     total cpu time spent up to now is     5647.3 secs

     Self-consistent Calculation

     iteration #  1     ecut=    40.00 Ry     beta= 0.60
     Davidson diagonalization with overlap
     c_bands:  1 eigenvalues not converged
     c_bands:  1 eigenvalues not converged
     c_bands:  1 eigenvalues not converged
     c_bands:  1 eigenvalues not converged
     c_bands:  1 eigenvalues not converged
     c_bands:  1 eigenvalues not converged
     ethr =  1.00E-06,  avg # of iterations =  9.7

     total cpu time spent up to now is     5750.2 secs

     total energy              =    -704.93655538 Ry
     Harris-Foulkes estimate   =    -704.72973942 Ry
     estimated scf accuracy    <       0.01262360 Ry

     iteration #  2     ecut=    40.00 Ry     beta= 0.60
     Davidson diagonalization with overlap
     ethr =  1.66E-05,  avg # of iterations =  5.2

     total cpu time spent up to now is     5817.8 secs

     total energy              =    -704.90078530 Ry
     Harris-Foulkes estimate   =    -704.98684027 Ry
     estimated scf accuracy    <       0.70095942 Ry

     iteration #  3     ecut=    40.00 Ry     beta= 0.60
     Davidson diagonalization with overlap
     ethr =  1.66E-05,  avg # of iterations =  5.8

     total cpu time spent up to now is     5883.9 secs

     total energy              =    -704.94461061 Ry
     Harris-Foulkes estimate   =    -704.94648258 Ry
     estimated scf accuracy    <       0.01158359 Ry

     iteration #  4     ecut=    40.00 Ry     beta= 0.60
     Davidson diagonalization with overlap
     ethr =  1.52E-05,  avg # of iterations =  1.0

     total cpu time spent up to now is     5916.0 secs

     total energy              =    -704.94498107 Ry
     Harris-Foulkes estimate   =    -704.94521274 Ry
     estimated scf accuracy    <       0.00180650 Ry

     iteration #  5     ecut=    40.00 Ry     beta= 0.60
     Davidson diagonalization with overlap
     ethr =  2.38E-06,  avg # of iterations =  4.1

     total cpu time spent up to now is     5961.9 secs

     total energy              =    -704.94520018 Ry
     Harris-Foulkes estimate   =    -704.94531039 Ry
     estimated scf accuracy    <       0.00045012 Ry

     iteration #  6     ecut=    40.00 Ry     beta= 0.60
     Davidson diagonalization with overlap
     ethr =  5.92E-07,  avg # of iterations =  4.0

     total cpu time spent up to now is     6005.2 secs

     total energy              =    -704.94525883 Ry
     Harris-Foulkes estimate   =    -704.94528010 Ry
     estimated scf accuracy    <       0.00010140 Ry

     iteration #  7     ecut=    40.00 Ry     beta= 0.60
     Davidson diagonalization with overlap
     ethr =  1.33E-07,  avg # of iterations =  2.8

     total cpu time spent up to now is     6045.6 secs

     total energy              =    -704.94526680 Ry
     Harris-Foulkes estimate   =    -704.94527358 Ry
     estimated scf accuracy    <       0.00002187 Ry

     iteration #  8     ecut=    40.00 Ry     beta= 0.60
     Davidson diagonalization with overlap
     ethr =  2.88E-08,  avg # of iterations =  4.3

     total cpu time spent up to now is     6095.0 secs

     total energy              =    -704.94526092 Ry
     Harris-Foulkes estimate   =    -704.94528331 Ry
     estimated scf accuracy    <       0.00021744 Ry

     iteration #  9     ecut=    40.00 Ry     beta= 0.60
     Davidson diagonalization with overlap
     ethr =  2.88E-08,  avg # of iterations =  4.0

     total cpu time spent up to now is     6141.5 secs

     total energy              =    -704.94527201 Ry
     Harris-Foulkes estimate   =    -704.94527253 Ry
     estimated scf accuracy    <       0.00000232 Ry

     iteration # 10     ecut=    40.00 Ry     beta= 0.60
     Davidson diagonalization with overlap
     ethr =  3.05E-09,  avg # of iterations =  3.9

     total cpu time spent up to now is     6189.0 secs

     total energy              =    -704.94527161 Ry
     Harris-Foulkes estimate   =    -704.94527319 Ry
     estimated scf accuracy    <       0.00001108 Ry

     iteration # 11     ecut=    40.00 Ry     beta= 0.60
     Davidson diagonalization with overlap
     ethr =  3.05E-09,  avg # of iterations =  3.4

     total cpu time spent up to now is     6231.8 secs

     total energy              =    -704.94527236 Ry
     Harris-Foulkes estimate   =    -704.94527240 Ry
     estimated scf accuracy    <       0.00000025 Ry

     iteration # 12     ecut=    40.00 Ry     beta= 0.60
     Davidson diagonalization with overlap
     ethr =  3.33E-10,  avg # of iterations =  3.8

     total cpu time spent up to now is     6277.8 secs

     total energy              =    -704.94527236 Ry
     Harris-Foulkes estimate   =    -704.94527242 Ry
     estimated scf accuracy    <       0.00000030 Ry

     iteration # 13     ecut=    40.00 Ry     beta= 0.60
     Davidson diagonalization with overlap
     ethr =  3.33E-10,  avg # of iterations =  2.8

     total cpu time spent up to now is     6316.7 secs

     total energy              =    -704.94527239 Ry
     Harris-Foulkes estimate   =    -704.94527240 Ry
     estimated scf accuracy    <       0.00000004 Ry

     iteration # 14     ecut=    40.00 Ry     beta= 0.60
     Davidson diagonalization with overlap
     ethr =  5.39E-11,  avg # of iterations =  3.2

     total cpu time spent up to now is     6359.3 secs

     total energy              =    -704.94527239 Ry
     Harris-Foulkes estimate   =    -704.94527240 Ry
     estimated scf accuracy    <       0.00000005 Ry

     iteration # 15     ecut=    40.00 Ry     beta= 0.60
     Davidson diagonalization with overlap
     ethr =  5.39E-11,  avg # of iterations =  1.4

     total cpu time spent up to now is     6392.8 secs

     total energy              =    -704.94527240 Ry
     Harris-Foulkes estimate   =    -704.94527240 Ry
     estimated scf accuracy    <          8.2E-10 Ry

     iteration # 16     ecut=    40.00 Ry     beta= 0.60
     Davidson diagonalization with overlap
     ethr =  1.07E-12,  avg # of iterations =  4.8

     total cpu time spent up to now is     6446.9 secs

     total energy              =    -704.94527240 Ry
     Harris-Foulkes estimate   =    -704.94527240 Ry
     estimated scf accuracy    <          2.6E-09 Ry

     iteration # 17     ecut=    40.00 Ry     beta= 0.60
     Davidson diagonalization with overlap
[...]

     Dense  grid:    98501 G-vectors     FFT dimensions: (  72,  72,  90)

     Smooth grid:    24949 G-vectors     FFT dimensions: (  45,  45,  60)

     Estimated max dynamical RAM per process >     211.75 MB

     Estimated total dynamical RAM >       1.24 GB

     Check: negative/imaginary core charge=   -0.000001    0.000000

     Initial potential from superposition of free atoms

     starting charge   73.98898, renormalised to   76.00000
     Starting wfcs are   72 randomized atomic wfcs

     total cpu time spent up to now is    40978.0 secs

     Self-consistent Calculation

     iteration #  1     ecut=    40.00 Ry     beta= 0.60
     Davidson diagonalization with overlap
     c_bands:  1 eigenvalues not converged
     c_bands:  1 eigenvalues not converged
     c_bands:  1 eigenvalues not converged
     c_bands:  1 eigenvalues not converged
     c_bands:  1 eigenvalues not converged
     c_bands:  1 eigenvalues not converged
     c_bands:  1 eigenvalues not converged
     c_bands:  1 eigenvalues not converged
     c_bands:  1 eigenvalues not converged
     c_bands:  2 eigenvalues not converged
     c_bands:  1 eigenvalues not converged
     c_bands:  1 eigenvalues not converged
     c_bands:  1 eigenvalues not converged
     c_bands:  1 eigenvalues not converged
     c_bands:  1 eigenvalues not converged
     c_bands:  1 eigenvalues not converged
     c_bands:  1 eigenvalues not converged
     c_bands:  1 eigenvalues not converged
     c_bands:  1 eigenvalues not converged
     c_bands:  1 eigenvalues not converged
     c_bands:  1 eigenvalues not converged
     c_bands:  1 eigenvalues not converged
     c_bands:  1 eigenvalues not converged
     c_bands:  1 eigenvalues not converged
     c_bands:  1 eigenvalues not converged
     c_bands:  1 eigenvalues not converged
     ethr =  1.00E-06,  avg # of iterations = 13.2

     total cpu time spent up to now is    41104.7 secs

     total energy              =    -650.72888535 Ry
     Harris-Foulkes estimate   =    -710.12733031 Ry
     estimated scf accuracy    <      73.49856440 Ry

     iteration #  2     ecut=    40.00 Ry     beta= 0.60
     Davidson diagonalization with overlap
     ethr =  1.00E-02,  avg # of iterations =  8.7

     total cpu time spent up to now is    41195.3 secs

     total energy              =    -656.02593770 Ry
     Harris-Foulkes estimate   =    -818.47546878 Ry
     estimated scf accuracy    <     598.59668924 Ry

     iteration #  3     ecut=    40.00 Ry     beta= 0.60
     Davidson diagonalization with overlap
     ethr =  1.00E-02,  avg # of iterations =  6.5

     total cpu time spent up to now is    41270.1 secs

     total energy              =    -704.14303006 Ry
     Harris-Foulkes estimate   =    -720.35892277 Ry
     estimated scf accuracy    <      79.02692550 Ry

     iteration #  4     ecut=    40.00 Ry     beta= 0.60
     Davidson diagonalization with overlap
     ethr =  1.00E-02,  avg # of iterations =  3.8

     total cpu time spent up to now is    41313.9 secs

     total energy              =    -707.48492312 Ry
     Harris-Foulkes estimate   =    -710.17354152 Ry
     estimated scf accuracy    <      28.46397540 Ry

     iteration #  5     ecut=    40.00 Ry     beta= 0.60
     Davidson diagonalization with overlap
     ethr =  1.00E-02,  avg # of iterations =  1.2

     total cpu time spent up to now is    41345.6 secs

     total energy              =    -707.15867394 Ry
     Harris-Foulkes estimate   =    -707.81532714 Ry
     estimated scf accuracy    <      15.97257930 Ry

     iteration #  6     ecut=    40.00 Ry     beta= 0.60
     Davidson diagonalization with overlap
     ethr =  1.00E-02,  avg # of iterations =  1.0

     total cpu time spent up to now is    41376.7 secs

     total energy              =    -705.59573836 Ry
     Harris-Foulkes estimate   =    -707.20272348 Ry
     estimated scf accuracy    <      13.85609201 Ry

     iteration #  7     ecut=    40.00 Ry     beta= 0.60
     Davidson diagonalization with overlap
     ethr =  1.00E-02,  avg # of iterations =  1.2

     total cpu time spent up to now is    41408.5 secs

     total energy              =    -705.24923032 Ry
     Harris-Foulkes estimate   =    -705.73428947 Ry
     estimated scf accuracy    <       8.43391146 Ry

     iteration #  8     ecut=    40.00 Ry     beta= 0.60
     Davidson diagonalization with overlap
     ethr =  1.00E-02,  avg # of iterations =  1.2

     total cpu time spent up to now is    41440.2 secs

     total energy              =    -704.74588526 Ry
     Harris-Foulkes estimate   =    -705.33791849 Ry
     estimated scf accuracy    <       6.21491887 Ry

     iteration #  9     ecut=    40.00 Ry     beta= 0.60
     Davidson diagonalization with overlap
     ethr =  8.18E-03,  avg # of iterations =  2.5

     total cpu time spent up to now is    41474.9 secs

     total energy              =    -704.79044896 Ry
     Harris-Foulkes estimate   =    -704.91055675 Ry
     estimated scf accuracy    <       2.68587444 Ry

     iteration # 10     ecut=    40.00 Ry     beta= 0.60
     Davidson diagonalization with overlap
     ethr =  3.53E-03,  avg # of iterations =  4.2

     total cpu time spent up to now is    41515.8 secs

     total energy              =    -704.77475928 Ry
     Harris-Foulkes estimate   =    -704.96868366 Ry
     estimated scf accuracy    <       0.57554891 Ry

     iteration # 11     ecut=    40.00 Ry     beta= 0.60
     Davidson diagonalization with overlap
     ethr =  7.57E-04,  avg # of iterations =  5.1

     total cpu time spent up to now is    41575.7 secs

     total energy              =    -704.97290555 Ry
     Harris-Foulkes estimate   =    -705.31033298 Ry
     estimated scf accuracy    <       6.43218343 Ry

     iteration # 12     ecut=    40.00 Ry     beta= 0.60
     Davidson diagonalization with overlap
     ethr =  7.57E-04,  avg # of iterations =  2.4

     total cpu time spent up to now is    41610.0 secs

     total energy              =    -705.10486964 Ry
     Harris-Foulkes estimate   =    -705.07282728 Ry
     estimated scf accuracy    <       2.42732015 Ry

     iteration # 13     ecut=    40.00 Ry     beta= 0.60
     Davidson diagonalization with overlap
     ethr =  7.57E-04,  avg # of iterations =  1.1

     total cpu time spent up to now is    41641.5 secs

     total energy              =    -705.02173270 Ry
     Harris-Foulkes estimate   =    -705.13327704 Ry
     estimated scf accuracy    <       2.99842305 Ry

     iteration # 14     ecut=    40.00 Ry     beta= 0.60
     Davidson diagonalization with overlap
     ethr =  7.57E-04,  avg # of iterations =  1.1

     total cpu time spent up to now is    41672.9 secs

     total energy              =    -704.57212656 Ry
     Harris-Foulkes estimate   =    -705.04319162 Ry
     estimated scf accuracy    <       1.48266648 Ry

     iteration # 15     ecut=    40.00 Ry     beta= 0.60
     Davidson diagonalization with overlap
     ethr =  7.57E-04,  avg # of iterations =  5.8

     total cpu time spent up to now is    41732.0 secs

     total energy              =    -704.64329243 Ry
     Harris-Foulkes estimate   =    -705.34755661 Ry
     estimated scf accuracy    <       3.33590730 Ry

     iteration # 16     ecut=    40.00 Ry     beta= 0.60
     Davidson diagonalization with overlap
     ethr =  7.57E-04,  avg # of iterations =  4.5

     total cpu time spent up to now is    41785.4 secs

     total energy              =    -704.92423209 Ry
     Harris-Foulkes estimate   =    -704.99160002 Ry
     estimated scf accuracy    <       0.26983916 Ry

     iteration # 17     ecut=    40.00 Ry     beta= 0.60
     Davidson diagonalization with overlap
     ethr =  3.55E-04,  avg # of iterations =  4.1

     total cpu time spent up to now is    41826.3 secs

     total energy              =    -704.97162098 Ry
     Harris-Foulkes estimate   =    -704.99656771 Ry
     estimated scf accuracy    <       0.30114057 Ry

     iteration # 18     ecut=    40.00 Ry     beta= 0.60
     Davidson diagonalization with overlap
     ethr =  3.55E-04,  avg # of iterations =  1.0

     total cpu time spent up to now is    41857.6 secs

     total energy              =    -704.97033755 Ry
     Harris-Foulkes estimate   =    -704.97729384 Ry
     estimated scf accuracy    <       0.10735915 Ry

     iteration # 19     ecut=    40.00 Ry     beta= 0.60
     Davidson diagonalization with overlap
     ethr =  1.41E-04,  avg # of iterations =  2.3

     total cpu time spent up to now is    41891.7 secs

     total energy              =    -704.97107755 Ry
     Harris-Foulkes estimate   =    -704.97371617 Ry
     estimated scf accuracy    <       0.03321810 Ry

     iteration # 20     ecut=    40.00 Ry     beta= 0.60
     Davidson diagonalization with overlap
     c_bands:  1 eigenvalues not converged
     ethr =  4.37E-05,  avg # of iterations =  4.3

     total cpu time spent up to now is    41931.6 secs

     total energy              =    -704.97179340 Ry
     Harris-Foulkes estimate   =    -704.97283602 Ry
     estimated scf accuracy    <       0.00650018 Ry

     iteration # 21     ecut=    40.00 Ry     beta= 0.60
     Davidson diagonalization with overlap
     c_bands:  2 eigenvalues not converged
     ethr =  8.55E-06,  avg # of iterations =  5.4

     total cpu time spent up to now is    41979.6 secs

     total energy              =    -704.97266357 Ry
     Harris-Foulkes estimate   =    -704.97274150 Ry
     estimated scf accuracy    <       0.00044498 Ry

     iteration # 22     ecut=    40.00 Ry     beta= 0.60
     Davidson diagonalization with overlap
     ethr =  5.86E-07,  avg # of iterations =  3.8

     total cpu time spent up to now is    42019.8 secs

     total energy              =    -704.97272261 Ry
     Harris-Foulkes estimate   =    -704.97273456 Ry
     estimated scf accuracy    <       0.00012635 Ry

     iteration # 23     ecut=    40.00 Ry     beta= 0.60
     Davidson diagonalization with overlap
     ethr =  1.66E-07,  avg # of iterations =  3.5

     total cpu time spent up to now is    42061.3 secs

     total energy              =    -704.97270240 Ry
     Harris-Foulkes estimate   =    -704.97275461 Ry
     estimated scf accuracy    <       0.00049303 Ry

     iteration # 24     ecut=    40.00 Ry     beta= 0.60
     Davidson diagonalization with overlap
     ethr =  1.66E-07,  avg # of iterations =  3.1

     total cpu time spent up to now is    42097.7 secs

     total energy              =    -704.97271403 Ry
     Harris-Foulkes estimate   =    -704.97272275 Ry
     estimated scf accuracy    <       0.00007221 Ry

     iteration # 25     ecut=    40.00 Ry     beta= 0.60
     Davidson diagonalization with overlap
     ethr =  9.50E-08,  avg # of iterations =  2.8

     total cpu time spent up to now is    42133.9 secs

     total energy              =    -704.97272016 Ry
     Harris-Foulkes estimate   =    -704.97272151 Ry
     estimated scf accuracy    <       0.00000796 Ry

     iteration # 26     ecut=    40.00 Ry     beta= 0.60
     Davidson diagonalization with overlap
     ethr =  1.05E-08,  avg # of iterations =  3.6

     total cpu time spent up to now is    42174.6 secs

     total energy              =    -704.97272131 Ry
     Harris-Foulkes estimate   =    -704.97272165 Ry
     estimated scf accuracy    <       0.00000193 Ry

     iteration # 27     ecut=    40.00 Ry     beta= 0.60
     Davidson diagonalization with overlap
     ethr =  2.54E-09,  avg # of iterations =  2.3

     total cpu time spent up to now is    42210.7 secs

     total energy              =    -704.97272145 Ry
     Harris-Foulkes estimate   =    -704.97272159 Ry
     estimated scf accuracy    <       0.00000088 Ry

     iteration # 28     ecut=    40.00 Ry     beta= 0.60
     Davidson diagonalization with overlap
     ethr =  1.16E-09,  avg # of iterations =  1.8

     total cpu time spent up to now is    42243.7 secs

     total energy              =    -704.97272150 Ry
     Harris-Foulkes estimate   =    -704.97272153 Ry
     estimated scf accuracy    <       0.00000032 Ry

     iteration # 29     ecut=    40.00 Ry     beta= 0.60
     Davidson diagonalization with overlap
     ethr =  4.21E-10,  avg # of iterations =  1.9

     total cpu time spent up to now is    42276.6 secs

     total energy              =    -704.97272151 Ry
     Harris-Foulkes estimate   =    -704.97272151 Ry
     estimated scf accuracy    <       0.00000005 Ry

     iteration # 30     ecut=    40.00 Ry     beta= 0.60
     Davidson diagonalization with overlap
     ethr =  6.15E-11,  avg # of iterations =  4.0

     total cpu time spent up to now is    42321.0 secs

     total energy              =    -704.97272151 Ry
     Harris-Foulkes estimate   =    -704.97272152 Ry
     estimated scf accuracy    <          8.7E-09 Ry

     iteration # 31     ecut=    40.00 Ry     beta= 0.60
     Davidson diagonalization with overlap
     ethr =  1.15E-11,  avg # of iterations =  1.8

     total cpu time spent up to now is    42354.1 secs

     total energy              =    -704.97272151 Ry
     Harris-Foulkes estimate   =    -704.97272152 Ry
     estimated scf accuracy    <          2.6E-09 Ry

     iteration # 32     ecut=    40.00 Ry     beta= 0.60
     Davidson diagonalization with overlap
     ethr =  3.38E-12,  avg # of iterations =  2.9

     total cpu time spent up to now is    42392.0 secs

     total energy              =    -704.97272152 Ry
     Harris-Foulkes estimate   =    -704.97272152 Ry
     estimated scf accuracy    <          1.4E-10 Ry

     iteration # 33     ecut=    40.00 Ry     beta= 0.60
     Davidson diagonalization with overlap
     ethr =  1.79E-13,  avg # of iterations =  4.2

     total cpu time spent up to now is    42440.0 secs

     total energy              =    -704.97272151 Ry
     Harris-Foulkes estimate   =    -704.97272152 Ry
     estimated scf accuracy    <          3.8E-10 Ry

     iteration # 34     ecut=    40.00 Ry     beta= 0.60
     Davidson diagonalization with overlap
     ethr =  1.79E-13,  avg # of iterations =  3.3

     total cpu time spent up to now is    42476.8 secs

     total energy              =    -704.97272152 Ry
     Harris-Foulkes estimate   =    -704.97272152 Ry
     estimated scf accuracy    <          3.3E-11 Ry

     iteration # 35     ecut=    40.00 Ry     beta= 0.60
     Davidson diagonalization with overlap
     ethr =  1.00E-13,  avg # of iterations =  1.9

     total cpu time spent up to now is    42510.0 secs

     total energy              =    -704.97272152 Ry
     Harris-Foulkes estimate   =    -704.97272152 Ry
     estimated scf accuracy    <          4.2E-12 Ry

     iteration # 36     ecut=    40.00 Ry     beta= 0.60
     Davidson diagonalization with overlap
     ethr =  1.00E-13,  avg # of iterations =  1.0

     total cpu time spent up to now is    42541.0 secs

     total energy              =    -704.97272151 Ry
     Harris-Foulkes estimate   =    -704.97272151 Ry
     estimated scf accuracy    <          1.9E-12 Ry

     iteration # 37     ecut=    40.00 Ry     beta= 0.60
     Davidson diagonalization with overlap
     ethr =  1.00E-13,  avg # of iterations =  1.0

     total cpu time spent up to now is    42572.0 secs

     total energy              =    -704.97272152 Ry
     Harris-Foulkes estimate   =    -704.97272152 Ry
     estimated scf accuracy    <          1.4E-12 Ry

     iteration # 38     ecut=    40.00 Ry     beta= 0.60
     Davidson diagonalization with overlap
     ethr =  1.00E-13,  avg # of iterations =  1.0

     total cpu time spent up to now is    42603.0 secs

     End of self-consistent calculation

     Number of k-points >= 100: set verbosity='high' to print the bands.

     the Fermi energy is    16.3765 ev

!    total energy              =    -704.97272152 Ry
     Harris-Foulkes estimate   =    -704.97272152 Ry
     estimated scf accuracy    <          4.7E-14 Ry

     The total energy is the sum of the following terms:

     one-electron contribution =    -151.94339472 Ry
     hartree contribution      =     110.42863355 Ry
     xc contribution           =    -102.78177169 Ry
     ewald contribution        =    -560.67679061 Ry
     smearing contrib. (-TS)   =       0.00060195 Ry

     convergence has been achieved in  38 iterations

     Forces acting on atoms (cartesian axes, Ry/au):

     atom    1 type  2   force =    -0.00005056    0.00002919    0.00000189
     atom    2 type  1   force =     0.00003032   -0.00001751   -0.00003753
     atom    3 type  1   force =    -0.00003046    0.00001759    0.00003769
     atom    4 type  2   force =     0.00005032   -0.00002905   -0.00000125
     atom    5 type  1   force =     0.00000529   -0.00000305   -0.00001339
     atom    6 type  1   force =    -0.00000492    0.00000284    0.00001259

     Total force =     0.000112     Total SCF correction =     0.000001


     Computing stress (Cartesian axis) and pressure

          total   stress  (Ry/bohr**3)                   (kbar)     P=   -1.18
  -0.00000234  -0.00000956  -0.00000017         -0.34     -1.41     -0.03
  -0.00000956  -0.00001337   0.00000010         -1.41     -1.97      0.01
  -0.00000017   0.00000010  -0.00000844         -0.03      0.01     -1.24

 
     init_run     :     38.94s CPU     39.83s WALL (       2 calls)
     electrons    :  41037.79s CPU  41930.43s WALL (      50 calls)
     update_pot   :     44.84s CPU     46.09s WALL (      48 calls)
     forces       :    162.83s CPU    166.27s WALL (      50 calls)
     stress       :    405.26s CPU    414.77s WALL (      50 calls)

     Called by init_run:
     wfcinit      :     36.68s CPU     37.44s WALL (       2 calls)
     potinit      :      0.58s CPU      0.59s WALL (       2 calls)
     hinit0       :      0.97s CPU      1.00s WALL (       2 calls)

     Called by electrons:
     c_bands      :  35263.36s CPU  35937.34s WALL (     949 calls)
     sum_band     :   5610.47s CPU   5759.83s WALL (     949 calls)
     v_of_rho     :     36.85s CPU     37.13s WALL (     989 calls)
     newd         :    128.61s CPU    183.53s WALL (     989 calls)
     mix_rho      :      3.88s CPU      3.90s WALL (     949 calls)

     Called by c_bands:
     init_us_2    :    323.47s CPU    326.72s WALL (  796000 calls)
     cegterg      :  33162.45s CPU  33673.88s WALL (  377702 calls)

     Called by sum_band:
     sum_band:bec :     14.94s CPU     15.62s WALL (  377702 calls)
     addusdens    :    148.27s CPU    197.42s WALL (     949 calls)

     Called by *egterg:
     h_psi        :  22898.44s CPU  23370.96s WALL ( 1598941 calls)
     s_psi        :    751.14s CPU    750.70s WALL ( 1598941 calls)
     g_psi        :    130.14s CPU    130.38s WALL ( 1220443 calls)
     cdiaghg      :   6427.13s CPU   6437.92s WALL ( 1575061 calls)

     Called by h_psi:
     h_psi:pot    :  22843.72s CPU  23313.73s WALL ( 1598941 calls)
     h_psi:calbec :    905.74s CPU    914.21s WALL ( 1598941 calls)
     vloc_psi     :  21181.98s CPU  21634.85s WALL ( 1598941 calls)
     add_vuspsi   :    750.00s CPU    755.88s WALL ( 1598941 calls)

     General routines
     calbec       :   1319.48s CPU   1329.68s WALL ( 2076143 calls)
     fft          :     20.83s CPU     21.22s WALL (   14115 calls)
     ffts         :      0.74s CPU      0.71s WALL (    1938 calls)
     fftw         :  23390.64s CPU  23830.42s WALL (******** calls)
     interpolate  :      1.86s CPU      1.88s WALL (     989 calls)
 
     Parallel routines
     fft_scatt_xy :   4457.49s CPU   4546.12s WALL (******** calls)
     fft_scatt_yz :   4395.74s CPU   4388.09s WALL (******** calls)
 
     PWSCF        :    11h34m CPU       34h11m WALL

      50h
 
   This run was terminated on:   3:47:47  22Feb2020            

=------------------------------------------------------------------------------=
   JOB DONE.
=------------------------------------------------------------------------------=
