
     Program PWSCF v.6.3MaX starts on 11Feb2020 at 10:37:15 

     This program is part of the open-source Quantum ESPRESSO suite
     for quantum simulation of materials; please cite
         "P. Giannozzi et al., J. Phys.:Condens. Matter 21 395502 (2009);
         "P. Giannozzi et al., J. Phys.:Condens. Matter 29 465901 (2017);
          URL http://www.quantum-espresso.org", 
     in publications or presentations arising from this work. More details at
     http://www.quantum-espresso.org/quote

     Parallel version (MPI), running on     4 processors

     MPI processes distributed on     1 nodes
     R & G space division:  proc/nbgrp/npool/nimage =       4
     Waiting for input...
     Reading input from standard input

     Current dimensions of program PWSCF are:
     Max number of different atomic species (ntypx) = 10
     Max number of k-points (npk) =  40000
     Max angular momentum in pseudopotentials (lmaxx) =  3
     Message from routine iosys:
     minimal I/O required, wf_collect reset to FALSE

     Subspace diagonalization in iterative solution of the eigenvalue problem:
     a serial algorithm will be used

 
     Parallelization info
     --------------------
     sticks:   dense  smooth     PW     G-vecs:    dense   smooth      PW
     Min         681     274     78                27327     6928    1090
     Max         682     275     79                27332     6929    1095
     Sum        2725    1099    313               109319    27715    4365
 


     bravais-lattice index     =            0
     lattice parameter (alat)  =       1.8897  a.u.
     unit-cell volume          =     808.3427 (a.u.)^3
     number of atoms/cell      =            6
     number of atomic types    =            2
     number of electrons       =        76.00
     number of Kohn-Sham states=           46
     kinetic-energy cutoff     =      40.0000  Ry
     charge density cutoff     =     400.0000  Ry
     convergence threshold     =      1.0E-10
     mixing beta               =       0.6000
     number of iterations used =            8  plain     mixing
     Exchange-correlation      = SLA PW PBE PBE ( 1  4  3  4 0 0)
     nstep                     =           50


     celldm(1)=   1.889726  celldm(2)=   0.000000  celldm(3)=   0.000000
     celldm(4)=   0.000000  celldm(5)=   0.000000  celldm(6)=   0.000000

     crystal axes: (cart. coord. in units of alat)
               a(1) = (   4.567506  -2.637051   0.000000 )  
               a(2) = (  -4.567506  -2.637051   0.000000 )  
               a(3) = (   0.000000   0.000000  -4.972461 )  

     reciprocal axes: (cart. coord. in units 2 pi/alat)
               b(1) = (  0.109469 -0.189606  0.000000 )  
               b(2) = ( -0.109469 -0.189606  0.000000 )  
               b(3) = (  0.000000  0.000000 -0.201108 )  


     PseudoPot. # 1 for Nb read from file:
     ./Nb.pbe-nsp-van.UPF
     MD5 check sum: 0a22fc7fb0ba19a08ca5db297a5d2854
     Pseudo is Ultrasoft + core correction, Zval = 13.0
     Generated by new atomic code, or converted to UPF format
     Using radial grid of  887 points,  6 beta functions with: 
                l(1) =   0
                l(2) =   0
                l(3) =   1
                l(4) =   1
                l(5) =   2
                l(6) =   2
     Q(r) pseudized with  6 coefficients,  rinner =    1.000   1.000   1.000
                                                       1.000   1.000

     PseudoPot. # 2 for Ti read from file:
     ./Ti.pbe-sp-van_ak.UPF
     MD5 check sum: f98fea3e8887528921fefa5636a534ca
     Pseudo is Ultrasoft, Zval = 12.0
     Generated by new atomic code, or converted to UPF format
     Using radial grid of  851 points,  6 beta functions with: 
                l(1) =   0
                l(2) =   0
                l(3) =   1
                l(4) =   1
                l(5) =   2
                l(6) =   2
     Q(r) pseudized with  8 coefficients,  rinner =    1.000   1.000   1.000
                                                       1.000   1.000

     atomic species   valence    mass     pseudopotential
        Nb            13.00    92.90638     Nb( 1.00)
        Ti            12.00    47.86700     Ti( 1.00)

      4 Sym. Ops. (no inversion) found
          (note:  4 additional sym.ops. were found but ignored
           their fractional translations are incommensurate with FFT grid)


   Cartesian axes

     site n.     atom                  positions (alat units)
         1           Ti  tau(   1) = (   0.0000000  -5.2741024  -4.9724614  )
         2           Ti  tau(   2) = (   0.0000015  -1.7580350  -2.4862307  )
         3           Nb  tau(   3) = (  -1.5225021  -2.6370512  -4.9724614  )
         4           Nb  tau(   4) = (  -1.5225006  -4.3950862  -2.4862307  )
         5           Nb  tau(   5) = (   1.5225021  -2.6370512  -4.9724614  )
         6           Nb  tau(   6) = (   1.5225036  -4.3950862  -2.4862307  )

     number of k points=   252  Marzari-Vanderbilt smearing, width (Ry)=  0.0200

     Number of k-points >= 100: set verbosity='high' to print them.

     Dense  grid:   109319 G-vectors     FFT dimensions: (  64,  64,  60)

     Smooth grid:    27715 G-vectors     FFT dimensions: (  45,  45,  40)

     Estimated max dynamical RAM per process >     257.34 MB

     Estimated total dynamical RAM >       1.01 GB

     Check: negative/imaginary core charge=   -0.000001    0.000000

     Initial potential from superposition of free atoms

     starting charge   73.98898, renormalised to   76.00000
     Starting wfcs are   72 randomized atomic wfcs

     total cpu time spent up to now is       18.0 secs

     Self-consistent Calculation

     iteration #  1     ecut=    40.00 Ry     beta= 0.60
     Davidson diagonalization with overlap
     ethr =  1.00E-02,  avg # of iterations =  2.5

     total cpu time spent up to now is       53.6 secs

     total energy              =    -680.08029813 Ry
     Harris-Foulkes estimate   =    -707.62649583 Ry
     estimated scf accuracy    <      34.68634332 Ry

     iteration #  2     ecut=    40.00 Ry     beta= 0.60
     Davidson diagonalization with overlap
     ethr =  1.00E-02,  avg # of iterations =  6.5

     total cpu time spent up to now is      122.1 secs

     total energy              =    -681.30441651 Ry
     Harris-Foulkes estimate   =    -741.15373132 Ry
     estimated scf accuracy    <     193.87687922 Ry

     iteration #  3     ecut=    40.00 Ry     beta= 0.60
     Davidson diagonalization with overlap
     ethr =  1.00E-02,  avg # of iterations =  4.4

     total cpu time spent up to now is      173.0 secs

     total energy              =    -706.69495349 Ry
     Harris-Foulkes estimate   =    -707.46321765 Ry
     estimated scf accuracy    <       9.87225273 Ry

     iteration #  4     ecut=    40.00 Ry     beta= 0.60
     Davidson diagonalization with overlap
     ethr =  1.00E-02,  avg # of iterations =  1.0

     total cpu time spent up to now is      200.1 secs

     total energy              =    -705.32045870 Ry
     Harris-Foulkes estimate   =    -706.72934408 Ry
     estimated scf accuracy    <       8.15429471 Ry

     iteration #  5     ecut=    40.00 Ry     beta= 0.60
     Davidson diagonalization with overlap
     ethr =  1.00E-02,  avg # of iterations =  1.1

     total cpu time spent up to now is      227.4 secs

     total energy              =    -705.56666695 Ry
     Harris-Foulkes estimate   =    -705.44016924 Ry
     estimated scf accuracy    <       4.41304810 Ry

     iteration #  6     ecut=    40.00 Ry     beta= 0.60
     Davidson diagonalization with overlap
     ethr =  5.81E-03,  avg # of iterations =  1.0

     total cpu time spent up to now is      254.4 secs

     total energy              =    -704.70176938 Ry
     Harris-Foulkes estimate   =    -705.59154111 Ry
     estimated scf accuracy    <       4.63976001 Ry

     iteration #  7     ecut=    40.00 Ry     beta= 0.60
     Davidson diagonalization with overlap
     ethr =  5.81E-03,  avg # of iterations =  3.1

     total cpu time spent up to now is      286.9 secs

     total energy              =    -704.84722172 Ry
     Harris-Foulkes estimate   =    -704.89510499 Ry
     estimated scf accuracy    <       1.23274098 Ry

     iteration #  8     ecut=    40.00 Ry     beta= 0.60
     Davidson diagonalization with overlap
     ethr =  1.62E-03,  avg # of iterations =  5.0

     total cpu time spent up to now is      329.9 secs

     total energy              =    -704.90529312 Ry
     Harris-Foulkes estimate   =    -704.97503230 Ry
     estimated scf accuracy    <       0.34356151 Ry

     iteration #  9     ecut=    40.00 Ry     beta= 0.60
     Davidson diagonalization with overlap
     ethr =  4.52E-04,  avg # of iterations =  4.6

     total cpu time spent up to now is      369.6 secs

     total energy              =    -704.93566182 Ry
     Harris-Foulkes estimate   =    -704.94342296 Ry
     estimated scf accuracy    <       0.18748194 Ry

     iteration # 10     ecut=    40.00 Ry     beta= 0.60
     Davidson diagonalization with overlap
     ethr =  2.47E-04,  avg # of iterations =  5.1

     total cpu time spent up to now is      424.7 secs

     total energy              =    -705.06613591 Ry
     Harris-Foulkes estimate   =    -705.09375363 Ry
     estimated scf accuracy    <       3.49686852 Ry

     iteration # 11     ecut=    40.00 Ry     beta= 0.60
     Davidson diagonalization with overlap
     ethr =  2.47E-04,  avg # of iterations =  1.0

     total cpu time spent up to now is      451.7 secs

     total energy              =    -704.96018936 Ry
     Harris-Foulkes estimate   =    -705.07518740 Ry
     estimated scf accuracy    <       3.09933627 Ry

     iteration # 12     ecut=    40.00 Ry     beta= 0.60
     Davidson diagonalization with overlap
     ethr =  2.47E-04,  avg # of iterations =  3.1

     total cpu time spent up to now is      485.7 secs

     total energy              =    -704.73562499 Ry
     Harris-Foulkes estimate   =    -704.98247077 Ry
     estimated scf accuracy    <       1.41756727 Ry

     iteration # 13     ecut=    40.00 Ry     beta= 0.60
     Davidson diagonalization with overlap
     ethr =  2.47E-04,  avg # of iterations =  5.5

     total cpu time spent up to now is      539.1 secs

     total energy              =    -704.89705895 Ry
     Harris-Foulkes estimate   =    -704.92748696 Ry
     estimated scf accuracy    <       0.25898327 Ry

     iteration # 14     ecut=    40.00 Ry     beta= 0.60
     Davidson diagonalization with overlap
     ethr =  2.47E-04,  avg # of iterations =  1.0

     total cpu time spent up to now is      566.0 secs

     total energy              =    -704.90380517 Ry
     Harris-Foulkes estimate   =    -704.90208116 Ry
     estimated scf accuracy    <       0.09112899 Ry

     iteration # 15     ecut=    40.00 Ry     beta= 0.60
     Davidson diagonalization with overlap
     ethr =  1.20E-04,  avg # of iterations =  1.1

     total cpu time spent up to now is      593.1 secs

     total energy              =    -704.88922671 Ry
     Harris-Foulkes estimate   =    -704.90501634 Ry
     estimated scf accuracy    <       0.10851935 Ry

     iteration # 16     ecut=    40.00 Ry     beta= 0.60
     Davidson diagonalization with overlap
     ethr =  1.20E-04,  avg # of iterations =  4.3

     total cpu time spent up to now is      630.8 secs

     total energy              =    -704.89954263 Ry
     Harris-Foulkes estimate   =    -704.89970332 Ry
     estimated scf accuracy    <       0.00187379 Ry

     iteration # 17     ecut=    40.00 Ry     beta= 0.60
     Davidson diagonalization with overlap
     ethr =  2.47E-06,  avg # of iterations =  6.3

     total cpu time spent up to now is      691.2 secs

     total energy              =    -704.90109895 Ry
     Harris-Foulkes estimate   =    -704.90192385 Ry
     estimated scf accuracy    <       0.00539140 Ry

     iteration # 18     ecut=    40.00 Ry     beta= 0.60
     Davidson diagonalization with overlap
     ethr =  2.47E-06,  avg # of iterations =  4.3

     total cpu time spent up to now is      729.5 secs

     total energy              =    -704.90152429 Ry
     Harris-Foulkes estimate   =    -704.90153570 Ry
     estimated scf accuracy    <       0.00007215 Ry

     iteration # 19     ecut=    40.00 Ry     beta= 0.60
     Davidson diagonalization with overlap
     ethr =  9.49E-08,  avg # of iterations =  4.6

     total cpu time spent up to now is      773.8 secs

     total energy              =    -704.90154701 Ry
     Harris-Foulkes estimate   =    -704.90155617 Ry
     estimated scf accuracy    <       0.00003038 Ry

     iteration # 20     ecut=    40.00 Ry     beta= 0.60
     Davidson diagonalization with overlap
     ethr =  4.00E-08,  avg # of iterations =  4.2

     total cpu time spent up to now is      816.3 secs

     total energy              =    -704.90155366 Ry
     Harris-Foulkes estimate   =    -704.90155882 Ry
     estimated scf accuracy    <       0.00005749 Ry

     iteration # 21     ecut=    40.00 Ry     beta= 0.60
     Davidson diagonalization with overlap
     ethr =  4.00E-08,  avg # of iterations =  1.0

     total cpu time spent up to now is      843.4 secs

     total energy              =    -704.90155216 Ry
     Harris-Foulkes estimate   =    -704.90155468 Ry
     estimated scf accuracy    <       0.00002064 Ry

     iteration # 22     ecut=    40.00 Ry     beta= 0.60
     Davidson diagonalization with overlap
     ethr =  2.72E-08,  avg # of iterations =  3.4

     total cpu time spent up to now is      879.5 secs

     total energy              =    -704.90155435 Ry
     Harris-Foulkes estimate   =    -704.90155442 Ry
     estimated scf accuracy    <       0.00000043 Ry

     iteration # 23     ecut=    40.00 Ry     beta= 0.60
     Davidson diagonalization with overlap
     ethr =  5.59E-10,  avg # of iterations =  4.2

     total cpu time spent up to now is      920.5 secs

     total energy              =    -704.90155446 Ry
     Harris-Foulkes estimate   =    -704.90155447 Ry
     estimated scf accuracy    <       0.00000007 Ry

     iteration # 24     ecut=    40.00 Ry     beta= 0.60
     Davidson diagonalization with overlap
     ethr =  8.56E-11,  avg # of iterations =  2.6

     total cpu time spent up to now is      952.1 secs

     total energy              =    -704.90155446 Ry
     Harris-Foulkes estimate   =    -704.90155446 Ry
     estimated scf accuracy    <       0.00000003 Ry

     iteration # 25     ecut=    40.00 Ry     beta= 0.60
     Davidson diagonalization with overlap
     ethr =  3.54E-11,  avg # of iterations =  2.8

     total cpu time spent up to now is      983.8 secs

     total energy              =    -704.90155446 Ry
     Harris-Foulkes estimate   =    -704.90155446 Ry
     estimated scf accuracy    <       0.00000001 Ry

     iteration # 26     ecut=    40.00 Ry     beta= 0.60
     Davidson diagonalization with overlap
     ethr =  1.32E-11,  avg # of iterations =  3.8

     total cpu time spent up to now is     1020.2 secs

     total energy              =    -704.90155446 Ry
     Harris-Foulkes estimate   =    -704.90155446 Ry
     estimated scf accuracy    <          3.9E-10 Ry

     iteration # 27     ecut=    40.00 Ry     beta= 0.60
     Davidson diagonalization with overlap
     ethr =  5.15E-13,  avg # of iterations =  4.6

     total cpu time spent up to now is     1066.2 secs

     End of self-consistent calculation

     Number of k-points >= 100: set verbosity='high' to print the bands.

     the Fermi energy is    14.6620 ev

!    total energy              =    -704.90155446 Ry
     Harris-Foulkes estimate   =    -704.90155446 Ry
     estimated scf accuracy    <          3.5E-11 Ry

     The total energy is the sum of the following terms:

     one-electron contribution =    -177.52275965 Ry
     hartree contribution      =     117.49758645 Ry
     xc contribution           =    -102.16161366 Ry
     ewald contribution        =    -542.70967997 Ry
     smearing contrib. (-TS)   =      -0.00508763 Ry

     convergence has been achieved in  27 iterations

     Forces acting on atoms (cartesian axes, Ry/au):

     atom    1 type  2   force =     0.00000000   -0.00013573    0.00000000
     atom    2 type  2   force =     0.00000000    0.00011548    0.00000000
     atom    3 type  1   force =    -0.00091473   -0.00085868    0.00000000
     atom    4 type  1   force =    -0.00091396    0.00086880    0.00000000
     atom    5 type  1   force =     0.00091473   -0.00085868    0.00000000
     atom    6 type  1   force =     0.00091396    0.00086880    0.00000000

     Total force =     0.002522     Total SCF correction =     0.000009


     Computing stress (Cartesian axis) and pressure

          total   stress  (Ry/bohr**3)                   (kbar)     P= -118.97
  -0.00089441   0.00000000   0.00000000       -131.57      0.00      0.00
   0.00000000  -0.00088851   0.00000000          0.00   -130.70      0.00
   0.00000000   0.00000000  -0.00064323          0.00      0.00    -94.62


     BFGS Geometry Optimization

     number of scf cycles    =   1
     number of bfgs steps    =   0

     enthalpy new            =    -704.9015544628 Ry

     new trust radius        =       0.1271462895 bohr
     new conv_thr            =            1.0E-10 Ry

     new unit-cell volume =    760.28806 a.u.^3 (   112.66306 Ang^3 )
     density =      6.88840 g/cm^3

CELL_PARAMETERS (alat=  1.88972599)
   4.465375595  -2.578474654   0.000000000
  -4.465375595  -2.578474654   0.000000000
   0.000000000   0.000000000  -4.892499652

ATOMIC_POSITIONS (angstrom)
Ti       0.000000000  -5.157019537  -4.892499652
Ti       0.000001489  -1.718924210  -2.446249826
Nb      -1.488931764  -2.578918955  -4.892499652
Nb      -1.488929875  -4.297009078  -2.446249826
Nb       1.488931764  -2.578918955  -4.892499652
Nb       1.488932853  -4.297009078  -2.446249826


     NEW-OLD atomic charge density approx. for the potential

     Check: negative/imaginary core charge=   -0.000001    0.000000
     extrapolated charge   71.32346, renormalised to   76.00000

     total cpu time spent up to now is     1082.4 secs

     Self-consistent Calculation

     iteration #  1     ecut=    40.00 Ry     beta= 0.60
     Davidson diagonalization with overlap
     c_bands:  1 eigenvalues not converged
     c_bands:  1 eigenvalues not converged
     c_bands:  1 eigenvalues not converged
     c_bands:  1 eigenvalues not converged
     c_bands:  1 eigenvalues not converged
     c_bands:  1 eigenvalues not converged
     c_bands:  1 eigenvalues not converged
     c_bands:  1 eigenvalues not converged
     c_bands:  1 eigenvalues not converged
     c_bands:  1 eigenvalues not converged
     c_bands:  1 eigenvalues not converged
     c_bands:  1 eigenvalues not converged
     c_bands:  1 eigenvalues not converged
     c_bands:  1 eigenvalues not converged
     c_bands:  1 eigenvalues not converged
     c_bands:  1 eigenvalues not converged
     c_bands:  1 eigenvalues not converged
     c_bands:  1 eigenvalues not converged
     c_bands:  1 eigenvalues not converged
     c_bands:  2 eigenvalues not converged
     c_bands:  2 eigenvalues not converged
     c_bands:  1 eigenvalues not converged
     c_bands:  1 eigenvalues not converged
     c_bands:  1 eigenvalues not converged
     c_bands:  1 eigenvalues not converged
     c_bands:  1 eigenvalues not converged
     c_bands:  1 eigenvalues not converged
     c_bands:  1 eigenvalues not converged
     c_bands:  1 eigenvalues not converged
     c_bands:  1 eigenvalues not converged
     c_bands:  1 eigenvalues not converged
     c_bands:  2 eigenvalues not converged
     c_bands:  2 eigenvalues not converged
     c_bands:  1 eigenvalues not converged
     c_bands:  2 eigenvalues not converged
     c_bands:  1 eigenvalues not converged
     c_bands:  2 eigenvalues not converged
     c_bands:  1 eigenvalues not converged
     c_bands:  2 eigenvalues not converged
     c_bands:  1 eigenvalues not converged
     c_bands:  1 eigenvalues not converged
     c_bands:  2 eigenvalues not converged
     c_bands:  1 eigenvalues not converged
     c_bands:  1 eigenvalues not converged
     c_bands:  1 eigenvalues not converged
     c_bands:  1 eigenvalues not converged
     c_bands:  2 eigenvalues not converged
     c_bands:  3 eigenvalues not converged
     c_bands:  1 eigenvalues not converged
     c_bands:  1 eigenvalues not converged
     c_bands:  1 eigenvalues not converged
     c_bands:  2 eigenvalues not converged
     c_bands:  1 eigenvalues not converged
     c_bands:  2 eigenvalues not converged
     c_bands:  2 eigenvalues not converged
     c_bands:  1 eigenvalues not converged
     c_bands:  1 eigenvalues not converged
     c_bands:  1 eigenvalues not converged
     c_bands:  1 eigenvalues not converged
     c_bands:  1 eigenvalues not converged
     c_bands:  1 eigenvalues not converged
     c_bands:  1 eigenvalues not converged
     c_bands:  1 eigenvalues not converged
     c_bands:  2 eigenvalues not converged
     c_bands:  1 eigenvalues not converged
     ethr =  1.00E-06,  avg # of iterations = 16.9

     total cpu time spent up to now is     1210.7 secs

     total energy              =    -698.14700225 Ry
     Harris-Foulkes estimate   =    -712.31011714 Ry
     estimated scf accuracy    <       7.33596823 Ry

     iteration #  2     ecut=    40.00 Ry     beta= 0.60
     Davidson diagonalization with overlap
     ethr =  9.65E-03,  avg # of iterations =  5.4

     total cpu time spent up to now is     1267.8 secs

     total energy              =    -705.39458714 Ry
     Harris-Foulkes estimate   =    -714.06720635 Ry
     estimated scf accuracy    <      24.64207341 Ry

     iteration #  3     ecut=    40.00 Ry     beta= 0.60
     Davidson diagonalization with overlap
     ethr =  9.65E-03,  avg # of iterations =  2.6

     total cpu time spent up to now is     1303.6 secs

     total energy              =    -704.98361861 Ry
     Harris-Foulkes estimate   =    -706.64957490 Ry
     estimated scf accuracy    <       7.02327558 Ry

     iteration #  4     ecut=    40.00 Ry     beta= 0.60
     Davidson diagonalization with overlap
     ethr =  9.24E-03,  avg # of iterations =  1.4

     total cpu time spent up to now is     1331.5 secs

     total energy              =    -704.34481894 Ry
     Harris-Foulkes estimate   =    -705.14302662 Ry
     estimated scf accuracy    <       3.69248650 Ry

     iteration #  5     ecut=    40.00 Ry     beta= 0.60
     Davidson diagonalization with overlap
     ethr =  4.86E-03,  avg # of iterations =  4.1

     total cpu time spent up to now is     1375.1 secs

     total energy              =    -704.85238882 Ry
     Harris-Foulkes estimate   =    -705.02477106 Ry
     estimated scf accuracy    <       0.59854716 Ry

     iteration #  6     ecut=    40.00 Ry     beta= 0.60
     Davidson diagonalization with overlap
     ethr =  7.88E-04,  avg # of iterations =  4.4

     total cpu time spent up to now is     1421.2 secs

     total energy              =    -705.06665196 Ry
     Harris-Foulkes estimate   =    -705.12581082 Ry
     estimated scf accuracy    <       1.22801252 Ry

     iteration #  7     ecut=    40.00 Ry     beta= 0.60
     Davidson diagonalization with overlap
     ethr =  7.88E-04,  avg # of iterations =  1.0

     total cpu time spent up to now is     1448.3 secs

     total energy              =    -705.08622423 Ry
     Harris-Foulkes estimate   =    -705.06892425 Ry
     estimated scf accuracy    <       1.02055905 Ry

     iteration #  8     ecut=    40.00 Ry     beta= 0.60
     Davidson diagonalization with overlap
     ethr =  7.88E-04,  avg # of iterations =  1.0

     total cpu time spent up to now is     1475.4 secs

     total energy              =    -705.04425423 Ry
     Harris-Foulkes estimate   =    -705.08672483 Ry
     estimated scf accuracy    <       1.07826881 Ry

     iteration #  9     ecut=    40.00 Ry     beta= 0.60
     Davidson diagonalization with overlap
     ethr =  7.88E-04,  avg # of iterations =  1.0

     total cpu time spent up to now is     1502.5 secs

     total energy              =    -704.99754669 Ry
     Harris-Foulkes estimate   =    -705.04563984 Ry
     estimated scf accuracy    <       0.92178973 Ry

     iteration # 10     ecut=    40.00 Ry     beta= 0.60
     Davidson diagonalization with overlap
     ethr =  7.88E-04,  avg # of iterations =  1.0

     total cpu time spent up to now is     1529.5 secs

     total energy              =    -704.78610824 Ry
     Harris-Foulkes estimate   =    -705.00327085 Ry
     estimated scf accuracy    <       0.61424194 Ry

     iteration # 11     ecut=    40.00 Ry     beta= 0.60
     Davidson diagonalization with overlap
     ethr =  7.88E-04,  avg # of iterations =  4.2

     total cpu time spent up to now is     1574.3 secs

     total energy              =    -704.95156855 Ry
     Harris-Foulkes estimate   =    -704.99547665 Ry
     estimated scf accuracy    <       1.01608107 Ry

     iteration # 12     ecut=    40.00 Ry     beta= 0.60
     Davidson diagonalization with overlap
     ethr =  7.88E-04,  avg # of iterations =  1.0

     total cpu time spent up to now is     1601.4 secs

     total energy              =    -704.96122535 Ry
     Harris-Foulkes estimate   =    -704.95782978 Ry
     estimated scf accuracy    <       0.55105014 Ry

     iteration # 13     ecut=    40.00 Ry     beta= 0.60
     Davidson diagonalization with overlap
     ethr =  7.25E-04,  avg # of iterations =  1.0

     total cpu time spent up to now is     1628.4 secs

     total energy              =    -704.97350233 Ry
     Harris-Foulkes estimate   =    -704.96194091 Ry
     estimated scf accuracy    <       0.58598892 Ry

     iteration # 14     ecut=    40.00 Ry     beta= 0.60
     Davidson diagonalization with overlap
     ethr =  7.25E-04,  avg # of iterations =  1.0

     total cpu time spent up to now is     1655.4 secs

     total energy              =    -705.00891562 Ry
     Harris-Foulkes estimate   =    -704.97435044 Ry
     estimated scf accuracy    <       0.70962555 Ry

     iteration # 15     ecut=    40.00 Ry     beta= 0.60
     Davidson diagonalization with overlap
     ethr =  7.25E-04,  avg # of iterations =  1.0

     total cpu time spent up to now is     1682.5 secs

     total energy              =    -704.95275586 Ry
     Harris-Foulkes estimate   =    -705.01298503 Ry
     estimated scf accuracy    <       1.15198840 Ry

     iteration # 16     ecut=    40.00 Ry     beta= 0.60
     Davidson diagonalization with overlap
     ethr =  7.25E-04,  avg # of iterations =  1.0

     total cpu time spent up to now is     1709.5 secs

     total energy              =    -704.88268744 Ry
     Harris-Foulkes estimate   =    -704.96078427 Ry
     estimated scf accuracy    <       0.58222680 Ry

     iteration # 17     ecut=    40.00 Ry     beta= 0.60
     Davidson diagonalization with overlap
     ethr =  7.25E-04,  avg # of iterations =  3.1

     total cpu time spent up to now is     1742.7 secs

     total energy              =    -704.92407301 Ry
     Harris-Foulkes estimate   =    -704.92431122 Ry
     estimated scf accuracy    <       0.00083111 Ry

     iteration # 18     ecut=    40.00 Ry     beta= 0.60
     Davidson diagonalization with overlap
     c_bands:  1 eigenvalues not converged
     ethr =  1.09E-06,  avg # of iterations =  6.4

     total cpu time spent up to now is     1809.7 secs

     total energy              =    -704.93228320 Ry
     Harris-Foulkes estimate   =    -704.93327055 Ry
     estimated scf accuracy    <       0.03395912 Ry

     iteration # 19     ecut=    40.00 Ry     beta= 0.60
     Davidson diagonalization with overlap
     ethr =  1.09E-06,  avg # of iterations =  3.1

     total cpu time spent up to now is     1845.7 secs

     total energy              =    -704.93115060 Ry
     Harris-Foulkes estimate   =    -704.93247239 Ry
     estimated scf accuracy    <       0.02571185 Ry

     iteration # 20     ecut=    40.00 Ry     beta= 0.60
     Davidson diagonalization with overlap
     ethr =  1.09E-06,  avg # of iterations =  3.9

     total cpu time spent up to now is     1885.7 secs

     total energy              =    -704.92996246 Ry
     Harris-Foulkes estimate   =    -704.93136985 Ry
     estimated scf accuracy    <       0.01227001 Ry

     iteration # 21     ecut=    40.00 Ry     beta= 0.60
     Davidson diagonalization with overlap
     ethr =  1.09E-06,  avg # of iterations =  4.6

     total cpu time spent up to now is     1933.4 secs

     total energy              =    -704.93043070 Ry
     Harris-Foulkes estimate   =    -704.93048041 Ry
     estimated scf accuracy    <       0.00076338 Ry

     iteration # 22     ecut=    40.00 Ry     beta= 0.60
     Davidson diagonalization with overlap
     ethr =  1.00E-06,  avg # of iterations =  1.0

     total cpu time spent up to now is     1960.4 secs

     total energy              =    -704.93037918 Ry
     Harris-Foulkes estimate   =    -704.93044311 Ry
     estimated scf accuracy    <       0.00070034 Ry

     iteration # 23     ecut=    40.00 Ry     beta= 0.60
     Davidson diagonalization with overlap
     ethr =  9.22E-07,  avg # of iterations =  1.3

     total cpu time spent up to now is     1988.2 secs

     total energy              =    -704.93039588 Ry
     Harris-Foulkes estimate   =    -704.93040029 Ry
     estimated scf accuracy    <       0.00022789 Ry

     iteration # 24     ecut=    40.00 Ry     beta= 0.60
     Davidson diagonalization with overlap
     ethr =  3.00E-07,  avg # of iterations =  3.1

     total cpu time spent up to now is     2020.5 secs

     total energy              =    -704.93038064 Ry
     Harris-Foulkes estimate   =    -704.93040156 Ry
     estimated scf accuracy    <       0.00016972 Ry

     iteration # 25     ecut=    40.00 Ry     beta= 0.60
     Davidson diagonalization with overlap
     ethr =  2.23E-07,  avg # of iterations =  3.9

     total cpu time spent up to now is     2055.8 secs

     total energy              =    -704.93039135 Ry
     Harris-Foulkes estimate   =    -704.93039394 Ry
     estimated scf accuracy    <       0.00000774 Ry

     iteration # 26     ecut=    40.00 Ry     beta= 0.60
     Davidson diagonalization with overlap
     ethr =  1.02E-08,  avg # of iterations =  4.9

     total cpu time spent up to now is     2104.6 secs

     total energy              =    -704.93039645 Ry
     Harris-Foulkes estimate   =    -704.93039649 Ry
     estimated scf accuracy    <       0.00000013 Ry

     iteration # 27     ecut=    40.00 Ry     beta= 0.60
     Davidson diagonalization with overlap
     ethr =  1.76E-10,  avg # of iterations =  4.9

     total cpu time spent up to now is     2149.3 secs

     total energy              =    -704.93039648 Ry
     Harris-Foulkes estimate   =    -704.93039649 Ry
     estimated scf accuracy    <       0.00000004 Ry

     iteration # 28     ecut=    40.00 Ry     beta= 0.60
     Davidson diagonalization with overlap
     ethr =  4.78E-11,  avg # of iterations =  4.0

     total cpu time spent up to now is     2187.9 secs

     total energy              =    -704.93039649 Ry
     Harris-Foulkes estimate   =    -704.93039649 Ry
     estimated scf accuracy    <          4.4E-09 Ry

     iteration # 29     ecut=    40.00 Ry     beta= 0.60
     Davidson diagonalization with overlap
     ethr =  5.75E-12,  avg # of iterations =  3.5

     total cpu time spent up to now is     2224.9 secs

     total energy              =    -704.93039649 Ry
     Harris-Foulkes estimate   =    -704.93039649 Ry
     estimated scf accuracy    <          4.0E-09 Ry

     iteration # 30     ecut=    40.00 Ry     beta= 0.60
     Davidson diagonalization with overlap
     ethr =  5.32E-12,  avg # of iterations =  1.1

     total cpu time spent up to now is     2252.1 secs

     total energy              =    -704.93039649 Ry
     Harris-Foulkes estimate   =    -704.93039649 Ry
     estimated scf accuracy    <          4.8E-10 Ry

     iteration # 31     ecut=    40.00 Ry     beta= 0.60
     Davidson diagonalization with overlap
     ethr =  6.35E-13,  avg # of iterations =  4.2

     total cpu time spent up to now is     2294.2 secs

     End of self-consistent calculation

     Number of k-points >= 100: set verbosity='high' to print the bands.

     the Fermi energy is    15.7515 ev

!    total energy              =    -704.93039649 Ry
     Harris-Foulkes estimate   =    -704.93039649 Ry
     estimated scf accuracy    <          6.1E-11 Ry

     The total energy is the sum of the following terms:

     one-electron contribution =    -161.31058134 Ry
     hartree contribution      =     112.79467937 Ry
     xc contribution           =    -102.50196210 Ry
     ewald contribution        =    -553.90869349 Ry
     smearing contrib. (-TS)   =      -0.00383892 Ry

     convergence has been achieved in  31 iterations

     Forces acting on atoms (cartesian axes, Ry/au):

     atom    1 type  2   force =     0.00000000   -0.00215353    0.00000000
     atom    2 type  2   force =     0.00000000    0.00215126    0.00000000
     atom    3 type  1   force =     0.00176696    0.00061152    0.00000000
     atom    4 type  1   force =     0.00176754   -0.00061039    0.00000000
     atom    5 type  1   force =    -0.00176696    0.00061152    0.00000000
     atom    6 type  1   force =    -0.00176754   -0.00061039    0.00000000

     Total force =     0.004822     Total SCF correction =     0.000009


     Computing stress (Cartesian axis) and pressure

          total   stress  (Ry/bohr**3)                   (kbar)     P=  -48.69
  -0.00042887   0.00000000   0.00000000        -63.09      0.00      0.00
   0.00000000  -0.00042301   0.00000000          0.00    -62.23      0.00
   0.00000000   0.00000000  -0.00014115          0.00      0.00    -20.76


     number of scf cycles    =   2
     number of bfgs steps    =   1

     enthalpy old            =    -704.9015544628 Ry
     enthalpy new            =    -704.9303964859 Ry

     CASE: enthalpy_new < enthalpy_old

     new trust radius        =       0.1021931541 bohr
     new conv_thr            =            1.0E-10 Ry

     new unit-cell volume =    727.94536 a.u.^3 (   107.87037 Ang^3 )
     density =      7.19446 g/cm^3

CELL_PARAMETERS (alat=  1.88972599)
   4.382626982  -2.531346644   0.000000000
  -4.382626982  -2.531346644   0.000000000
   0.000000000   0.000000000  -4.861677548

ATOMIC_POSITIONS (angstrom)
Ti       0.000000000  -5.064570497  -4.861677548
Ti       0.000001461  -1.685700573  -2.430838774
Nb      -1.459873576  -2.531283599  -4.861677548
Nb      -1.459871222  -4.218968709  -2.430838774
Nb       1.459873576  -2.531283599  -4.861677548
Nb       1.459874145  -4.218968709  -2.430838774


     NEW-OLD atomic charge density approx. for the potential

     Check: negative/imaginary core charge=   -0.000001    0.000000
     extrapolated charge   72.71266, renormalised to   76.00000

     total cpu time spent up to now is     2310.6 secs

     Self-consistent Calculation

     iteration #  1     ecut=    40.00 Ry     beta= 0.60
     Davidson diagonalization with overlap
     c_bands:  1 eigenvalues not converged
     c_bands:  1 eigenvalues not converged
     c_bands:  1 eigenvalues not converged
     c_bands:  1 eigenvalues not converged
     c_bands:  1 eigenvalues not converged
     c_bands:  1 eigenvalues not converged
     c_bands:  1 eigenvalues not converged
     c_bands:  1 eigenvalues not converged
     c_bands:  1 eigenvalues not converged
     c_bands:  1 eigenvalues not converged
     c_bands:  1 eigenvalues not converged
     c_bands:  1 eigenvalues not converged
     c_bands:  1 eigenvalues not converged
     c_bands:  1 eigenvalues not converged
     c_bands:  1 eigenvalues not converged
     c_bands:  1 eigenvalues not converged
     c_bands:  1 eigenvalues not converged
     c_bands:  1 eigenvalues not converged
     c_bands:  1 eigenvalues not converged
     c_bands:  1 eigenvalues not converged
     c_bands:  1 eigenvalues not converged
     c_bands:  1 eigenvalues not converged
     c_bands:  1 eigenvalues not converged
     c_bands:  1 eigenvalues not converged
     c_bands:  1 eigenvalues not converged
     c_bands:  1 eigenvalues not converged
     c_bands:  2 eigenvalues not converged
     c_bands:  1 eigenvalues not converged
     c_bands:  1 eigenvalues not converged
     c_bands:  1 eigenvalues not converged
     c_bands:  1 eigenvalues not converged
     c_bands:  1 eigenvalues not converged
     c_bands:  1 eigenvalues not converged
     c_bands:  1 eigenvalues not converged
     c_bands:  1 eigenvalues not converged
     c_bands:  2 eigenvalues not converged
     c_bands:  1 eigenvalues not converged
     c_bands:  1 eigenvalues not converged
     c_bands:  1 eigenvalues not converged
     c_bands:  1 eigenvalues not converged
     c_bands:  1 eigenvalues not converged
     c_bands:  1 eigenvalues not converged
     c_bands:  1 eigenvalues not converged
     c_bands:  1 eigenvalues not converged
     c_bands:  1 eigenvalues not converged
     c_bands:  1 eigenvalues not converged
     c_bands:  1 eigenvalues not converged
     c_bands:  1 eigenvalues not converged
     c_bands:  1 eigenvalues not converged
     c_bands:  1 eigenvalues not converged
     c_bands:  1 eigenvalues not converged
     c_bands:  1 eigenvalues not converged
     c_bands:  1 eigenvalues not converged
     c_bands:  1 eigenvalues not converged
     c_bands:  1 eigenvalues not converged
     c_bands:  1 eigenvalues not converged
     c_bands:  1 eigenvalues not converged
     c_bands:  1 eigenvalues not converged
     c_bands:  1 eigenvalues not converged
     c_bands:  1 eigenvalues not converged
     c_bands:  1 eigenvalues not converged
     c_bands:  2 eigenvalues not converged
     c_bands:  1 eigenvalues not converged
     c_bands:  1 eigenvalues not converged
     ethr =  1.00E-06,  avg # of iterations = 14.6

     total cpu time spent up to now is     2427.9 secs

     total energy              =    -702.97685447 Ry
     Harris-Foulkes estimate   =    -709.68762667 Ry
     estimated scf accuracy    <       2.00982700 Ry

     iteration #  2     ecut=    40.00 Ry     beta= 0.60
     Davidson diagonalization with overlap
     ethr =  2.64E-03,  avg # of iterations =  6.1

     total cpu time spent up to now is     2490.5 secs

     total energy              =    -704.76932890 Ry
     Harris-Foulkes estimate   =    -708.10594917 Ry
     estimated scf accuracy    <      11.30031896 Ry

     iteration #  3     ecut=    40.00 Ry     beta= 0.60
     Davidson diagonalization with overlap
     ethr =  2.64E-03,  avg # of iterations =  4.4

     total cpu time spent up to now is     2537.3 secs

     total energy              =    -704.97292949 Ry
     Harris-Foulkes estimate   =    -705.38719455 Ry
     estimated scf accuracy    <       2.19013037 Ry

     iteration #  4     ecut=    40.00 Ry     beta= 0.60
     Davidson diagonalization with overlap
     ethr =  2.64E-03,  avg # of iterations =  1.2

     total cpu time spent up to now is     2564.8 secs

     total energy              =    -704.79231260 Ry
     Harris-Foulkes estimate   =    -705.01480619 Ry
     estimated scf accuracy    <       1.16626347 Ry

     iteration #  5     ecut=    40.00 Ry     beta= 0.60
     Davidson diagonalization with overlap
     ethr =  1.53E-03,  avg # of iterations =  4.0

     total cpu time spent up to now is     2604.9 secs

     total energy              =    -704.93700554 Ry
     Harris-Foulkes estimate   =    -704.94659730 Ry
     estimated scf accuracy    <       0.04747432 Ry

     iteration #  6     ecut=    40.00 Ry     beta= 0.60
     Davidson diagonalization with overlap
     ethr =  6.25E-05,  avg # of iterations =  5.1

     total cpu time spent up to now is     2657.3 secs

     total energy              =    -704.96326036 Ry
     Harris-Foulkes estimate   =    -704.97221840 Ry
     estimated scf accuracy    <       0.24031871 Ry

     iteration #  7     ecut=    40.00 Ry     beta= 0.60
     Davidson diagonalization with overlap
     ethr =  6.25E-05,  avg # of iterations =  1.0

     total cpu time spent up to now is     2684.4 secs

     total energy              =    -704.95827631 Ry
     Harris-Foulkes estimate   =    -704.96356435 Ry
     estimated scf accuracy    <       0.19968050 Ry

     iteration #  8     ecut=    40.00 Ry     beta= 0.60
     Davidson diagonalization with overlap
     ethr =  6.25E-05,  avg # of iterations =  1.0

     total cpu time spent up to now is     2711.5 secs

     total energy              =    -704.92191949 Ry
     Harris-Foulkes estimate   =    -704.95864597 Ry
     estimated scf accuracy    <       0.16188385 Ry

     iteration #  9     ecut=    40.00 Ry     beta= 0.60
     Davidson diagonalization with overlap
     ethr =  6.25E-05,  avg # of iterations =  4.9

     total cpu time spent up to now is     2759.7 secs

     total energy              =    -704.93684878 Ry
     Harris-Foulkes estimate   =    -704.93710820 Ry
     estimated scf accuracy    <       0.00240651 Ry

     iteration # 10     ecut=    40.00 Ry     beta= 0.60
     Davidson diagonalization with overlap
     ethr =  3.17E-06,  avg # of iterations =  5.6

     total cpu time spent up to now is     2822.9 secs

     total energy              =    -704.93585038 Ry
     Harris-Foulkes estimate   =    -704.94072989 Ry
     estimated scf accuracy    <       0.05086167 Ry

     iteration # 11     ecut=    40.00 Ry     beta= 0.60
     Davidson diagonalization with overlap
     ethr =  3.17E-06,  avg # of iterations =  4.7

     total cpu time spent up to now is     2872.8 secs

     total energy              =    -704.93580265 Ry
     Harris-Foulkes estimate   =    -704.93721238 Ry
     estimated scf accuracy    <       0.00830195 Ry

     iteration # 12     ecut=    40.00 Ry     beta= 0.60
     Davidson diagonalization with overlap
     ethr =  3.17E-06,  avg # of iterations =  4.5

     total cpu time spent up to now is     2913.8 secs

     total energy              =    -704.93653668 Ry
     Harris-Foulkes estimate   =    -704.93653428 Ry
     estimated scf accuracy    <       0.00007402 Ry

     iteration # 13     ecut=    40.00 Ry     beta= 0.60
     Davidson diagonalization with overlap
     ethr =  9.74E-08,  avg # of iterations =  4.1

     total cpu time spent up to now is     2955.3 secs

     total energy              =    -704.93654336 Ry
     Harris-Foulkes estimate   =    -704.93655849 Ry
     estimated scf accuracy    <       0.00017616 Ry

     iteration # 14     ecut=    40.00 Ry     beta= 0.60
     Davidson diagonalization with overlap
     ethr =  9.74E-08,  avg # of iterations =  1.0

     total cpu time spent up to now is     2982.4 secs

     total energy              =    -704.93653831 Ry
     Harris-Foulkes estimate   =    -704.93654592 Ry
     estimated scf accuracy    <       0.00007199 Ry

     iteration # 15     ecut=    40.00 Ry     beta= 0.60
     Davidson diagonalization with overlap
     ethr =  9.47E-08,  avg # of iterations =  2.6

     total cpu time spent up to now is     3011.2 secs

     total energy              =    -704.93654131 Ry
     Harris-Foulkes estimate   =    -704.93654215 Ry
     estimated scf accuracy    <       0.00000451 Ry

     iteration # 16     ecut=    40.00 Ry     beta= 0.60
     Davidson diagonalization with overlap
     ethr =  5.94E-09,  avg # of iterations =  4.6

     total cpu time spent up to now is     3046.0 secs

     total energy              =    -704.93654250 Ry
     Harris-Foulkes estimate   =    -704.93654266 Ry
     estimated scf accuracy    <       0.00000154 Ry

     iteration # 17     ecut=    40.00 Ry     beta= 0.60
     Davidson diagonalization with overlap
     ethr =  2.03E-09,  avg # of iterations =  1.0

     total cpu time spent up to now is     3068.2 secs

     total energy              =    -704.93654252 Ry
     Harris-Foulkes estimate   =    -704.93654254 Ry
     estimated scf accuracy    <       0.00000043 Ry

     iteration # 18     ecut=    40.00 Ry     beta= 0.60
     Davidson diagonalization with overlap
     ethr =  5.60E-10,  avg # of iterations =  2.3

     total cpu time spent up to now is     3092.2 secs

     total energy              =    -704.93654251 Ry
     Harris-Foulkes estimate   =    -704.93654253 Ry
     estimated scf accuracy    <       0.00000025 Ry

     iteration # 19     ecut=    40.00 Ry     beta= 0.60
     Davidson diagonalization with overlap
     ethr =  3.26E-10,  avg # of iterations =  4.0

     total cpu time spent up to now is     3121.0 secs

     total energy              =    -704.93654253 Ry
     Harris-Foulkes estimate   =    -704.93654253 Ry
     estimated scf accuracy    <          1.7E-09 Ry

     iteration # 20     ecut=    40.00 Ry     beta= 0.60
     Davidson diagonalization with overlap
     ethr =  2.29E-12,  avg # of iterations =  5.4

     total cpu time spent up to now is     3163.3 secs

     total energy              =    -704.93654254 Ry
     Harris-Foulkes estimate   =    -704.93654254 Ry
     estimated scf accuracy    <       0.00000004 Ry

     iteration # 21     ecut=    40.00 Ry     beta= 0.60
     Davidson diagonalization with overlap
     ethr =  2.29E-12,  avg # of iterations =  4.1

     total cpu time spent up to now is     3196.3 secs

     total energy              =    -704.93654254 Ry
     Harris-Foulkes estimate   =    -704.93654254 Ry
     estimated scf accuracy    <       0.00000001 Ry

     iteration # 22     ecut=    40.00 Ry     beta= 0.60
     Davidson diagonalization with overlap
     ethr =  2.29E-12,  avg # of iterations =  4.1

     total cpu time spent up to now is     3229.5 secs

     End of self-consistent calculation

     Number of k-points >= 100: set verbosity='high' to print the bands.

     the Fermi energy is    16.5550 ev

!    total energy              =    -704.93654254 Ry
     Harris-Foulkes estimate   =    -704.93654254 Ry
     estimated scf accuracy    <          3.1E-11 Ry

     The total energy is the sum of the following terms:

     one-electron contribution =    -149.71114468 Ry
     hartree contribution      =     109.51768664 Ry
     xc contribution           =    -102.75983773 Ry
     ewald contribution        =    -561.98017570 Ry
     smearing contrib. (-TS)   =      -0.00307107 Ry

     convergence has been achieved in  22 iterations

     Forces acting on atoms (cartesian axes, Ry/au):

     atom    1 type  2   force =     0.00000000   -0.00327755    0.00000000
     atom    2 type  2   force =     0.00000000    0.00328803    0.00000000
     atom    3 type  1   force =     0.00351636    0.00180164    0.00000000
     atom    4 type  1   force =     0.00351821   -0.00180688    0.00000000
     atom    5 type  1   force =    -0.00351636    0.00180164    0.00000000
     atom    6 type  1   force =    -0.00351821   -0.00180688    0.00000000

     Total force =     0.009168     Total SCF correction =     0.000010


     Computing stress (Cartesian axis) and pressure

          total   stress  (Ry/bohr**3)                   (kbar)     P=   11.24
  -0.00002193   0.00000000   0.00000000         -3.23      0.00      0.00
   0.00000000  -0.00002127   0.00000000          0.00     -3.13      0.00
   0.00000000   0.00000000   0.00027236          0.00      0.00     40.07


     number of scf cycles    =   3
     number of bfgs steps    =   2

     enthalpy old            =    -704.9303964859 Ry
     enthalpy new            =    -704.9365425369 Ry

     CASE: enthalpy_new < enthalpy_old

     new trust radius        =       0.0293142528 bohr
     new conv_thr            =            1.0E-10 Ry

     new unit-cell volume =    729.25474 a.u.^3 (   108.06440 Ang^3 )
     density =      7.18154 g/cm^3

CELL_PARAMETERS (alat=  1.88972599)
   4.374636036  -2.526805204   0.000000000
  -4.374636036  -2.526805204   0.000000000
   0.000000000   0.000000000  -4.888088593

ATOMIC_POSITIONS (angstrom)
Ti       0.000000000  -5.057069800  -4.888088593
Ti       0.000001459  -1.681086241  -2.444044297
Nb      -1.455543553  -2.525901043  -4.888088593
Nb      -1.455540315  -4.212243017  -2.444044297
Nb       1.455543553  -2.525901043  -4.888088593
Nb       1.455543232  -4.212243017  -2.444044297


     NEW-OLD atomic charge density approx. for the potential

     Check: negative/imaginary core charge=   -0.000001    0.000000
     extrapolated charge   76.13285, renormalised to   76.00000

     total cpu time spent up to now is     3243.0 secs

     Self-consistent Calculation

     iteration #  1     ecut=    40.00 Ry     beta= 0.60
     Davidson diagonalization with overlap
     c_bands:  1 eigenvalues not converged
     ethr =  1.00E-06,  avg # of iterations =  4.6

     total cpu time spent up to now is     3293.2 secs

     total energy              =    -704.93661040 Ry
     Harris-Foulkes estimate   =    -704.75152488 Ry
     estimated scf accuracy    <       0.00089466 Ry

     iteration #  2     ecut=    40.00 Ry     beta= 0.60
     Davidson diagonalization with overlap
     c_bands:  1 eigenvalues not converged
     ethr =  1.18E-06,  avg # of iterations =  6.1

     total cpu time spent up to now is     3342.4 secs

     total energy              =    -704.93641485 Ry
     Harris-Foulkes estimate   =    -704.93956328 Ry
     estimated scf accuracy    <       0.02054763 Ry

     iteration #  3     ecut=    40.00 Ry     beta= 0.60
     Davidson diagonalization with overlap
     ethr =  1.18E-06,  avg # of iterations =  4.8

     total cpu time spent up to now is     3383.5 secs

     total energy              =    -704.93768456 Ry
     Harris-Foulkes estimate   =    -704.93790411 Ry
     estimated scf accuracy    <       0.00058462 Ry

     iteration #  4     ecut=    40.00 Ry     beta= 0.60
     Davidson diagonalization with overlap
     ethr =  7.69E-07,  avg # of iterations =  2.0

     total cpu time spent up to now is     3408.7 secs

     total energy              =    -704.93769818 Ry
     Harris-Foulkes estimate   =    -704.93775096 Ry
     estimated scf accuracy    <       0.00031779 Ry

     iteration #  5     ecut=    40.00 Ry     beta= 0.60
     Davidson diagonalization with overlap
     ethr =  4.18E-07,  avg # of iterations =  1.5

     total cpu time spent up to now is     3431.7 secs

     total energy              =    -704.93766975 Ry
     Harris-Foulkes estimate   =    -704.93770877 Ry
     estimated scf accuracy    <       0.00014837 Ry

     iteration #  6     ecut=    40.00 Ry     beta= 0.60
     Davidson diagonalization with overlap
     ethr =  1.95E-07,  avg # of iterations =  3.0

     total cpu time spent up to now is     3459.6 secs

     total energy              =    -704.93768735 Ry
     Harris-Foulkes estimate   =    -704.93768821 Ry
     estimated scf accuracy    <       0.00001122 Ry

     iteration #  7     ecut=    40.00 Ry     beta= 0.60
     Davidson diagonalization with overlap
     ethr =  1.48E-08,  avg # of iterations =  3.5

     total cpu time spent up to now is     3488.7 secs

     total energy              =    -704.93768792 Ry
     Harris-Foulkes estimate   =    -704.93768882 Ry
     estimated scf accuracy    <       0.00000522 Ry

     iteration #  8     ecut=    40.00 Ry     beta= 0.60
     Davidson diagonalization with overlap
     ethr =  6.87E-09,  avg # of iterations =  2.9

     total cpu time spent up to now is     3514.4 secs

     total energy              =    -704.93768823 Ry
     Harris-Foulkes estimate   =    -704.93768833 Ry
     estimated scf accuracy    <       0.00000058 Ry

     iteration #  9     ecut=    40.00 Ry     beta= 0.60
     Davidson diagonalization with overlap
     ethr =  7.58E-10,  avg # of iterations =  4.1

     total cpu time spent up to now is     3546.4 secs

     total energy              =    -704.93768821 Ry
     Harris-Foulkes estimate   =    -704.93768835 Ry
     estimated scf accuracy    <       0.00000034 Ry

     iteration # 10     ecut=    40.00 Ry     beta= 0.60
     Davidson diagonalization with overlap
     ethr =  4.46E-10,  avg # of iterations =  2.5

     total cpu time spent up to now is     3572.7 secs

     total energy              =    -704.93768823 Ry
     Harris-Foulkes estimate   =    -704.93768825 Ry
     estimated scf accuracy    <       0.00000003 Ry

     iteration # 11     ecut=    40.00 Ry     beta= 0.60
     Davidson diagonalization with overlap
     ethr =  3.45E-11,  avg # of iterations =  4.3

     total cpu time spent up to now is     3609.7 secs

     total energy              =    -704.93768824 Ry
     Harris-Foulkes estimate   =    -704.93768825 Ry
     estimated scf accuracy    <       0.00000002 Ry

     iteration # 12     ecut=    40.00 Ry     beta= 0.60
     Davidson diagonalization with overlap
     ethr =  2.04E-11,  avg # of iterations =  1.0

     total cpu time spent up to now is     3631.7 secs

     total energy              =    -704.93768824 Ry
     Harris-Foulkes estimate   =    -704.93768824 Ry
     estimated scf accuracy    <          6.5E-09 Ry

     iteration # 13     ecut=    40.00 Ry     beta= 0.60
     Davidson diagonalization with overlap
     ethr =  8.55E-12,  avg # of iterations =  3.1

     total cpu time spent up to now is     3659.1 secs

     total energy              =    -704.93768824 Ry
     Harris-Foulkes estimate   =    -704.93768824 Ry
     estimated scf accuracy    <          1.3E-10 Ry

     iteration # 14     ecut=    40.00 Ry     beta= 0.60
     Davidson diagonalization with overlap
     ethr =  1.68E-13,  avg # of iterations =  4.7

     total cpu time spent up to now is     3693.9 secs

     End of self-consistent calculation

     Number of k-points >= 100: set verbosity='high' to print the bands.

     the Fermi energy is    16.5152 ev

!    total energy              =    -704.93768824 Ry
     Harris-Foulkes estimate   =    -704.93768824 Ry
     estimated scf accuracy    <          8.4E-11 Ry

     The total energy is the sum of the following terms:

     one-electron contribution =    -150.23319336 Ry
     hartree contribution      =     109.67502004 Ry
     xc contribution           =    -102.75028982 Ry
     ewald contribution        =    -561.62607757 Ry
     smearing contrib. (-TS)   =      -0.00314753 Ry

     convergence has been achieved in  14 iterations

     Forces acting on atoms (cartesian axes, Ry/au):

     atom    1 type  2   force =     0.00000000   -0.00266985    0.00000000
     atom    2 type  2   force =     0.00000000    0.00268159    0.00000000
     atom    3 type  1   force =     0.00296775    0.00174903    0.00000000
     atom    4 type  1   force =     0.00296833   -0.00175490    0.00000000
     atom    5 type  1   force =    -0.00296775    0.00174903    0.00000000
     atom    6 type  1   force =    -0.00296833   -0.00175490    0.00000000

     Total force =     0.007863     Total SCF correction =     0.000016


     Computing stress (Cartesian axis) and pressure

          total   stress  (Ry/bohr**3)                   (kbar)     P=    7.78
  -0.00003511   0.00000000   0.00000000         -5.16      0.00      0.00
   0.00000000  -0.00003945   0.00000000          0.00     -5.80      0.00
   0.00000000   0.00000000   0.00023315          0.00      0.00     34.30


     number of scf cycles    =   4
     number of bfgs steps    =   3

     enthalpy old            =    -704.9365425369 Ry
     enthalpy new            =    -704.9376882434 Ry

     CASE: enthalpy_new < enthalpy_old


     WARNING: bfgs curvature condition failed, Theta= 0.895
     new trust radius        =       0.0437731105 bohr
     new conv_thr            =            1.0E-10 Ry

     new unit-cell volume =    729.57885 a.u.^3 (   108.11243 Ang^3 )
     density =      7.17835 g/cm^3

CELL_PARAMETERS (alat=  1.88972599)
   4.358197502  -2.517063143   0.000000000
  -4.358197502  -2.517063143   0.000000000
   0.000000000   0.000000000  -4.927705162

ATOMIC_POSITIONS (angstrom)
Ti       0.000000000  -5.039951787  -4.927705162
Ti       0.000001453  -1.672216928  -2.463852581
Nb      -1.447520405  -2.514743380  -4.927705162
Nb      -1.447516414  -4.197426095  -2.463852581
Nb       1.447520405  -2.514743380  -4.927705162
Nb       1.447519320  -4.197426095  -2.463852581


     NEW-OLD atomic charge density approx. for the potential

     Check: negative/imaginary core charge=   -0.000001    0.000000
     extrapolated charge   76.03287, renormalised to   76.00000

     total cpu time spent up to now is     3707.4 secs

     Self-consistent Calculation

     iteration #  1     ecut=    40.00 Ry     beta= 0.60
     Davidson diagonalization with overlap
     ethr =  1.00E-06,  avg # of iterations =  5.1

     total cpu time spent up to now is     3760.3 secs

     total energy              =    -704.93918145 Ry
     Harris-Foulkes estimate   =    -704.89310783 Ry
     estimated scf accuracy    <       0.00017514 Ry

     iteration #  2     ecut=    40.00 Ry     beta= 0.60
     Davidson diagonalization with overlap
     ethr =  2.30E-07,  avg # of iterations =  4.5

     total cpu time spent up to now is     3799.1 secs

     total energy              =    -704.93916820 Ry
     Harris-Foulkes estimate   =    -704.93929134 Ry
     estimated scf accuracy    <       0.00033299 Ry

     iteration #  3     ecut=    40.00 Ry     beta= 0.60
     Davidson diagonalization with overlap
     ethr =  2.30E-07,  avg # of iterations =  4.5

     total cpu time spent up to now is     3834.4 secs

     total energy              =    -704.93918922 Ry
     Harris-Foulkes estimate   =    -704.93931773 Ry
     estimated scf accuracy    <       0.00083081 Ry

     iteration #  4     ecut=    40.00 Ry     beta= 0.60
     Davidson diagonalization with overlap
     ethr =  2.30E-07,  avg # of iterations =  4.0

     total cpu time spent up to now is     3865.7 secs

     total energy              =    -704.93924815 Ry
     Harris-Foulkes estimate   =    -704.93924881 Ry
     estimated scf accuracy    <       0.00000294 Ry

     iteration #  5     ecut=    40.00 Ry     beta= 0.60
     Davidson diagonalization with overlap
     ethr =  3.86E-09,  avg # of iterations =  4.8

     total cpu time spent up to now is     3902.6 secs

     total energy              =    -704.93924783 Ry
     Harris-Foulkes estimate   =    -704.93925004 Ry
     estimated scf accuracy    <       0.00000925 Ry

     iteration #  6     ecut=    40.00 Ry     beta= 0.60
     Davidson diagonalization with overlap
     ethr =  3.86E-09,  avg # of iterations =  4.1

     total cpu time spent up to now is     3936.4 secs

     total energy              =    -704.93924842 Ry
     Harris-Foulkes estimate   =    -704.93925046 Ry
     estimated scf accuracy    <       0.00001722 Ry

     iteration #  7     ecut=    40.00 Ry     beta= 0.60
     Davidson diagonalization with overlap
     ethr =  3.86E-09,  avg # of iterations =  3.8

     total cpu time spent up to now is     3965.8 secs

     total energy              =    -704.93924932 Ry
     Harris-Foulkes estimate   =    -704.93924943 Ry
     estimated scf accuracy    <       0.00000036 Ry

     iteration #  8     ecut=    40.00 Ry     beta= 0.60
     Davidson diagonalization with overlap
     ethr =  4.78E-10,  avg # of iterations =  4.3

     total cpu time spent up to now is     3999.8 secs

     total energy              =    -704.93924934 Ry
     Harris-Foulkes estimate   =    -704.93924952 Ry
     estimated scf accuracy    <       0.00000101 Ry

     iteration #  9     ecut=    40.00 Ry     beta= 0.60
     Davidson diagonalization with overlap
     ethr =  4.78E-10,  avg # of iterations =  3.4

     total cpu time spent up to now is     4029.3 secs

     total energy              =    -704.93924942 Ry
     Harris-Foulkes estimate   =    -704.93924943 Ry
     estimated scf accuracy    <       0.00000002 Ry

     iteration # 10     ecut=    40.00 Ry     beta= 0.60
     Davidson diagonalization with overlap
     ethr =  2.37E-11,  avg # of iterations =  4.0

     total cpu time spent up to now is     4060.5 secs

     total energy              =    -704.93924943 Ry
     Harris-Foulkes estimate   =    -704.93924943 Ry
     estimated scf accuracy    <          2.1E-09 Ry

     iteration # 11     ecut=    40.00 Ry     beta= 0.60
     Davidson diagonalization with overlap
     ethr =  2.82E-12,  avg # of iterations =  3.9

     total cpu time spent up to now is     4090.1 secs

     total energy              =    -704.93924943 Ry
     Harris-Foulkes estimate   =    -704.93924943 Ry
     estimated scf accuracy    <          2.1E-10 Ry

     iteration # 12     ecut=    40.00 Ry     beta= 0.60
     Davidson diagonalization with overlap
     ethr =  2.80E-13,  avg # of iterations =  3.2

     total cpu time spent up to now is     4117.8 secs

     End of self-consistent calculation

     Number of k-points >= 100: set verbosity='high' to print the bands.

     the Fermi energy is    16.4974 ev

!    total energy              =    -704.93924943 Ry
     Harris-Foulkes estimate   =    -704.93924943 Ry
     estimated scf accuracy    <          1.2E-11 Ry

     The total energy is the sum of the following terms:

     one-electron contribution =    -150.46174226 Ry
     hartree contribution      =     109.76814822 Ry
     xc contribution           =    -102.75108733 Ry
     ewald contribution        =    -561.49134387 Ry
     smearing contrib. (-TS)   =      -0.00322417 Ry

     convergence has been achieved in  12 iterations

     Forces acting on atoms (cartesian axes, Ry/au):

     atom    1 type  2   force =     0.00000000   -0.00175790    0.00000000
     atom    2 type  2   force =     0.00000000    0.00177105    0.00000000
     atom    3 type  1   force =     0.00220432    0.00177443    0.00000000
     atom    4 type  1   force =     0.00220492   -0.00178101    0.00000000
     atom    5 type  1   force =    -0.00220432    0.00177443    0.00000000
     atom    6 type  1   force =    -0.00220492   -0.00178101    0.00000000

     Total force =     0.006189     Total SCF correction =     0.000003


     Computing stress (Cartesian axis) and pressure

          total   stress  (Ry/bohr**3)                   (kbar)     P=    5.96
  -0.00003189   0.00000000   0.00000000         -4.69      0.00      0.00
   0.00000000  -0.00004268   0.00000000          0.00     -6.28      0.00
   0.00000000   0.00000000   0.00019609          0.00      0.00     28.85


     number of scf cycles    =   5
     number of bfgs steps    =   4

     enthalpy old            =    -704.9376882434 Ry
     enthalpy new            =    -704.9392494277 Ry

     CASE: enthalpy_new < enthalpy_old

     new trust radius        =       0.0651462631 bohr
     new conv_thr            =            1.0E-10 Ry

     new unit-cell volume =    729.33282 a.u.^3 (   108.07597 Ang^3 )
     density =      7.18077 g/cm^3

CELL_PARAMETERS (alat=  1.88972599)
   4.332392128  -2.501040955   0.000000000
  -4.332392128  -2.501040955   0.000000000
   0.000000000   0.000000000  -4.987130015

ATOMIC_POSITIONS (angstrom)
Ti       0.000000000  -5.011053654  -4.987130015
Ti       0.000001445  -1.658373935  -2.493565007
Nb      -1.435346324  -2.496359318  -4.987130015
Nb      -1.435341061  -4.173091959  -2.493565007
Nb       1.435346324  -2.496359318  -4.987130015
Nb       1.435343951  -4.173091959  -2.493565007


     NEW-OLD atomic charge density approx. for the potential

     Check: negative/imaginary core charge=   -0.000001    0.000000
     extrapolated charge   75.97504, renormalised to   76.00000

     total cpu time spent up to now is     4131.2 secs

     Self-consistent Calculation

     iteration #  1     ecut=    40.00 Ry     beta= 0.60
     Davidson diagonalization with overlap
     ethr =  1.00E-06,  avg # of iterations =  6.8

     total cpu time spent up to now is     4189.3 secs

     total energy              =    -704.94078793 Ry
     Harris-Foulkes estimate   =    -704.97639050 Ry
     estimated scf accuracy    <       0.00072267 Ry

     iteration #  2     ecut=    40.00 Ry     beta= 0.60
     Davidson diagonalization with overlap
     ethr =  9.51E-07,  avg # of iterations =  5.2

     total cpu time spent up to now is     4233.5 secs

     total energy              =    -704.94002733 Ry
     Harris-Foulkes estimate   =    -704.94219855 Ry
     estimated scf accuracy    <       0.01279635 Ry

     iteration #  3     ecut=    40.00 Ry     beta= 0.60
     Davidson diagonalization with overlap
     ethr =  9.51E-07,  avg # of iterations =  4.8

     total cpu time spent up to now is     4273.6 secs

     total energy              =    -704.94111710 Ry
     Harris-Foulkes estimate   =    -704.94115360 Ry
     estimated scf accuracy    <       0.00014741 Ry

     iteration #  4     ecut=    40.00 Ry     beta= 0.60
     Davidson diagonalization with overlap
     ethr =  1.94E-07,  avg # of iterations =  2.1

     total cpu time spent up to now is     4298.7 secs

     total energy              =    -704.94113226 Ry
     Harris-Foulkes estimate   =    -704.94113419 Ry
     estimated scf accuracy    <       0.00000667 Ry

     iteration #  5     ecut=    40.00 Ry     beta= 0.60
     Davidson diagonalization with overlap
     ethr =  8.77E-09,  avg # of iterations =  4.7

     total cpu time spent up to now is     4334.2 secs

     total energy              =    -704.94113195 Ry
     Harris-Foulkes estimate   =    -704.94113736 Ry
     estimated scf accuracy    <       0.00002612 Ry

     iteration #  6     ecut=    40.00 Ry     beta= 0.60
     Davidson diagonalization with overlap
     ethr =  8.77E-09,  avg # of iterations =  4.1

     total cpu time spent up to now is     4367.2 secs

     total energy              =    -704.94113376 Ry
     Harris-Foulkes estimate   =    -704.94113762 Ry
     estimated scf accuracy    <       0.00003242 Ry

     iteration #  7     ecut=    40.00 Ry     beta= 0.60
     Davidson diagonalization with overlap
     ethr =  8.77E-09,  avg # of iterations =  3.7

     total cpu time spent up to now is     4395.1 secs

     total energy              =    -704.94113551 Ry
     Harris-Foulkes estimate   =    -704.94113557 Ry
     estimated scf accuracy    <       0.00000032 Ry

     iteration #  8     ecut=    40.00 Ry     beta= 0.60
     Davidson diagonalization with overlap
     ethr =  4.17E-10,  avg # of iterations =  4.4

     total cpu time spent up to now is     4428.5 secs

     total energy              =    -704.94113563 Ry
     Harris-Foulkes estimate   =    -704.94113564 Ry
     estimated scf accuracy    <       0.00000016 Ry

     iteration #  9     ecut=    40.00 Ry     beta= 0.60
     Davidson diagonalization with overlap
     ethr =  2.10E-10,  avg # of iterations =  1.9

     total cpu time spent up to now is     4451.6 secs

     total energy              =    -704.94113563 Ry
     Harris-Foulkes estimate   =    -704.94113564 Ry
     estimated scf accuracy    <       0.00000009 Ry

     iteration # 10     ecut=    40.00 Ry     beta= 0.60
     Davidson diagonalization with overlap
     ethr =  1.22E-10,  avg # of iterations =  1.6

     total cpu time spent up to now is     4474.3 secs

     total energy              =    -704.94113563 Ry
     Harris-Foulkes estimate   =    -704.94113563 Ry
     estimated scf accuracy    <       0.00000002 Ry

     iteration # 11     ecut=    40.00 Ry     beta= 0.60
     Davidson diagonalization with overlap
     ethr =  2.11E-11,  avg # of iterations =  4.1

     total cpu time spent up to now is     4505.8 secs

     total energy              =    -704.94113563 Ry
     Harris-Foulkes estimate   =    -704.94113563 Ry
     estimated scf accuracy    <          5.1E-09 Ry

     iteration # 12     ecut=    40.00 Ry     beta= 0.60
     Davidson diagonalization with overlap
     ethr =  6.71E-12,  avg # of iterations =  1.0

     total cpu time spent up to now is     4527.5 secs

     total energy              =    -704.94113563 Ry
     Harris-Foulkes estimate   =    -704.94113563 Ry
     estimated scf accuracy    <          1.3E-09 Ry

     iteration # 13     ecut=    40.00 Ry     beta= 0.60
     Davidson diagonalization with overlap
     ethr =  1.74E-12,  avg # of iterations =  3.9

     total cpu time spent up to now is     4557.4 secs

     total energy              =    -704.94113563 Ry
     Harris-Foulkes estimate   =    -704.94113563 Ry
     estimated scf accuracy    <          1.7E-10 Ry

     iteration # 14     ecut=    40.00 Ry     beta= 0.60
     Davidson diagonalization with overlap
     ethr =  2.24E-13,  avg # of iterations =  2.0

     total cpu time spent up to now is     4580.6 secs

     End of self-consistent calculation

     Number of k-points >= 100: set verbosity='high' to print the bands.

     the Fermi energy is    16.4900 ev

!    total energy              =    -704.94113563 Ry
     Harris-Foulkes estimate   =    -704.94113563 Ry
     estimated scf accuracy    <          4.0E-11 Ry

     The total energy is the sum of the following terms:

     one-electron contribution =    -150.64542323 Ry
     hartree contribution      =     109.88951656 Ry
     xc contribution           =    -102.76131424 Ry
     ewald contribution        =    -561.42066448 Ry
     smearing contrib. (-TS)   =      -0.00325024 Ry

     convergence has been achieved in  14 iterations

     Forces acting on atoms (cartesian axes, Ry/au):

     atom    1 type  2   force =     0.00000000   -0.00035393    0.00000000
     atom    2 type  2   force =     0.00000000    0.00036702    0.00000000
     atom    3 type  1   force =     0.00104229    0.00188495    0.00000000
     atom    4 type  1   force =     0.00104178   -0.00189149    0.00000000
     atom    5 type  1   force =    -0.00104229    0.00188495    0.00000000
     atom    6 type  1   force =    -0.00104178   -0.00189149    0.00000000

     Total force =     0.004343     Total SCF correction =     0.000008


     Computing stress (Cartesian axis) and pressure

          total   stress  (Ry/bohr**3)                   (kbar)     P=    4.86
  -0.00001631   0.00000000   0.00000000         -2.40      0.00      0.00
   0.00000000  -0.00003332   0.00000000          0.00     -4.90      0.00
   0.00000000   0.00000000   0.00014876          0.00      0.00     21.88


     number of scf cycles    =   6
     number of bfgs steps    =   5

     enthalpy old            =    -704.9392494277 Ry
     enthalpy new            =    -704.9411356323 Ry

     CASE: enthalpy_new < enthalpy_old

     new trust radius        =       0.0965387236 bohr
     new conv_thr            =            1.0E-10 Ry

     new unit-cell volume =    729.10205 a.u.^3 (   108.04178 Ang^3 )
     density =      7.18304 g/cm^3

CELL_PARAMETERS (alat=  1.88972599)
   4.295970450  -2.477171348   0.000000000
  -4.295970450  -2.477171348   0.000000000
   0.000000000   0.000000000  -5.076267294

ATOMIC_POSITIONS (angstrom)
Ti       0.000000000  -4.967002621  -5.076267294
Ti       0.000001432  -1.638747058  -2.538133647
Nb      -1.418537598  -2.468490360  -5.076267294
Nb      -1.418531404  -4.137321429  -2.538133647
Nb       1.418537598  -2.468490360  -5.076267294
Nb       1.418534269  -4.137321429  -2.538133647


     NEW-OLD atomic charge density approx. for the potential

     Check: negative/imaginary core charge=   -0.000001    0.000000
     extrapolated charge   75.97658, renormalised to   76.00000

     total cpu time spent up to now is     4593.7 secs

     Self-consistent Calculation

     iteration #  1     ecut=    40.00 Ry     beta= 0.60
     Davidson diagonalization with overlap
     c_bands:  1 eigenvalues not converged
     ethr =  1.00E-06,  avg # of iterations =  8.6

     total cpu time spent up to now is     4659.6 secs

     total energy              =    -704.94227059 Ry
     Harris-Foulkes estimate   =    -704.97616426 Ry
     estimated scf accuracy    <       0.00129025 Ry

     iteration #  2     ecut=    40.00 Ry     beta= 0.60
     Davidson diagonalization with overlap
     ethr =  1.70E-06,  avg # of iterations =  5.3

     total cpu time spent up to now is     4704.2 secs

     total energy              =    -704.94121802 Ry
     Harris-Foulkes estimate   =    -704.94396219 Ry
     estimated scf accuracy    <       0.01429071 Ry

     iteration #  3     ecut=    40.00 Ry     beta= 0.60
     Davidson diagonalization with overlap
     ethr =  1.70E-06,  avg # of iterations =  4.9

     total cpu time spent up to now is     4744.7 secs

     total energy              =    -704.94267742 Ry
     Harris-Foulkes estimate   =    -704.94281327 Ry
     estimated scf accuracy    <       0.00074229 Ry

     iteration #  4     ecut=    40.00 Ry     beta= 0.60
     Davidson diagonalization with overlap
     ethr =  9.77E-07,  avg # of iterations =  1.9

     total cpu time spent up to now is     4768.5 secs

     total energy              =    -704.94272646 Ry
     Harris-Foulkes estimate   =    -704.94273374 Ry
     estimated scf accuracy    <       0.00003539 Ry

     iteration #  5     ecut=    40.00 Ry     beta= 0.60
     Davidson diagonalization with overlap
     ethr =  4.66E-08,  avg # of iterations =  4.5

     total cpu time spent up to now is     4804.1 secs

     total energy              =    -704.94273828 Ry
     Harris-Foulkes estimate   =    -704.94275372 Ry
     estimated scf accuracy    <       0.00011515 Ry

     iteration #  6     ecut=    40.00 Ry     beta= 0.60
     Davidson diagonalization with overlap
     ethr =  4.66E-08,  avg # of iterations =  3.7

     total cpu time spent up to now is     4832.7 secs

     total energy              =    -704.94274391 Ry
     Harris-Foulkes estimate   =    -704.94274948 Ry
     estimated scf accuracy    <       0.00004695 Ry

     iteration #  7     ecut=    40.00 Ry     beta= 0.60
     Davidson diagonalization with overlap
     ethr =  4.66E-08,  avg # of iterations =  1.1

     total cpu time spent up to now is     4855.2 secs

     total energy              =    -704.94274472 Ry
     Harris-Foulkes estimate   =    -704.94274594 Ry
     estimated scf accuracy    <       0.00000743 Ry

     iteration #  8     ecut=    40.00 Ry     beta= 0.60
     Davidson diagonalization with overlap
     ethr =  9.77E-09,  avg # of iterations =  4.0

     total cpu time spent up to now is     4887.1 secs

     total energy              =    -704.94274620 Ry
     Harris-Foulkes estimate   =    -704.94274638 Ry
     estimated scf accuracy    <       0.00000211 Ry

     iteration #  9     ecut=    40.00 Ry     beta= 0.60
     Davidson diagonalization with overlap
     ethr =  2.78E-09,  avg # of iterations =  1.5

     total cpu time spent up to now is     4910.2 secs

     total energy              =    -704.94274616 Ry
     Harris-Foulkes estimate   =    -704.94274631 Ry
     estimated scf accuracy    <       0.00000141 Ry

     iteration # 10     ecut=    40.00 Ry     beta= 0.60
     Davidson diagonalization with overlap
     ethr =  1.86E-09,  avg # of iterations =  2.1

     total cpu time spent up to now is     4934.3 secs

     total energy              =    -704.94274619 Ry
     Harris-Foulkes estimate   =    -704.94274622 Ry
     estimated scf accuracy    <       0.00000030 Ry

     iteration # 11     ecut=    40.00 Ry     beta= 0.60
     Davidson diagonalization with overlap
     ethr =  3.92E-10,  avg # of iterations =  3.9

     total cpu time spent up to now is     4964.3 secs

     total energy              =    -704.94274622 Ry
     Harris-Foulkes estimate   =    -704.94274622 Ry
     estimated scf accuracy    <          6.7E-09 Ry

     iteration # 12     ecut=    40.00 Ry     beta= 0.60
     Davidson diagonalization with overlap
     ethr =  8.86E-12,  avg # of iterations =  4.3

     total cpu time spent up to now is     4998.4 secs

     total energy              =    -704.94274622 Ry
     Harris-Foulkes estimate   =    -704.94274622 Ry
     estimated scf accuracy    <          1.5E-09 Ry

     iteration # 13     ecut=    40.00 Ry     beta= 0.60
     Davidson diagonalization with overlap
     ethr =  2.01E-12,  avg # of iterations =  2.4

     total cpu time spent up to now is     5022.9 secs

     total energy              =    -704.94274622 Ry
     Harris-Foulkes estimate   =    -704.94274622 Ry
     estimated scf accuracy    <          3.0E-10 Ry

     iteration # 14     ecut=    40.00 Ry     beta= 0.60
     Davidson diagonalization with overlap
     ethr =  3.92E-13,  avg # of iterations =  4.0

     total cpu time spent up to now is     5055.6 secs

     total energy              =    -704.94274622 Ry
     Harris-Foulkes estimate   =    -704.94274622 Ry
     estimated scf accuracy    <          1.7E-10 Ry

     iteration # 15     ecut=    40.00 Ry     beta= 0.60
     Davidson diagonalization with overlap
     ethr =  2.29E-13,  avg # of iterations =  1.0

     total cpu time spent up to now is     5078.0 secs

     End of self-consistent calculation

     Number of k-points >= 100: set verbosity='high' to print the bands.

     the Fermi energy is    16.4793 ev

!    total energy              =    -704.94274622 Ry
     Harris-Foulkes estimate   =    -704.94274622 Ry
     estimated scf accuracy    <          1.5E-11 Ry

     The total energy is the sum of the following terms:

     one-electron contribution =    -151.20424829 Ry
     hartree contribution      =     110.20244870 Ry
     xc contribution           =    -102.78074440 Ry
     ewald contribution        =    -561.15703905 Ry
     smearing contrib. (-TS)   =      -0.00316319 Ry

     convergence has been achieved in  15 iterations

     Forces acting on atoms (cartesian axes, Ry/au):

     atom    1 type  2   force =     0.00000000    0.00182180    0.00000000
     atom    2 type  2   force =     0.00000000   -0.00181545    0.00000000
     atom    3 type  1   force =    -0.00087610    0.00190612    0.00000000
     atom    4 type  1   force =    -0.00087700   -0.00190930    0.00000000
     atom    5 type  1   force =     0.00087610    0.00190612    0.00000000
     atom    6 type  1   force =     0.00087700   -0.00190930    0.00000000

     Total force =     0.004924     Total SCF correction =     0.000005


     Computing stress (Cartesian axis) and pressure

          total   stress  (Ry/bohr**3)                   (kbar)     P=    3.62
   0.00001500  -0.00000000   0.00000000          2.21     -0.00      0.00
   0.00000000  -0.00000456   0.00000000          0.00     -0.67      0.00
   0.00000000   0.00000000   0.00006330          0.00      0.00      9.31


     number of scf cycles    =   7
     number of bfgs steps    =   6

     enthalpy old            =    -704.9411356323 Ry
     enthalpy new            =    -704.9427462246 Ry

     CASE: enthalpy_new < enthalpy_old

     new trust radius        =       0.0480654417 bohr
     new conv_thr            =            1.0E-10 Ry

     new unit-cell volume =    730.32803 a.u.^3 (   108.22345 Ang^3 )
     density =      7.17098 g/cm^3

CELL_PARAMETERS (alat=  1.88972599)
   4.282957725  -2.466919101   0.000000000
  -4.282957725  -2.466919101   0.000000000
   0.000000000   0.000000000  -5.121448027

ATOMIC_POSITIONS (angstrom)
Ti       0.000000000  -4.946862901  -5.121448027
Ti       0.000001428  -1.631533676  -2.560724013
Nb      -1.412857397  -2.455465501  -5.121448027
Nb      -1.412851349  -4.123013848  -2.560724013
Nb       1.412857397  -2.455465501  -5.121448027
Nb       1.412854206  -4.123013848  -2.560724013


     NEW-OLD atomic charge density approx. for the potential
     extrapolated charge   76.12420, renormalised to   76.00000

     total cpu time spent up to now is     5091.5 secs

     Self-consistent Calculation

     iteration #  1     ecut=    40.00 Ry     beta= 0.60
     Davidson diagonalization with overlap
     ethr =  1.00E-06,  avg # of iterations =  5.4

     total cpu time spent up to now is     5145.6 secs

[...]
     density =      7.30372 g/cm^3

CELL_PARAMETERS (alat=  1.88972599)
   4.842195450  -2.343734730   0.000000000
  -4.842195450  -2.343734730  -0.000000000
   0.000000000  -0.000000000  -4.681396271

ATOMIC_POSITIONS (angstrom)
Ti      -0.000000000  -4.296856277  -4.681396271
Ti       0.000001615  -1.953120996  -2.340698135
Nb      -1.659912860  -1.953109470  -4.681396271
Nb      -1.659910689  -4.296841987  -2.340698135
Nb       1.659912860  -1.953109470  -4.681396271
Nb       1.659913918  -4.296841987  -2.340698135


     NEW-OLD atomic charge density approx. for the potential
     extrapolated charge   75.99995, renormalised to   76.00000

     total cpu time spent up to now is    26756.1 secs

     Self-consistent Calculation

     iteration #  1     ecut=    40.00 Ry     beta= 0.60
     Davidson diagonalization with overlap
     ethr =  1.00E-06,  avg # of iterations =  1.1

     Threshold (ethr) on eigenvalues was too large:
     Diagonalizing with lowered threshold

     Davidson diagonalization with overlap
     ethr =  1.45E-13,  avg # of iterations =  3.8

     total cpu time spent up to now is    26821.3 secs

     total energy              =    -705.01856691 Ry
     Harris-Foulkes estimate   =    -705.01862899 Ry
     estimated scf accuracy    <          1.9E-10 Ry

     iteration #  2     ecut=    40.00 Ry     beta= 0.60
     Davidson diagonalization with overlap
     ethr =  2.46E-13,  avg # of iterations =  5.1

     total cpu time spent up to now is    26879.3 secs

     total energy              =    -705.01856691 Ry
     Harris-Foulkes estimate   =    -705.01856691 Ry
     estimated scf accuracy    <          5.1E-09 Ry

     iteration #  3     ecut=    40.00 Ry     beta= 0.60
     Davidson diagonalization with overlap
     ethr =  2.46E-13,  avg # of iterations =  4.8

     total cpu time spent up to now is    26927.1 secs

     total energy              =    -705.01856691 Ry
     Harris-Foulkes estimate   =    -705.01856691 Ry
     estimated scf accuracy    <          2.5E-10 Ry

     iteration #  4     ecut=    40.00 Ry     beta= 0.60
     Davidson diagonalization with overlap
     ethr =  2.46E-13,  avg # of iterations =  3.9

     total cpu time spent up to now is    26963.4 secs

     total energy              =    -705.01856691 Ry
     Harris-Foulkes estimate   =    -705.01856691 Ry
     estimated scf accuracy    <          2.9E-10 Ry

     iteration #  5     ecut=    40.00 Ry     beta= 0.60
     Davidson diagonalization with overlap
     ethr =  2.46E-13,  avg # of iterations =  1.4

     total cpu time spent up to now is    26991.1 secs

     total energy              =    -705.01856691 Ry
     Harris-Foulkes estimate   =    -705.01856691 Ry
     estimated scf accuracy    <          2.2E-11 Ry

     iteration #  6     ecut=    40.00 Ry     beta= 0.60
     Davidson diagonalization with overlap
     ethr =  1.00E-13,  avg # of iterations =  3.2

     total cpu time spent up to now is    27023.0 secs

     total energy              =    -705.01856691 Ry
     Harris-Foulkes estimate   =    -705.01856691 Ry
     estimated scf accuracy    <          1.8E-11 Ry

     iteration #  7     ecut=    40.00 Ry     beta= 0.60
     Davidson diagonalization with overlap
     ethr =  1.00E-13,  avg # of iterations =  1.0

     total cpu time spent up to now is    27050.0 secs

     total energy              =    -705.01856691 Ry
     Harris-Foulkes estimate   =    -705.01856691 Ry
     estimated scf accuracy    <          1.3E-11 Ry

     iteration #  8     ecut=    40.00 Ry     beta= 0.60
     Davidson diagonalization with overlap
     ethr =  1.00E-13,  avg # of iterations =  1.0

     total cpu time spent up to now is    27077.1 secs

     total energy              =    -705.01856691 Ry
     Harris-Foulkes estimate   =    -705.01856691 Ry
     estimated scf accuracy    <          8.7E-12 Ry

     iteration #  9     ecut=    40.00 Ry     beta= 0.60
     Davidson diagonalization with overlap
     ethr =  1.00E-13,  avg # of iterations =  1.0

     total cpu time spent up to now is    27104.2 secs

     total energy              =    -705.01856691 Ry
     Harris-Foulkes estimate   =    -705.01856691 Ry
     estimated scf accuracy    <          2.1E-12 Ry

     iteration # 10     ecut=    40.00 Ry     beta= 0.60
     Davidson diagonalization with overlap
     ethr =  1.00E-13,  avg # of iterations =  1.0

     total cpu time spent up to now is    27131.3 secs

     End of self-consistent calculation

     Number of k-points >= 100: set verbosity='high' to print the bands.

     the Fermi energy is    16.5163 ev

!    total energy              =    -705.01856691 Ry
     Harris-Foulkes estimate   =    -705.01856691 Ry
     estimated scf accuracy    <          2.8E-13 Ry

     The total energy is the sum of the following terms:

     one-electron contribution =    -146.63124670 Ry
     hartree contribution      =     108.81932703 Ry
     xc contribution           =    -102.87326780 Ry
     ewald contribution        =    -564.33043907 Ry
     smearing contrib. (-TS)   =      -0.00294038 Ry

     convergence has been achieved in  10 iterations

     Forces acting on atoms (cartesian axes, Ry/au):

     atom    1 type  2   force =     0.00000000    0.00000050   -0.00000000
     atom    2 type  2   force =    -0.00000000   -0.00000011    0.00000000
     atom    3 type  1   force =     0.00000004    0.00000023    0.00000000
     atom    4 type  1   force =    -0.00000008   -0.00000043   -0.00000000
     atom    5 type  1   force =    -0.00000004    0.00000023   -0.00000000
     atom    6 type  1   force =     0.00000008   -0.00000043    0.00000000

     Total force =     0.000001     Total SCF correction =     0.000001
     SCF correction compared to forces is large: reduce conv_thr to get better values


     Computing stress (Cartesian axis) and pressure

          total   stress  (Ry/bohr**3)                   (kbar)     P=    0.00
  -0.00000000   0.00000000  -0.00000000         -0.00      0.00     -0.00
   0.00000000   0.00000001   0.00000000          0.00      0.00      0.00
  -0.00000000   0.00000000   0.00000001         -0.00      0.00      0.00


     number of scf cycles    =  49
     number of bfgs steps    =  44

     enthalpy old            =    -705.0185669139 Ry
     enthalpy new            =    -705.0185669139 Ry

     CASE: enthalpy_new < enthalpy_old

     Message from routine bfgs:
     history already reset at previous step: stopping
     small trust_radius: resetting bfgs history

     new trust radius        =       0.0000013669 bohr
     new conv_thr            =            1.0E-12 Ry

     new unit-cell volume =    717.05563 a.u.^3 (   106.25668 Ang^3 )
     density =      7.30372 g/cm^3

CELL_PARAMETERS (alat=  1.88972599)
   4.842195047  -2.343735243   0.000000000
  -4.842195047  -2.343735243  -0.000000000
   0.000000000  -0.000000000  -4.681397466

ATOMIC_POSITIONS (angstrom)
Ti      -0.000000000  -4.296856951  -4.681397466
Ti       0.000001615  -1.953121481  -2.340698733
Nb      -1.659912700  -1.953109775  -4.681397466
Nb      -1.659910591  -4.296843153  -2.340698733
Nb       1.659912700  -1.953109775  -4.681397466
Nb       1.659913820  -4.296843153  -2.340698733


     NEW-OLD atomic charge density approx. for the potential
     extrapolated charge   76.00003, renormalised to   76.00000

     total cpu time spent up to now is    27147.4 secs

     Self-consistent Calculation

     iteration #  1     ecut=    40.00 Ry     beta= 0.60
     Davidson diagonalization with overlap
     ethr =  1.00E-06,  avg # of iterations =  1.0

     Threshold (ethr) on eigenvalues was too large:
     Diagonalizing with lowered threshold

     Davidson diagonalization with overlap
     ethr =  2.76E-14,  avg # of iterations =  3.1

     total cpu time spent up to now is    27217.2 secs

     total energy              =    -705.01856691 Ry
     Harris-Foulkes estimate   =    -705.01852710 Ry
     estimated scf accuracy    <          2.7E-11 Ry

     iteration #  2     ecut=    40.00 Ry     beta= 0.60
     Davidson diagonalization with overlap
     ethr =  1.00E-13,  avg # of iterations =  3.4

     total cpu time spent up to now is    27263.2 secs

     total energy              =    -705.01856691 Ry
     Harris-Foulkes estimate   =    -705.01856691 Ry
     estimated scf accuracy    <          6.0E-11 Ry

     iteration #  3     ecut=    40.00 Ry     beta= 0.60
     Davidson diagonalization with overlap
     ethr =  1.00E-13,  avg # of iterations =  3.0

     total cpu time spent up to now is    27294.9 secs

     total energy              =    -705.01856691 Ry
     Harris-Foulkes estimate   =    -705.01856691 Ry
     estimated scf accuracy    <          4.8E-11 Ry

     iteration #  4     ecut=    40.00 Ry     beta= 0.60
     Davidson diagonalization with overlap
     ethr =  1.00E-13,  avg # of iterations =  1.0

     total cpu time spent up to now is    27322.2 secs

     total energy              =    -705.01856691 Ry
     Harris-Foulkes estimate   =    -705.01856691 Ry
     estimated scf accuracy    <          9.6E-12 Ry

     iteration #  5     ecut=    40.00 Ry     beta= 0.60
     Davidson diagonalization with overlap
     ethr =  1.00E-13,  avg # of iterations =  1.0

     total cpu time spent up to now is    27349.5 secs

     total energy              =    -705.01856691 Ry
     Harris-Foulkes estimate   =    -705.01856691 Ry
     estimated scf accuracy    <          6.0E-12 Ry

     iteration #  6     ecut=    40.00 Ry     beta= 0.60
     Davidson diagonalization with overlap
     ethr =  1.00E-13,  avg # of iterations =  1.0

     total cpu time spent up to now is    27376.5 secs

     total energy              =    -705.01856691 Ry
     Harris-Foulkes estimate   =    -705.01856691 Ry
     estimated scf accuracy    <          3.5E-12 Ry

     iteration #  7     ecut=    40.00 Ry     beta= 0.60
     Davidson diagonalization with overlap
     ethr =  1.00E-13,  avg # of iterations =  1.0

     total cpu time spent up to now is    27403.7 secs

     End of self-consistent calculation

     Number of k-points >= 100: set verbosity='high' to print the bands.

     the Fermi energy is    16.5163 ev

!    total energy              =    -705.01856691 Ry
     Harris-Foulkes estimate   =    -705.01856691 Ry
     estimated scf accuracy    <          2.3E-13 Ry

     The total energy is the sum of the following terms:

     one-electron contribution =    -146.63136106 Ry
     hartree contribution      =     108.81936775 Ry
     xc contribution           =    -102.87326742 Ry
     ewald contribution        =    -564.33036581 Ry
     smearing contrib. (-TS)   =      -0.00294039 Ry

     convergence has been achieved in   7 iterations

     Forces acting on atoms (cartesian axes, Ry/au):

     atom    1 type  2   force =     0.00000000    0.00000045   -0.00000000
     atom    2 type  2   force =    -0.00000000   -0.00000013    0.00000000
     atom    3 type  1   force =    -0.00000012    0.00000021   -0.00000000
     atom    4 type  1   force =    -0.00000019   -0.00000037   -0.00000000
     atom    5 type  1   force =     0.00000012    0.00000021    0.00000000
     atom    6 type  1   force =     0.00000019   -0.00000037    0.00000000

     Total force =     0.000001     Total SCF correction =     0.000001
     SCF correction compared to forces is large: reduce conv_thr to get better values


     Computing stress (Cartesian axis) and pressure

          total   stress  (Ry/bohr**3)                   (kbar)     P=    0.00
   0.00000002  -0.00000000  -0.00000000          0.00     -0.00     -0.00
  -0.00000000   0.00000003   0.00000000         -0.00      0.00      0.00
  -0.00000000   0.00000000   0.00000003         -0.00      0.00      0.00


     bfgs converged in  50 scf cycles and  45 bfgs steps
     (criteria: energy <  1.0E-10 Ry, force <  1.0E-05Ry/Bohr, cell <  1.0E-03kbar)

     End of BFGS Geometry Optimization

     Final enthalpy =    -705.0185669140 Ry
Begin final coordinates
     new unit-cell volume =    717.05563 a.u.^3 (   106.25668 Ang^3 )
     density =      7.30372 g/cm^3

CELL_PARAMETERS (alat=  1.88972599)
   4.842195047  -2.343735243   0.000000000
  -4.842195047  -2.343735243  -0.000000000
   0.000000000  -0.000000000  -4.681397466

ATOMIC_POSITIONS (angstrom)
Ti      -0.000000000  -4.296856951  -4.681397466
Ti       0.000001615  -1.953121481  -2.340698733
Nb      -1.659912700  -1.953109775  -4.681397466
Nb      -1.659910591  -4.296843153  -2.340698733
Nb       1.659912700  -1.953109775  -4.681397466
Nb       1.659913820  -4.296843153  -2.340698733
End final coordinates



     A final scf calculation at the relaxed structure.
     The G-vectors are recalculated for the final unit cell
     Results may differ from those at the preceding step.
 
     Parallelization info
     --------------------
     sticks:   dense  smooth     PW     G-vecs:    dense   smooth      PW
     Min         646     258     77                24202     6119     995
     Max         647     259     78                24203     6120     997
     Sum        2587    1033    309                96811    24479    3983
 


     bravais-lattice index     =            0
     lattice parameter (alat)  =       1.8897  a.u.
     unit-cell volume          =     717.0556 (a.u.)^3
     number of atoms/cell      =            6
     number of atomic types    =            2
     number of electrons       =        76.00
     number of Kohn-Sham states=           46
     kinetic-energy cutoff     =      40.0000  Ry
     charge density cutoff     =     400.0000  Ry
     convergence threshold     =      1.0E-12
     mixing beta               =       0.6000
     number of iterations used =            8  plain     mixing
     Exchange-correlation      = SLA PW PBE PBE ( 1  4  3  4 0 0)

     celldm(1)=   1.889726  celldm(2)=   0.000000  celldm(3)=   0.000000
     celldm(4)=   0.000000  celldm(5)=   0.000000  celldm(6)=   0.000000

     crystal axes: (cart. coord. in units of alat)
               a(1) = (   4.842195  -2.343735   0.000000 )  
               a(2) = (  -4.842195  -2.343735  -0.000000 )  
               a(3) = (   0.000000  -0.000000  -4.681397 )  

     reciprocal axes: (cart. coord. in units 2 pi/alat)
               b(1) = (  0.103259 -0.213335  0.000000 )  
               b(2) = ( -0.103259 -0.213335 -0.000000 )  
               b(3) = (  0.000000 -0.000000 -0.213611 )  


     PseudoPot. # 1 for Nb read from file:
     ./Nb.pbe-nsp-van.UPF
     MD5 check sum: 0a22fc7fb0ba19a08ca5db297a5d2854
     Pseudo is Ultrasoft + core correction, Zval = 13.0
     Generated by new atomic code, or converted to UPF format
     Using radial grid of  887 points,  6 beta functions with: 
                l(1) =   0
                l(2) =   0
                l(3) =   1
                l(4) =   1
                l(5) =   2
                l(6) =   2
     Q(r) pseudized with  6 coefficients,  rinner =    1.000   1.000   1.000
                                                       1.000   1.000

     PseudoPot. # 2 for Ti read from file:
     ./Ti.pbe-sp-van_ak.UPF
     MD5 check sum: f98fea3e8887528921fefa5636a534ca
     Pseudo is Ultrasoft, Zval = 12.0
     Generated by new atomic code, or converted to UPF format
     Using radial grid of  851 points,  6 beta functions with: 
                l(1) =   0
                l(2) =   0
                l(3) =   1
                l(4) =   1
                l(5) =   2
                l(6) =   2
     Q(r) pseudized with  8 coefficients,  rinner =    1.000   1.000   1.000
                                                       1.000   1.000

     atomic species   valence    mass     pseudopotential
        Nb            13.00    92.90638     Nb( 1.00)
        Ti            12.00    47.86700     Ti( 1.00)

      4 Sym. Ops. (no inversion) found
          (note:  4 additional sym.ops. were found but ignored
           their fractional translations are incommensurate with FFT grid)


   Cartesian axes

     site n.     atom                  positions (alat units)
         1           Ti  tau(   1) = (  -0.0000000  -4.2968573  -4.6813978  )
         2           Ti  tau(   2) = (   0.0000016  -1.9531216  -2.3406989  )
         3           Nb  tau(   3) = (  -1.6599128  -1.9531099  -4.6813978  )
         4           Nb  tau(   4) = (  -1.6599107  -4.2968435  -2.3406989  )
         5           Nb  tau(   5) = (   1.6599128  -1.9531099  -4.6813978  )
         6           Nb  tau(   6) = (   1.6599139  -4.2968435  -2.3406989  )

     number of k points=   252  Marzari-Vanderbilt smearing, width (Ry)=  0.0200

     Number of k-points >= 100: set verbosity='high' to print them.

     Dense  grid:    96811 G-vectors     FFT dimensions: (  72,  72,  60)

     Smooth grid:    24479 G-vectors     FFT dimensions: (  45,  45,  36)

     Estimated max dynamical RAM per process >     230.28 MB

     Estimated total dynamical RAM >     921.12 MB

     Check: negative/imaginary core charge=   -0.000001    0.000000

     Initial potential from superposition of free atoms

     starting charge   73.98898, renormalised to   76.00000
     Starting wfcs are   72 randomized atomic wfcs
 
     init_run     :     31.14s CPU     31.83s WALL (       2 calls)
     electrons    :  26181.53s CPU  26692.31s WALL (      50 calls)
     update_pot   :     71.57s CPU     71.78s WALL (      49 calls)
     forces       :    174.97s CPU    180.28s WALL (      50 calls)
     stress       :    426.36s CPU    441.00s WALL (      50 calls)

     Called by init_run:
     wfcinit      :     28.71s CPU     29.25s WALL (       2 calls)
     potinit      :      0.66s CPU      0.68s WALL (       2 calls)
     hinit0       :      1.25s CPU      1.26s WALL (       2 calls)

     Called by electrons:
     c_bands      :  22855.14s CPU  23178.62s WALL (     782 calls)
     sum_band     :   3162.77s CPU   3277.89s WALL (     782 calls)
     v_of_rho     :     30.51s CPU     30.70s WALL (     824 calls)
     newd         :    137.01s CPU    210.55s WALL (     824 calls)
     mix_rho      :      4.06s CPU      4.10s WALL (     782 calls)

     Called by c_bands:
     init_us_2    :    319.38s CPU    319.46s WALL (  419832 calls)
     cegterg      :  21092.47s CPU  21374.46s WALL (  197064 calls)

     Called by sum_band:
     sum_band:bec :      9.92s CPU     10.47s WALL (  197064 calls)
     addusdens    :    168.37s CPU    233.21s WALL (     782 calls)

     Called by *egterg:
     h_psi        :  13201.11s CPU  13457.32s WALL (  892320 calls)
     s_psi        :    756.12s CPU    757.09s WALL (  892320 calls)
     g_psi        :    107.24s CPU    109.98s WALL (  694752 calls)
     cdiaghg      :   3959.79s CPU   3966.87s WALL (  877452 calls)

     Called by h_psi:
     h_psi:pot    :  13130.57s CPU  13384.64s WALL (  892320 calls)
     h_psi:calbec :    797.97s CPU    803.58s WALL (  892320 calls)
     vloc_psi     :  11557.06s CPU  11800.40s WALL (  892320 calls)
     add_vuspsi   :    770.94s CPU    774.83s WALL (  892320 calls)

     General routines
     calbec       :   1148.79s CPU   1156.17s WALL ( 1152384 calls)
     fft          :     21.58s CPU     21.92s WALL (   11971 calls)
     ffts         :      0.76s CPU      0.75s WALL (    1606 calls)
     fftw         :  12476.24s CPU  12667.78s WALL (57644708 calls)
     interpolate  :      1.71s CPU      1.73s WALL (     824 calls)
     davcio       :      0.00s CPU      0.10s WALL (     252 calls)
 
     Parallel routines
     fft_scatt_xy :   2121.94s CPU   2168.68s WALL (57658285 calls)
     fft_scatt_yz :   2713.49s CPU   2698.96s WALL (57658285 calls)
 
     PWSCF        :     7h28m CPU       28h 7m WALL

      37h
 
   This run was terminated on:  18:14:29  11Feb2020            

=------------------------------------------------------------------------------=
   JOB DONE.
=------------------------------------------------------------------------------=
