
     Program PWSCF v.6.0 (svn rev. 13079) starts on 25Apr2018 at 15:50:13 

     This program is part of the open-source Quantum ESPRESSO suite
     for quantum simulation of materials; please cite
         "P. Giannozzi et al., J. Phys.:Condens. Matter 21 395502 (2009);
          URL http://www.quantum-espresso.org", 
     in publications or presentations arising from this work. More details at
     http://www.quantum-espresso.org/quote

     Parallel version (MPI), running on     4 processors
     R & G space division:  proc/nbgrp/npool/nimage =       4
     Waiting for input...
     Reading input from standard input

     Current dimensions of program PWSCF are:
     Max number of different atomic species (ntypx) = 10
     Max number of k-points (npk) =  40000
     Max angular momentum in pseudopotentials (lmaxx) =  3

     Subspace diagonalization in iterative solution of the eigenvalue problem:
     a serial algorithm will be used


     Parallelization info
     --------------------
     sticks:   dense  smooth     PW     G-vecs:    dense   smooth      PW
     Min         228      91     30                 9112     2301     412
     Max         229      92     31                 9119     2304     414
     Sum         913     367    121                36455     9211    1653



     bravais-lattice index     =            0
     lattice parameter (alat)  =       1.8897  a.u.
     unit-cell volume          =     269.4476 (a.u.)^3
     number of atoms/cell      =            2
     number of atomic types    =            1
     number of electrons       =        26.00
     number of Kohn-Sham states=           17
     kinetic-energy cutoff     =      40.0000  Ry
     charge density cutoff     =     400.0000  Ry
     convergence threshold     =      1.0E-10
     mixing beta               =       0.6000
     number of iterations used =            8  plain     mixing
     Exchange-correlation      =  SLA  PW   PBE  PBE ( 1  4  3  4 0 0)
     nstep                     =           50


     celldm(1)=   1.889726  celldm(2)=   0.000000  celldm(3)=   0.000000
     celldm(4)=   0.000000  celldm(5)=   0.000000  celldm(6)=   0.000000

     crystal axes: (cart. coord. in units of alat)
               a(1) = (   3.045004   0.000000   0.000000 )  
               a(2) = (  -1.522502   2.637051   0.000000 )  
               a(3) = (   0.000000   0.000000   4.972461 )  

     reciprocal axes: (cart. coord. in units 2 pi/alat)
               b(1) = (  0.328407  0.189606 -0.000000 )  
               b(2) = (  0.000000  0.379211  0.000000 )  
               b(3) = (  0.000000 -0.000000  0.201108 )  


     PseudoPot. # 1 for Nb read from file:
     ./Nb.pbe-nsp-van.UPF
     MD5 check sum: 0a22fc7fb0ba19a08ca5db297a5d2854
     Pseudo is Ultrasoft + core correction, Zval = 13.0
     Generated by new atomic code, or converted to UPF format
     Using radial grid of  887 points,  6 beta functions with: 
                l(1) =   0
                l(2) =   0
                l(3) =   1
                l(4) =   1
                l(5) =   2
                l(6) =   2
     Q(r) pseudized with  6 coefficients,  rinner =    1.000   1.000   1.000
                                                       1.000   1.000

     atomic species   valence    mass     pseudopotential
        Nb            13.00    92.90638     Nb( 1.00)

     12 Sym. Ops. (no inversion) found
          (note: 12 additional sym.ops. were found but ignored
           their fractional translations are incommensurate with FFT grid)


   Cartesian axes

     site n.     atom                  positions (alat units)
         1           Nb  tau(   1) = (   1.5225021   2.6370512   4.9724614  )
         2           Nb  tau(   2) = (   1.5225036   0.8790162   2.4862307  )

     number of k points=   280  Marzari-Vanderbilt smearing, width (Ry)=  0.0200

     Number of k-points >= 100: set verbosity='high' to print them.

     Dense  grid:    36455 G-vectors     FFT dimensions: (  40,  40,  60)

     Smooth grid:     9211 G-vectors     FFT dimensions: (  24,  24,  40)

     Estimated max dynamical RAM per process >      27.07Mb

     Estimated total allocated dynamical RAM >     108.28Mb

     Check: negative/imaginary core charge=   -0.000001    0.000000

     Initial potential from superposition of free atoms

     starting charge   25.99453, renormalised to   26.00000
     Starting wfc are   26 randomized atomic wfcs

     total cpu time spent up to now is        3.1 secs

     per-process dynamical memory:    63.8 Mb

     Self-consistent Calculation

     iteration #  1     ecut=    40.00 Ry     beta=0.60
     Davidson diagonalization with overlap
     ethr =  1.00E-02,  avg # of iterations =  2.0

     Threshold (ethr) on eigenvalues was too large:
     Diagonalizing with lowered threshold

     Davidson diagonalization with overlap
     ethr =  7.75E-04,  avg # of iterations =  1.2

     total cpu time spent up to now is       11.9 secs

     total energy              =    -235.76766960 Ry
     Harris-Foulkes estimate   =    -235.88367239 Ry
     estimated scf accuracy    <       0.21060039 Ry

     iteration #  2     ecut=    40.00 Ry     beta=0.60
     Davidson diagonalization with overlap
     ethr =  8.10E-04,  avg # of iterations =  2.0

     total cpu time spent up to now is       17.1 secs

     total energy              =    -235.80627229 Ry
     Harris-Foulkes estimate   =    -235.80804691 Ry
     estimated scf accuracy    <       0.00536256 Ry

     iteration #  3     ecut=    40.00 Ry     beta=0.60
     Davidson diagonalization with overlap
     ethr =  2.06E-05,  avg # of iterations =  2.2

     total cpu time spent up to now is       22.3 secs

     total energy              =    -235.80691228 Ry
     Harris-Foulkes estimate   =    -235.80697819 Ry
     estimated scf accuracy    <       0.00067363 Ry

     iteration #  4     ecut=    40.00 Ry     beta=0.60
     Davidson diagonalization with overlap
     ethr =  2.59E-06,  avg # of iterations =  2.0

     total cpu time spent up to now is       26.7 secs

     total energy              =    -235.80691251 Ry
     Harris-Foulkes estimate   =    -235.80694894 Ry
     estimated scf accuracy    <       0.00019309 Ry

     iteration #  5     ecut=    40.00 Ry     beta=0.60
     Davidson diagonalization with overlap
     ethr =  7.43E-07,  avg # of iterations =  1.3

     total cpu time spent up to now is       30.8 secs

     total energy              =    -235.80693369 Ry
     Harris-Foulkes estimate   =    -235.80693501 Ry
     estimated scf accuracy    <       0.00000941 Ry

     iteration #  6     ecut=    40.00 Ry     beta=0.60
     Davidson diagonalization with overlap
     ethr =  3.62E-08,  avg # of iterations =  2.9

     total cpu time spent up to now is       35.7 secs

     total energy              =    -235.80693507 Ry
     Harris-Foulkes estimate   =    -235.80693511 Ry
     estimated scf accuracy    <       0.00000026 Ry

     iteration #  7     ecut=    40.00 Ry     beta=0.60
     Davidson diagonalization with overlap
     ethr =  1.01E-09,  avg # of iterations =  3.3

     total cpu time spent up to now is       41.3 secs

     total energy              =    -235.80693516 Ry
     Harris-Foulkes estimate   =    -235.80693516 Ry
     estimated scf accuracy    <       0.00000001 Ry

     iteration #  8     ecut=    40.00 Ry     beta=0.60
     Davidson diagonalization with overlap
     ethr =  4.64E-11,  avg # of iterations =  2.6

     total cpu time spent up to now is       48.2 secs

     total energy              =    -235.80693516 Ry
     Harris-Foulkes estimate   =    -235.80693516 Ry
     estimated scf accuracy    <          5.9E-10 Ry

     iteration #  9     ecut=    40.00 Ry     beta=0.60
     Davidson diagonalization with overlap
     ethr =  2.28E-12,  avg # of iterations =  3.3

     total cpu time spent up to now is       54.1 secs

     End of self-consistent calculation

     Number of k-points >= 100: set verbosity='high' to print the bands.

     the Fermi energy is    16.3208 ev

!    total energy              =    -235.80693516 Ry
     Harris-Foulkes estimate   =    -235.80693516 Ry
     estimated scf accuracy    <          2.8E-11 Ry

     The total energy is the sum of the following terms:

     one-electron contribution =     -41.17148064 Ry
     hartree contribution      =      32.46111243 Ry
     xc contribution           =     -36.67150649 Ry
     ewald contribution        =    -190.42516458 Ry
     smearing contrib. (-TS)   =       0.00010411 Ry

     convergence has been achieved in   9 iterations

     Forces acting on atoms (Ry/au):

     atom    1 type  1   force =     0.00000000    0.00000000    0.00000000
     atom    2 type  1   force =     0.00000000    0.00000000    0.00000000

     Total force =     0.000000     Total SCF correction =     0.000000


     entering subroutine stress ...

          total   stress  (Ry/bohr**3)                   (kbar)     P= -100.28
  -0.00085989   0.00000000   0.00000000       -126.49      0.00      0.00
   0.00000000  -0.00085989   0.00000000          0.00   -126.49      0.00
   0.00000000  -0.00000000  -0.00032537          0.00     -0.00    -47.86


     BFGS Geometry Optimization

     number of scf cycles    =   1
     number of bfgs steps    =   0

     enthalpy new            =    -235.8069351579 Ry

     new trust radius        =       0.0705745106 bohr
     new conv_thr            =            1.0E-10 Ry

     new unit-cell volume =    255.88887 a.u.^3 (    37.91882 Ang^3 )

CELL_PARAMETERS (alat=  1.88972599)
   2.979545114   0.000000000   0.000000000
  -1.489772557   2.580361946  -0.000000000
   0.000000000   0.000000000   4.932014027

ATOMIC_POSITIONS (angstrom)
Nb       1.489772557   2.580361946   4.932014027
Nb       1.489774047   0.860119789   2.466007014


     NEW-OLD atomic charge density approx. for the potential

     Check: negative/imaginary core charge=   -0.000001    0.000000
     extrapolated charge   24.62264, renormalised to   26.00000

     total cpu time spent up to now is       57.6 secs

     per-process dynamical memory:    92.7 Mb

     Self-consistent Calculation

     iteration #  1     ecut=    40.00 Ry     beta=0.60
     Davidson diagonalization with overlap
     ethr =  1.00E-06,  avg # of iterations =  6.7

     total cpu time spent up to now is       69.4 secs

     total energy              =    -235.62060691 Ry
     Harris-Foulkes estimate   =    -237.15713466 Ry
     estimated scf accuracy    <       0.15050125 Ry

     iteration #  2     ecut=    40.00 Ry     beta=0.60
     Davidson diagonalization with overlap
     ethr =  5.79E-04,  avg # of iterations =  3.2

     total cpu time spent up to now is       76.7 secs

     total energy              =    -235.81624247 Ry
     Harris-Foulkes estimate   =    -235.87530255 Ry
     estimated scf accuracy    <       0.13680711 Ry

     iteration #  3     ecut=    40.00 Ry     beta=0.60
     Davidson diagonalization with overlap
     ethr =  5.26E-04,  avg # of iterations =  1.5

     total cpu time spent up to now is       80.9 secs

     total energy              =    -235.81720567 Ry
     Harris-Foulkes estimate   =    -235.82460544 Ry
     estimated scf accuracy    <       0.02869706 Ry

     iteration #  4     ecut=    40.00 Ry     beta=0.60
     Davidson diagonalization with overlap
     ethr =  1.10E-04,  avg # of iterations =  2.1

     total cpu time spent up to now is       85.6 secs

     total energy              =    -235.81489094 Ry
     Harris-Foulkes estimate   =    -235.81913638 Ry
     estimated scf accuracy    <       0.01089887 Ry

     iteration #  5     ecut=    40.00 Ry     beta=0.60
     Davidson diagonalization with overlap
     ethr =  4.19E-05,  avg # of iterations =  1.6

     total cpu time spent up to now is       89.8 secs

     total energy              =    -235.81385795 Ry
     Harris-Foulkes estimate   =    -235.81548231 Ry
     estimated scf accuracy    <       0.00288138 Ry

     iteration #  6     ecut=    40.00 Ry     beta=0.60
     Davidson diagonalization with overlap
     ethr =  1.11E-05,  avg # of iterations =  2.5

     total cpu time spent up to now is       94.9 secs

     total energy              =    -235.81440716 Ry
     Harris-Foulkes estimate   =    -235.81443692 Ry
     estimated scf accuracy    <       0.00004979 Ry

     iteration #  7     ecut=    40.00 Ry     beta=0.60
     Davidson diagonalization with overlap
     ethr =  1.92E-07,  avg # of iterations =  3.0

     total cpu time spent up to now is      101.2 secs

     total energy              =    -235.81442793 Ry
     Harris-Foulkes estimate   =    -235.81442353 Ry
     estimated scf accuracy    <       0.00000186 Ry

     iteration #  8     ecut=    40.00 Ry     beta=0.60
     Davidson diagonalization with overlap
     ethr =  7.15E-09,  avg # of iterations =  3.3

     total cpu time spent up to now is      107.9 secs

     total energy              =    -235.81442117 Ry
     Harris-Foulkes estimate   =    -235.81443290 Ry
     estimated scf accuracy    <       0.00002323 Ry

     iteration #  9     ecut=    40.00 Ry     beta=0.60
     Davidson diagonalization with overlap
     ethr =  7.15E-09,  avg # of iterations =  3.0

     total cpu time spent up to now is      114.4 secs

     total energy              =    -235.81442326 Ry
     Harris-Foulkes estimate   =    -235.81442394 Ry
     estimated scf accuracy    <       0.00000140 Ry

     iteration # 10     ecut=    40.00 Ry     beta=0.60
     Davidson diagonalization with overlap
     ethr =  5.38E-09,  avg # of iterations =  2.1

     total cpu time spent up to now is      119.3 secs

     total energy              =    -235.81442350 Ry
     Harris-Foulkes estimate   =    -235.81442351 Ry
     estimated scf accuracy    <       0.00000007 Ry

     iteration # 11     ecut=    40.00 Ry     beta=0.60
     Davidson diagonalization with overlap
     ethr =  2.77E-10,  avg # of iterations =  2.1

     total cpu time spent up to now is      124.8 secs

     total energy              =    -235.81442351 Ry
     Harris-Foulkes estimate   =    -235.81442352 Ry
     estimated scf accuracy    <       0.00000004 Ry

     iteration # 12     ecut=    40.00 Ry     beta=0.60
     Davidson diagonalization with overlap
     ethr =  1.53E-10,  avg # of iterations =  1.1

     total cpu time spent up to now is      128.9 secs

     total energy              =    -235.81442350 Ry
     Harris-Foulkes estimate   =    -235.81442351 Ry
     estimated scf accuracy    <       0.00000002 Ry

     iteration # 13     ecut=    40.00 Ry     beta=0.60
     Davidson diagonalization with overlap
     ethr =  8.45E-11,  avg # of iterations =  2.0

     total cpu time spent up to now is      134.3 secs

     End of self-consistent calculation

     Number of k-points >= 100: set verbosity='high' to print the bands.

     the Fermi energy is    17.3265 ev

!    total energy              =    -235.81442351 Ry
     Harris-Foulkes estimate   =    -235.81442351 Ry
     estimated scf accuracy    <          2.2E-11 Ry

     The total energy is the sum of the following terms:

     one-electron contribution =     -36.48499457 Ry
     hartree contribution      =      31.17730985 Ry
     xc contribution           =     -36.78002526 Ry
     ewald contribution        =    -193.72690084 Ry
     smearing contrib. (-TS)   =       0.00018732 Ry

     convergence has been achieved in  13 iterations

     Forces acting on atoms (Ry/au):

     atom    1 type  1   force =     0.00000000   -0.00000000    0.00000000
     atom    2 type  1   force =     0.00000000    0.00000000    0.00000000

     Total force =     0.000000     Total SCF correction =     0.000000


     entering subroutine stress ...

          total   stress  (Ry/bohr**3)                   (kbar)     P=  -29.93
  -0.00040255  -0.00000000  -0.00000000        -59.22     -0.00     -0.00
   0.00000000  -0.00040255   0.00000000          0.00    -59.22      0.00
  -0.00000000   0.00000000   0.00019472         -0.00      0.00     28.64


     number of scf cycles    =   2
     number of bfgs steps    =   1

     enthalpy old            =    -235.8069351579 Ry
     enthalpy new            =    -235.8144235072 Ry

     CASE: enthalpy_new < enthalpy_old

     new trust radius        =       0.0642438853 bohr
     new conv_thr            =            1.0E-12 Ry

     new unit-cell volume =    247.24359 a.u.^3 (    36.63772 Ang^3 )

CELL_PARAMETERS (alat=  1.88972599)
   2.919714141  -0.000000000   0.000000000
  -1.459857070   2.528546807  -0.000000000
   0.000000000  -0.000000000   4.962690619

ATOMIC_POSITIONS (angstrom)
Nb       1.459857070   2.528546807   4.962690619
Nb       1.459858531   0.842848093   2.481345309


     NEW-OLD atomic charge density approx. for the potential

     Check: negative/imaginary core charge=   -0.000001    0.000000
     extrapolated charge   25.09106, renormalised to   26.00000

     total cpu time spent up to now is      137.9 secs

     per-process dynamical memory:    92.7 Mb

     Self-consistent Calculation

     iteration #  1     ecut=    40.00 Ry     beta=0.60
     Davidson diagonalization with overlap
     ethr =  1.00E-06,  avg # of iterations =  7.2

     total cpu time spent up to now is      150.8 secs

     total energy              =    -235.74102871 Ry
     Harris-Foulkes estimate   =    -236.63669654 Ry
     estimated scf accuracy    <       0.05795615 Ry

     iteration #  2     ecut=    40.00 Ry     beta=0.60
     Davidson diagonalization with overlap
     ethr =  2.23E-04,  avg # of iterations =  3.1

     total cpu time spent up to now is      158.1 secs

     total energy              =    -235.81802878 Ry
     Harris-Foulkes estimate   =    -235.84070392 Ry
     estimated scf accuracy    <       0.05238104 Ry

     iteration #  3     ecut=    40.00 Ry     beta=0.60
     Davidson diagonalization with overlap
     ethr =  2.01E-04,  avg # of iterations =  1.5

     total cpu time spent up to now is      162.3 secs

     total energy              =    -235.81747564 Ry
     Harris-Foulkes estimate   =    -235.82124798 Ry
     estimated scf accuracy    <       0.01095105 Ry

     iteration #  4     ecut=    40.00 Ry     beta=0.60
     Davidson diagonalization with overlap
     ethr =  4.21E-05,  avg # of iterations =  2.1

     total cpu time spent up to now is      167.1 secs

     total energy              =    -235.81626685 Ry
     Harris-Foulkes estimate   =    -235.81847379 Ry
     estimated scf accuracy    <       0.00269476 Ry

     iteration #  5     ecut=    40.00 Ry     beta=0.60
     Davidson diagonalization with overlap
     ethr =  1.04E-05,  avg # of iterations =  3.1

     total cpu time spent up to now is      174.0 secs

     total energy              =    -235.81738257 Ry
     Harris-Foulkes estimate   =    -235.81771186 Ry
     estimated scf accuracy    <       0.00096089 Ry

     iteration #  6     ecut=    40.00 Ry     beta=0.60
     Davidson diagonalization with overlap
     ethr =  3.70E-06,  avg # of iterations =  1.1

     total cpu time spent up to now is      178.4 secs

     total energy              =    -235.81727303 Ry
     Harris-Foulkes estimate   =    -235.81742159 Ry
     estimated scf accuracy    <       0.00033827 Ry

     iteration #  7     ecut=    40.00 Ry     beta=0.60
     Davidson diagonalization with overlap
     ethr =  1.30E-06,  avg # of iterations =  2.1

     total cpu time spent up to now is      183.8 secs

     total energy              =    -235.81729856 Ry
     Harris-Foulkes estimate   =    -235.81731081 Ry
     estimated scf accuracy    <       0.00003663 Ry

     iteration #  8     ecut=    40.00 Ry     beta=0.60
     Davidson diagonalization with overlap
     ethr =  1.41E-07,  avg # of iterations =  1.1

     total cpu time spent up to now is      189.6 secs

     total energy              =    -235.81729329 Ry
     Harris-Foulkes estimate   =    -235.81730031 Ry
     estimated scf accuracy    <       0.00001181 Ry

     iteration #  9     ecut=    40.00 Ry     beta=0.60
     Davidson diagonalization with overlap
     ethr =  4.54E-08,  avg # of iterations =  2.2

     total cpu time spent up to now is      195.8 secs

     total energy              =    -235.81729629 Ry
     Harris-Foulkes estimate   =    -235.81729635 Ry
     estimated scf accuracy    <       0.00000011 Ry

     iteration # 10     ecut=    40.00 Ry     beta=0.60
     Davidson diagonalization with overlap
     ethr =  4.11E-10,  avg # of iterations =  3.3

     total cpu time spent up to now is      205.8 secs

     total energy              =    -235.81729637 Ry
     Harris-Foulkes estimate   =    -235.81729637 Ry
     estimated scf accuracy    <       0.00000013 Ry

     iteration # 11     ecut=    40.00 Ry     beta=0.60
     Davidson diagonalization with overlap
     ethr =  4.11E-10,  avg # of iterations =  1.0

     total cpu time spent up to now is      210.6 secs

     total energy              =    -235.81729634 Ry
     Harris-Foulkes estimate   =    -235.81729637 Ry
     estimated scf accuracy    <       0.00000010 Ry

     iteration # 12     ecut=    40.00 Ry     beta=0.60
     Davidson diagonalization with overlap
     ethr =  3.76E-10,  avg # of iterations =  1.3

     total cpu time spent up to now is      215.4 secs

     total energy              =    -235.81729634 Ry
     Harris-Foulkes estimate   =    -235.81729635 Ry
     estimated scf accuracy    <       0.00000001 Ry

     iteration # 13     ecut=    40.00 Ry     beta=0.60
     Davidson diagonalization with overlap
     ethr =  5.33E-11,  avg # of iterations =  2.3

     total cpu time spent up to now is      221.4 secs

     total energy              =    -235.81729634 Ry
     Harris-Foulkes estimate   =    -235.81729634 Ry
     estimated scf accuracy    <          1.7E-09 Ry

     iteration # 14     ecut=    40.00 Ry     beta=0.60
     Davidson diagonalization with overlap
     ethr =  6.69E-12,  avg # of iterations =  2.0

     total cpu time spent up to now is      227.0 secs

     total energy              =    -235.81729634 Ry
     Harris-Foulkes estimate   =    -235.81729634 Ry
     estimated scf accuracy    <          1.5E-10 Ry

     iteration # 15     ecut=    40.00 Ry     beta=0.60
     Davidson diagonalization with overlap
     ethr =  5.85E-13,  avg # of iterations =  2.3

     total cpu time spent up to now is      233.2 secs

     total energy              =    -235.81729634 Ry
     Harris-Foulkes estimate   =    -235.81729634 Ry
     estimated scf accuracy    <          5.2E-12 Ry

     iteration # 16     ecut=    40.00 Ry     beta=0.60
     Davidson diagonalization with overlap
     ethr =  1.00E-13,  avg # of iterations =  1.1

     total cpu time spent up to now is      237.6 secs

     End of self-consistent calculation

     Number of k-points >= 100: set verbosity='high' to print the bands.

     the Fermi energy is    18.0136 ev

!    total energy              =    -235.81729634 Ry
     Harris-Foulkes estimate   =    -235.81729634 Ry
     estimated scf accuracy    <          3.9E-13 Ry

     The total energy is the sum of the following terms:

     one-electron contribution =     -33.40691579 Ry
     hartree contribution      =      30.36749301 Ry
     xc contribution           =     -36.85773490 Ry
     ewald contribution        =    -195.92036719 Ry
     smearing contrib. (-TS)   =       0.00022853 Ry

     convergence has been achieved in  16 iterations

     Forces acting on atoms (Ry/au):

     atom    1 type  1   force =    -0.00000000    0.00000000    0.00000000
     atom    2 type  1   force =     0.00000000    0.00000000    0.00000000

     Total force =     0.000000     Total SCF correction =     0.000000


     entering subroutine stress ...

          total   stress  (Ry/bohr**3)                   (kbar)     P=   25.00
  -0.00002759  -0.00000000  -0.00000000         -4.06     -0.00     -0.00
  -0.00000000  -0.00002759   0.00000000         -0.00     -4.06      0.00
  -0.00000000   0.00000000   0.00056508         -0.00      0.00     83.13


     number of scf cycles    =   3
     number of bfgs steps    =   2

     enthalpy old            =    -235.8144235072 Ry
     enthalpy new            =    -235.8172963430 Ry

     CASE: enthalpy_new < enthalpy_old

     new trust radius        =       0.0575155588 bohr
     new conv_thr            =            1.0E-12 Ry

     new unit-cell volume =    244.37990 a.u.^3 (    36.21336 Ang^3 )

CELL_PARAMETERS (alat=  1.88972599)
   2.876570381  -0.000000000   0.000000000
  -1.438285190   2.491183217  -0.000000000
  -0.000000000   0.000000000   5.053453868

ATOMIC_POSITIONS (angstrom)
Nb       1.438285190   2.491183217   5.053453868
Nb       1.438286629   0.830393575   2.526726934


     NEW-OLD atomic charge density approx. for the potential

     Check: negative/imaginary core charge=   -0.000001    0.000000
     extrapolated charge   25.69539, renormalised to   26.00000

     total cpu time spent up to now is      241.3 secs

     per-process dynamical memory:    92.7 Mb

     Self-consistent Calculation

     iteration #  1     ecut=    40.00 Ry     beta=0.60
     Davidson diagonalization with overlap
     ethr =  1.00E-06,  avg # of iterations =  7.0

     total cpu time spent up to now is      257.4 secs

     total energy              =    -235.81102222 Ry
     Harris-Foulkes estimate   =    -236.08782740 Ry
     estimated scf accuracy    <       0.00674689 Ry

     iteration #  2     ecut=    40.00 Ry     beta=0.60
     Davidson diagonalization with overlap
     ethr =  2.59E-05,  avg # of iterations =  3.1

     total cpu time spent up to now is      267.6 secs

     total energy              =    -235.81940412 Ry
     Harris-Foulkes estimate   =    -235.82190135 Ry
     estimated scf accuracy    <       0.00567087 Ry

     iteration #  3     ecut=    40.00 Ry     beta=0.60
     Davidson diagonalization with overlap
     ethr =  2.18E-05,  avg # of iterations =  1.7

     total cpu time spent up to now is      275.9 secs

     total energy              =    -235.81906160 Ry
     Harris-Foulkes estimate   =    -235.81978256 Ry
     estimated scf accuracy    <       0.00108174 Ry

     iteration #  4     ecut=    40.00 Ry     beta=0.60
     Davidson diagonalization with overlap
     ethr =  4.16E-06,  avg # of iterations =  2.3

     total cpu time spent up to now is      285.2 secs

     total energy              =    -235.81939134 Ry
     Harris-Foulkes estimate   =    -235.81938630 Ry
     estimated scf accuracy    <       0.00001386 Ry

     iteration #  5     ecut=    40.00 Ry     beta=0.60
     Davidson diagonalization with overlap
     ethr =  5.33E-08,  avg # of iterations =  2.4

     total cpu time spent up to now is      292.6 secs

     total energy              =    -235.81939126 Ry
     Harris-Foulkes estimate   =    -235.81939372 Ry
     estimated scf accuracy    <       0.00002615 Ry

     iteration #  6     ecut=    40.00 Ry     beta=0.60
     Davidson diagonalization with overlap
     ethr =  5.33E-08,  avg # of iterations =  1.0

     total cpu time spent up to now is      298.5 secs

     total energy              =    -235.81938243 Ry
     Harris-Foulkes estimate   =    -235.81939143 Ry
     estimated scf accuracy    <       0.00002054 Ry

     iteration #  7     ecut=    40.00 Ry     beta=0.60
     Davidson diagonalization with overlap
     ethr =  5.33E-08,  avg # of iterations =  2.0

     total cpu time spent up to now is      305.1 secs

     total energy              =    -235.81938246 Ry
     Harris-Foulkes estimate   =    -235.81938402 Ry
     estimated scf accuracy    <       0.00000300 Ry

     iteration #  8     ecut=    40.00 Ry     beta=0.60
     Davidson diagonalization with overlap
     ethr =  1.15E-08,  avg # of iterations =  2.1

     total cpu time spent up to now is      311.5 secs

     total energy              =    -235.81938285 Ry
     Harris-Foulkes estimate   =    -235.81938289 Ry
     estimated scf accuracy    <       0.00000007 Ry

     iteration #  9     ecut=    40.00 Ry     beta=0.60
     Davidson diagonalization with overlap
     ethr =  2.73E-10,  avg # of iterations =  2.9

     total cpu time spent up to now is      319.6 secs

     total energy              =    -235.81938288 Ry
     Harris-Foulkes estimate   =    -235.81938287 Ry
     estimated scf accuracy    <          1.0E-09 Ry

     iteration # 10     ecut=    40.00 Ry     beta=0.60
     Davidson diagonalization with overlap
     ethr =  3.97E-12,  avg # of iterations =  3.4

     total cpu time spent up to now is      329.1 secs

     total energy              =    -235.81938287 Ry
     Harris-Foulkes estimate   =    -235.81938288 Ry
     estimated scf accuracy    <          8.6E-09 Ry

     iteration # 11     ecut=    40.00 Ry     beta=0.60
     Davidson diagonalization with overlap
     ethr =  3.97E-12,  avg # of iterations =  3.0

     total cpu time spent up to now is      339.0 secs

     total energy              =    -235.81938287 Ry
     Harris-Foulkes estimate   =    -235.81938287 Ry
     estimated scf accuracy    <          1.5E-11 Ry

     iteration # 12     ecut=    40.00 Ry     beta=0.60
     Davidson diagonalization with overlap
     ethr =  1.00E-13,  avg # of iterations =  2.1

     total cpu time spent up to now is      345.9 secs

     total energy              =    -235.81938287 Ry
     Harris-Foulkes estimate   =    -235.81938287 Ry
     estimated scf accuracy    <          2.1E-11 Ry

     iteration # 13     ecut=    40.00 Ry     beta=0.60
     Davidson diagonalization with overlap
     ethr =  1.00E-13,  avg # of iterations =  2.0

     total cpu time spent up to now is      352.6 secs

     End of self-consistent calculation

     Number of k-points >= 100: set verbosity='high' to print the bands.

     the Fermi energy is    18.2404 ev

!    total energy              =    -235.81938287 Ry
     Harris-Foulkes estimate   =    -235.81938287 Ry
     estimated scf accuracy    <          2.0E-13 Ry

     The total energy is the sum of the following terms:

     one-electron contribution =     -32.54843953 Ry
     hartree contribution      =      30.19040370 Ry
     xc contribution           =     -36.88993307 Ry
     ewald contribution        =    -196.57168640 Ry
     smearing contrib. (-TS)   =       0.00027243 Ry

     convergence has been achieved in  13 iterations

     Forces acting on atoms (Ry/au):

     atom    1 type  1   force =     0.00000000    0.00000000   -0.00000000
     atom    2 type  1   force =     0.00000000    0.00000000    0.00000000

     Total force =     0.000000     Total SCF correction =     0.000000


     entering subroutine stress ...

          total   stress  (Ry/bohr**3)                   (kbar)     P=   45.11
   0.00017282   0.00000000  -0.00000000         25.42      0.00     -0.00
   0.00000000   0.00017282   0.00000000          0.00     25.42      0.00
  -0.00000000   0.00000000   0.00057438         -0.00      0.00     84.49


     number of scf cycles    =   4
     number of bfgs steps    =   3

     enthalpy old            =    -235.8172963430 Ry
     enthalpy new            =    -235.8193828729 Ry

     CASE: enthalpy_new < enthalpy_old

     new trust radius        =       0.1000439228 bohr
     new conv_thr            =            1.0E-12 Ry

     new unit-cell volume =    246.08963 a.u.^3 (    36.46672 Ang^3 )

CELL_PARAMETERS (alat=  1.88972599)
   2.841511453  -0.000000000   0.000000000
  -1.420755727   2.460821298  -0.000000000
  -0.000000000   0.000000000   5.215156200

ATOMIC_POSITIONS (angstrom)
Nb       1.420755727   2.460821298   5.215156200
Nb       1.420757148   0.820272946   2.607578100


     NEW-OLD atomic charge density approx. for the potential

     Check: negative/imaginary core charge=   -0.000001    0.000000
     extrapolated charge   26.18060, renormalised to   26.00000

     total cpu time spent up to now is      357.4 secs

     per-process dynamical memory:    92.7 Mb

     Self-consistent Calculation

     iteration #  1     ecut=    40.00 Ry     beta=0.60
     Davidson diagonalization with overlap
     ethr =  1.00E-06,  avg # of iterations =  7.5

     total cpu time spent up to now is      374.3 secs

     total energy              =    -235.81882479 Ry
     Harris-Foulkes estimate   =    -235.65692679 Ry
     estimated scf accuracy    <       0.00183930 Ry

     iteration #  2     ecut=    40.00 Ry     beta=0.60
     Davidson diagonalization with overlap
     ethr =  7.07E-06,  avg # of iterations =  3.0

     total cpu time spent up to now is      384.2 secs

     total energy              =    -235.82121925 Ry
     Harris-Foulkes estimate   =    -235.82200528 Ry
     estimated scf accuracy    <       0.00188165 Ry

     iteration #  3     ecut=    40.00 Ry     beta=0.60
     Davidson diagonalization with overlap
     ethr =  7.07E-06,  avg # of iterations =  1.4

     total cpu time spent up to now is      390.2 secs

     total energy              =    -235.82108872 Ry
     Harris-Foulkes estimate   =    -235.82133487 Ry
     estimated scf accuracy    <       0.00039872 Ry

     iteration #  4     ecut=    40.00 Ry     beta=0.60
     Davidson diagonalization with overlap
     ethr =  1.53E-06,  avg # of iterations =  2.2

     total cpu time spent up to now is      398.0 secs

     total energy              =    -235.82119188 Ry
     Harris-Foulkes estimate   =    -235.82119201 Ry
     estimated scf accuracy    <       0.00000127 Ry

     iteration #  5     ecut=    40.00 Ry     beta=0.60
     Davidson diagonalization with overlap
     ethr =  4.89E-09,  avg # of iterations =  3.4

     total cpu time spent up to now is      406.7 secs

     total energy              =    -235.82119217 Ry
     Harris-Foulkes estimate   =    -235.82119297 Ry
     estimated scf accuracy    <       0.00000394 Ry

     iteration #  6     ecut=    40.00 Ry     beta=0.60
     Davidson diagonalization with overlap
     ethr =  4.89E-09,  avg # of iterations =  2.2

     total cpu time spent up to now is      412.8 secs

     total energy              =    -235.82119261 Ry
     Harris-Foulkes estimate   =    -235.82119276 Ry
     estimated scf accuracy    <       0.00000113 Ry

     iteration #  7     ecut=    40.00 Ry     beta=0.60
     Davidson diagonalization with overlap
     ethr =  4.34E-09,  avg # of iterations =  1.0

     total cpu time spent up to now is      418.1 secs

     total energy              =    -235.82119269 Ry
     Harris-Foulkes estimate   =    -235.82119269 Ry
     estimated scf accuracy    <          4.5E-09 Ry

     iteration #  8     ecut=    40.00 Ry     beta=0.60
     Davidson diagonalization with overlap
     ethr =  1.74E-11,  avg # of iterations =  3.7

     total cpu time spent up to now is      426.1 secs

     total energy              =    -235.82119269 Ry
     Harris-Foulkes estimate   =    -235.82119269 Ry
     estimated scf accuracy    <          2.2E-09 Ry

     iteration #  9     ecut=    40.00 Ry     beta=0.60
     Davidson diagonalization with overlap
     ethr =  8.32E-12,  avg # of iterations =  1.0

     total cpu time spent up to now is      431.4 secs

     total energy              =    -235.82119269 Ry
     Harris-Foulkes estimate   =    -235.82119269 Ry
     estimated scf accuracy    <          2.7E-10 Ry

     iteration # 10     ecut=    40.00 Ry     beta=0.60
     Davidson diagonalization with overlap
     ethr =  1.05E-12,  avg # of iterations =  2.7

     total cpu time spent up to now is      439.3 secs

     total energy              =    -235.82119269 Ry
     Harris-Foulkes estimate   =    -235.82119269 Ry
     estimated scf accuracy    <          7.5E-11 Ry

     iteration # 11     ecut=    40.00 Ry     beta=0.60
     Davidson diagonalization with overlap
     ethr =  2.87E-13,  avg # of iterations =  2.0

     total cpu time spent up to now is      446.0 secs

     total energy              =    -235.82119269 Ry
     Harris-Foulkes estimate   =    -235.82119269 Ry
     estimated scf accuracy    <          2.2E-12 Ry

     iteration # 12     ecut=    40.00 Ry     beta=0.60
     Davidson diagonalization with overlap
     ethr =  1.00E-13,  avg # of iterations =  1.0

     total cpu time spent up to now is      452.0 secs

     End of self-consistent calculation

     Number of k-points >= 100: set verbosity='high' to print the bands.

     the Fermi energy is    18.0813 ev

!    total energy              =    -235.82119269 Ry
     Harris-Foulkes estimate   =    -235.82119269 Ry
     estimated scf accuracy    <          3.3E-14 Ry

     The total energy is the sum of the following terms:

     one-electron contribution =     -33.70065073 Ry
     hartree contribution      =      30.61669567 Ry
     xc contribution           =     -36.88735885 Ry
     ewald contribution        =    -195.84989862 Ry
     smearing contrib. (-TS)   =       0.00001983 Ry

     convergence has been achieved in  12 iterations

     Forces acting on atoms (Ry/au):

     atom    1 type  1   force =     0.00000000    0.00000000    0.00000000
     atom    2 type  1   force =     0.00000000    0.00000000    0.00000000

     Total force =     0.000000     Total SCF correction =     0.000000


     entering subroutine stress ...

          total   stress  (Ry/bohr**3)                   (kbar)     P=   35.60
   0.00025846  -0.00000000  -0.00000000         38.02     -0.00     -0.00
  -0.00000000   0.00025846   0.00000000         -0.00     38.02      0.00
  -0.00000000   0.00000000   0.00020903         -0.00      0.00     30.75


     number of scf cycles    =   5
     number of bfgs steps    =   4

     enthalpy old            =    -235.8193828729 Ry
     enthalpy new            =    -235.8211926927 Ry

     CASE: enthalpy_new < enthalpy_old

     new trust radius        =       0.0216528586 bohr
     new conv_thr            =            1.0E-12 Ry

     new unit-cell volume =    250.37269 a.u.^3 (    37.10140 Ang^3 )

CELL_PARAMETERS (alat=  1.88972599)
   2.861121923  -0.000000000   0.000000000
  -1.430560962   2.477804461  -0.000000000
  -0.000000000   0.000000000   5.233437605

ATOMIC_POSITIONS (angstrom)
Nb       1.430560962   2.477804461   5.233437605
Nb       1.430562393   0.825933994   2.616718803


     NEW-OLD atomic charge density approx. for the potential

     Check: negative/imaginary core charge=   -0.000001    0.000000
     extrapolated charge   26.44468, renormalised to   26.00000

     total cpu time spent up to now is      456.6 secs

     per-process dynamical memory:    92.7 Mb

     Self-consistent Calculation

     iteration #  1     ecut=    40.00 Ry     beta=0.60
     Davidson diagonalization with overlap
     ethr =  1.00E-06,  avg # of iterations =  4.2

     total cpu time spent up to now is      469.4 secs

     total energy              =    -235.80486095 Ry
     Harris-Foulkes estimate   =    -235.40314374 Ry
     estimated scf accuracy    <       0.01202743 Ry

     iteration #  2     ecut=    40.00 Ry     beta=0.60
     Davidson diagonalization with overlap
     ethr =  4.63E-05,  avg # of iterations =  3.0

     total cpu time spent up to now is      478.8 secs

     total energy              =    -235.82197636 Ry
     Harris-Foulkes estimate   =    -235.82732707 Ry
     estimated scf accuracy    <       0.01272370 Ry

     iteration #  3     ecut=    40.00 Ry     beta=0.60
     Davidson diagonalization with overlap
     ethr =  4.63E-05,  avg # of iterations =  1.6

     total cpu time spent up to now is      486.0 secs

     total energy              =    -235.82171236 Ry
     Harris-Foulkes estimate   =    -235.82277872 Ry
     estimated scf accuracy    <       0.00261749 Ry

     iteration #  4     ecut=    40.00 Ry     beta=0.60
     Davidson diagonalization with overlap
     ethr =  1.01E-05,  avg # of iterations =  2.1

     total cpu time spent up to now is      491.8 secs

     total energy              =    -235.82188503 Ry
     Harris-Foulkes estimate   =    -235.82198287 Ry
     estimated scf accuracy    <       0.00044296 Ry

     iteration #  5     ecut=    40.00 Ry     beta=0.60
     Davidson diagonalization with overlap
     ethr =  1.70E-06,  avg # of iterations =  1.8

     total cpu time spent up to now is      497.6 secs

     total energy              =    -235.82184899 Ry
     Harris-Foulkes estimate   =    -235.82189983 Ry
     estimated scf accuracy    <       0.00023225 Ry

     iteration #  6     ecut=    40.00 Ry     beta=0.60
     Davidson diagonalization with overlap
     ethr =  8.93E-07,  avg # of iterations =  1.0

     total cpu time spent up to now is      502.8 secs

     total energy              =    -235.82178151 Ry
     Harris-Foulkes estimate   =    -235.82185407 Ry
     estimated scf accuracy    <       0.00012346 Ry

     iteration #  7     ecut=    40.00 Ry     beta=0.60
     Davidson diagonalization with overlap
     ethr =  4.75E-07,  avg # of iterations =  2.2

     total cpu time spent up to now is      507.9 secs

     total energy              =    -235.82180094 Ry
     Harris-Foulkes estimate   =    -235.82180254 Ry
     estimated scf accuracy    <       0.00000212 Ry

     iteration #  8     ecut=    40.00 Ry     beta=0.60
     Davidson diagonalization with overlap
     ethr =  8.16E-09,  avg # of iterations =  3.1

     total cpu time spent up to now is      514.5 secs

     total energy              =    -235.82180240 Ry
     Harris-Foulkes estimate   =    -235.82180214 Ry
     estimated scf accuracy    <       0.00000033 Ry

     iteration #  9     ecut=    40.00 Ry     beta=0.60
     Davidson diagonalization with overlap
     ethr =  1.26E-09,  avg # of iterations =  2.0

     total cpu time spent up to now is      519.2 secs

     total energy              =    -235.82180179 Ry
     Harris-Foulkes estimate   =    -235.82180244 Ry
     estimated scf accuracy    <       0.00000102 Ry

     iteration # 10     ecut=    40.00 Ry     beta=0.60
     Davidson diagonalization with overlap
     ethr =  1.26E-09,  avg # of iterations =  3.0

     total cpu time spent up to now is      525.5 secs

     total energy              =    -235.82180201 Ry
     Harris-Foulkes estimate   =    -235.82180201 Ry
     estimated scf accuracy    <          1.0E-09 Ry

     iteration # 11     ecut=    40.00 Ry     beta=0.60
     Davidson diagonalization with overlap
     ethr =  4.02E-12,  avg # of iterations =  3.2

     total cpu time spent up to now is      532.0 secs

     total energy              =    -235.82180201 Ry
     Harris-Foulkes estimate   =    -235.82180201 Ry
     estimated scf accuracy    <          3.8E-10 Ry

     iteration # 12     ecut=    40.00 Ry     beta=0.60
     Davidson diagonalization with overlap
     ethr =  1.47E-12,  avg # of iterations =  2.0

     total cpu time spent up to now is      536.6 secs

     total energy              =    -235.82180201 Ry
     Harris-Foulkes estimate   =    -235.82180201 Ry
     estimated scf accuracy    <          2.7E-11 Ry

     iteration # 13     ecut=    40.00 Ry     beta=0.60
     Davidson diagonalization with overlap
     ethr =  1.04E-13,  avg # of iterations =  2.5

     total cpu time spent up to now is      542.3 secs

     End of self-consistent calculation

     Number of k-points >= 100: set verbosity='high' to print the bands.

     the Fermi energy is    17.7230 ev

!    total energy              =    -235.82180201 Ry
     Harris-Foulkes estimate   =    -235.82180201 Ry
     estimated scf accuracy    <          9.7E-13 Ry

     The total energy is the sum of the following terms:

     one-electron contribution =     -35.23661417 Ry
     hartree contribution      =      31.01416709 Ry
     xc contribution           =     -36.84721403 Ry
     ewald contribution        =    -194.75220752 Ry
     smearing contrib. (-TS)   =       0.00006663 Ry

     convergence has been achieved in  13 iterations

     Forces acting on atoms (Ry/au):

     atom    1 type  1   force =    -0.00000000   -0.00000000    0.00000000
     atom    2 type  1   force =     0.00000000    0.00000000   -0.00000000

     Total force =     0.000000     Total SCF correction =     0.000000


     entering subroutine stress ...

          total   stress  (Ry/bohr**3)                   (kbar)     P=    5.92
   0.00003694   0.00000000  -0.00000000          5.43      0.00     -0.00
   0.00000000   0.00003694   0.00000000          0.00      5.43      0.00
  -0.00000000   0.00000000   0.00004692         -0.00      0.00      6.90


     number of scf cycles    =   6
     number of bfgs steps    =   5

     enthalpy old            =    -235.8211926927 Ry
     enthalpy new            =    -235.8218020100 Ry

     CASE: enthalpy_new < enthalpy_old

     new trust radius        =       0.0066202046 bohr
     new conv_thr            =            1.0E-12 Ry

     new unit-cell volume =    251.28304 a.u.^3 (    37.23630 Ang^3 )

CELL_PARAMETERS (alat=  1.88972599)
   2.863325313  -0.000000000   0.000000000
  -1.431662657   2.479712652  -0.000000000
  -0.000000000   0.000000000   5.244385611

ATOMIC_POSITIONS (angstrom)
Nb       1.431662657   2.479712652   5.244385611
Nb       1.431664089   0.826570058   2.622192805


     NEW-OLD atomic charge density approx. for the potential

     Check: negative/imaginary core charge=   -0.000001    0.000000
     extrapolated charge   26.09417, renormalised to   26.00000

     total cpu time spent up to now is      545.8 secs

     per-process dynamical memory:    92.7 Mb

     Self-consistent Calculation

     iteration #  1     ecut=    40.00 Ry     beta=0.60
     Davidson diagonalization with overlap
     ethr =  1.00E-06,  avg # of iterations =  3.0

     total cpu time spent up to now is      552.6 secs

     total energy              =    -235.82104028 Ry
     Harris-Foulkes estimate   =    -235.73219965 Ry
     estimated scf accuracy    <       0.00055305 Ry

     iteration #  2     ecut=    40.00 Ry     beta=0.60
     Davidson diagonalization with overlap
     ethr =  2.13E-06,  avg # of iterations =  3.0

     total cpu time spent up to now is      559.7 secs

     total energy              =    -235.82183091 Ry
     Harris-Foulkes estimate   =    -235.82207800 Ry
     estimated scf accuracy    <       0.00058946 Ry

     iteration #  3     ecut=    40.00 Ry     beta=0.60
     Davidson diagonalization with overlap
     ethr =  2.13E-06,  avg # of iterations =  1.5

     total cpu time spent up to now is      563.9 secs

     total energy              =    -235.82181304 Ry
     Harris-Foulkes estimate   =    -235.82186743 Ry
     estimated scf accuracy    <       0.00012348 Ry

     iteration #  4     ecut=    40.00 Ry     beta=0.60
     Davidson diagonalization with overlap
     ethr =  4.75E-07,  avg # of iterations =  2.1

     total cpu time spent up to now is      568.6 secs

     total energy              =    -235.82182249 Ry
     Harris-Foulkes estimate   =    -235.82182810 Ry
     estimated scf accuracy    <       0.00001482 Ry

     iteration #  5     ecut=    40.00 Ry     beta=0.60
     Davidson diagonalization with overlap
     ethr =  5.70E-08,  avg # of iterations =  1.2

     total cpu time spent up to now is      572.7 secs

     total energy              =    -235.82182135 Ry
     Harris-Foulkes estimate   =    -235.82182329 Ry
     estimated scf accuracy    <       0.00000419 Ry

     iteration #  6     ecut=    40.00 Ry     beta=0.60
     Davidson diagonalization with overlap
     ethr =  1.61E-08,  avg # of iterations =  2.0

     total cpu time spent up to now is      577.5 secs

     total energy              =    -235.82182152 Ry
     Harris-Foulkes estimate   =    -235.82182192 Ry
     estimated scf accuracy    <       0.00000065 Ry

     iteration #  7     ecut=    40.00 Ry     beta=0.60
     Davidson diagonalization with overlap
     ethr =  2.49E-09,  avg # of iterations =  2.8

     total cpu time spent up to now is      583.7 secs

     total energy              =    -235.82182168 Ry
     Harris-Foulkes estimate   =    -235.82182180 Ry
     estimated scf accuracy    <       0.00000019 Ry

     iteration #  8     ecut=    40.00 Ry     beta=0.60
     Davidson diagonalization with overlap
     ethr =  7.32E-10,  avg # of iterations =  2.2

     total cpu time spent up to now is      589.0 secs

     total energy              =    -235.82182172 Ry
     Harris-Foulkes estimate   =    -235.82182172 Ry
     estimated scf accuracy    <          3.8E-09 Ry

     iteration #  9     ecut=    40.00 Ry     beta=0.60
     Davidson diagonalization with overlap
     ethr =  1.45E-11,  avg # of iterations =  2.3

     total cpu time spent up to now is      594.6 secs

     total energy              =    -235.82182172 Ry
     Harris-Foulkes estimate   =    -235.82182173 Ry
     estimated scf accuracy    <          1.9E-09 Ry

     iteration # 10     ecut=    40.00 Ry     beta=0.60
     Davidson diagonalization with overlap
     ethr =  7.16E-12,  avg # of iterations =  1.0

     total cpu time spent up to now is      598.6 secs

     total energy              =    -235.82182172 Ry
     Harris-Foulkes estimate   =    -235.82182172 Ry
     estimated scf accuracy    <          8.9E-10 Ry

     iteration # 11     ecut=    40.00 Ry     beta=0.60
     Davidson diagonalization with overlap
     ethr =  3.44E-12,  avg # of iterations =  2.0

     total cpu time spent up to now is      603.2 secs

     total energy              =    -235.82182172 Ry
     Harris-Foulkes estimate   =    -235.82182172 Ry
     estimated scf accuracy    <          6.4E-11 Ry

     iteration # 12     ecut=    40.00 Ry     beta=0.60
     Davidson diagonalization with overlap
     ethr =  2.48E-13,  avg # of iterations =  2.9

     total cpu time spent up to now is      610.0 secs

     total energy              =    -235.82182172 Ry
     Harris-Foulkes estimate   =    -235.82182172 Ry
     estimated scf accuracy    <          2.1E-11 Ry

     iteration # 13     ecut=    40.00 Ry     beta=0.60
     Davidson diagonalization with overlap
     ethr =  1.00E-13,  avg # of iterations =  2.0

     total cpu time spent up to now is      614.7 secs

     End of self-consistent calculation

     Number of k-points >= 100: set verbosity='high' to print the bands.

     the Fermi energy is    17.6480 ev

!    total energy              =    -235.82182172 Ry
     Harris-Foulkes estimate   =    -235.82182172 Ry
     estimated scf accuracy    <          1.4E-13 Ry

     The total energy is the sum of the following terms:

     one-electron contribution =     -35.58814004 Ry
     hartree contribution      =      31.11276020 Ry
     xc contribution           =     -36.83961399 Ry
     ewald contribution        =    -194.50688681 Ry
     smearing contrib. (-TS)   =       0.00005892 Ry

     convergence has been achieved in  13 iterations

     Forces acting on atoms (Ry/au):

     atom    1 type  1   force =     0.00000000    0.00000000   -0.00000000
     atom    2 type  1   force =    -0.00000000   -0.00000000    0.00000000

     Total force =     0.000000     Total SCF correction =     0.000000


     entering subroutine stress ...

          total   stress  (Ry/bohr**3)                   (kbar)     P=    0.13
   0.00000115   0.00000000  -0.00000000          0.17      0.00     -0.00
   0.00000000   0.00000115   0.00000000          0.00      0.17      0.00
  -0.00000000   0.00000000   0.00000038         -0.00      0.00      0.06


     number of scf cycles    =   7
     number of bfgs steps    =   6

     enthalpy old            =    -235.8218020100 Ry
     enthalpy new            =    -235.8218217246 Ry

     CASE: enthalpy_new < enthalpy_old

     new trust radius        =       0.0001462384 bohr
     new conv_thr            =            1.0E-12 Ry

     new unit-cell volume =    251.30236 a.u.^3 (    37.23917 Ang^3 )

CELL_PARAMETERS (alat=  1.88972599)
   2.863457388  -0.000000000   0.000000000
  -1.431728694   2.479827033  -0.000000000
  -0.000000000   0.000000000   5.244304964

ATOMIC_POSITIONS (angstrom)
Nb       1.431728694   2.479827033   5.244304964
Nb       1.431730126   0.826608184   2.622152482


     NEW-OLD atomic charge density approx. for the potential

     Check: negative/imaginary core charge=   -0.000001    0.000000
     extrapolated charge   26.00200, renormalised to   26.00000

     total cpu time spent up to now is      618.4 secs

     per-process dynamical memory:    92.7 Mb

     Self-consistent Calculation

     iteration #  1     ecut=    40.00 Ry     beta=0.60
     Davidson diagonalization with overlap
     ethr =  1.00E-06,  avg # of iterations =  2.0

     Threshold (ethr) on eigenvalues was too large:
     Diagonalizing with lowered threshold

     Davidson diagonalization with overlap
     ethr =  1.02E-09,  avg # of iterations =  1.0

     total cpu time spent up to now is      628.4 secs

     total energy              =    -235.82182138 Ry
     Harris-Foulkes estimate   =    -235.81991857 Ry
     estimated scf accuracy    <       0.00000027 Ry

     iteration #  2     ecut=    40.00 Ry     beta=0.60
     Davidson diagonalization with overlap
     ethr =  1.03E-09,  avg # of iterations =  3.0

     total cpu time spent up to now is      634.9 secs

     total energy              =    -235.82182174 Ry
     Harris-Foulkes estimate   =    -235.82182185 Ry
     estimated scf accuracy    <       0.00000026 Ry

     iteration #  3     ecut=    40.00 Ry     beta=0.60
     Davidson diagonalization with overlap
     ethr =  1.02E-09,  avg # of iterations =  1.4

     total cpu time spent up to now is      639.0 secs

     total energy              =    -235.82182174 Ry
     Harris-Foulkes estimate   =    -235.82182176 Ry
     estimated scf accuracy    <       0.00000005 Ry

     iteration #  4     ecut=    40.00 Ry     beta=0.60
     Davidson diagonalization with overlap
     ethr =  2.06E-10,  avg # of iterations =  2.1

     total cpu time spent up to now is      643.7 secs

     total energy              =    -235.82182174 Ry
     Harris-Foulkes estimate   =    -235.82182174 Ry
     estimated scf accuracy    <       0.00000001 Ry

     iteration #  5     ecut=    40.00 Ry     beta=0.60
     Davidson diagonalization with overlap
     ethr =  4.55E-11,  avg # of iterations =  1.4

     total cpu time spent up to now is      648.2 secs

     total energy              =    -235.82182173 Ry
     Harris-Foulkes estimate   =    -235.82182174 Ry
     estimated scf accuracy    <          6.5E-09 Ry

     iteration #  6     ecut=    40.00 Ry     beta=0.60
     Davidson diagonalization with overlap
     ethr =  2.50E-11,  avg # of iterations =  3.0

     total cpu time spent up to now is      655.2 secs

     total energy              =    -235.82182174 Ry
     Harris-Foulkes estimate   =    -235.82182174 Ry
     estimated scf accuracy    <          2.3E-09 Ry

     iteration #  7     ecut=    40.00 Ry     beta=0.60
     Davidson diagonalization with overlap
     ethr =  8.87E-12,  avg # of iterations =  2.1

     total cpu time spent up to now is      660.3 secs

     total energy              =    -235.82182174 Ry
     Harris-Foulkes estimate   =    -235.82182174 Ry
     estimated scf accuracy    <          1.9E-11 Ry

     iteration #  8     ecut=    40.00 Ry     beta=0.60
     Davidson diagonalization with overlap
     ethr =  1.00E-13,  avg # of iterations =  3.1

     total cpu time spent up to now is      666.9 secs

     total energy              =    -235.82182174 Ry
     Harris-Foulkes estimate   =    -235.82182174 Ry
     estimated scf accuracy    <          1.3E-11 Ry

     iteration #  9     ecut=    40.00 Ry     beta=0.60
     Davidson diagonalization with overlap
     ethr =  1.00E-13,  avg # of iterations =  2.0

     total cpu time spent up to now is      671.9 secs

     End of self-consistent calculation

     Number of k-points >= 100: set verbosity='high' to print the bands.

     the Fermi energy is    17.6464 ev

!    total energy              =    -235.82182174 Ry
     Harris-Foulkes estimate   =    -235.82182174 Ry
     estimated scf accuracy    <          4.5E-13 Ry

     The total energy is the sum of the following terms:

     one-electron contribution =     -35.59429906 Ry
     hartree contribution      =      31.11420396 Ry
     xc contribution           =     -36.83942124 Ry
     ewald contribution        =    -194.50236489 Ry
     smearing contrib. (-TS)   =       0.00005948 Ry

     convergence has been achieved in   9 iterations

     Forces acting on atoms (Ry/au):

     atom    1 type  1   force =     0.00000000    0.00000000   -0.00000000
     atom    2 type  1   force =    -0.00000000   -0.00000000    0.00000000

     Total force =     0.000000     Total SCF correction =     0.000000


     entering subroutine stress ...

          total   stress  (Ry/bohr**3)                   (kbar)     P=    0.00
   0.00000003  -0.00000000  -0.00000000          0.00     -0.00     -0.00
   0.00000000   0.00000003   0.00000000          0.00      0.00      0.00
  -0.00000000   0.00000000   0.00000003         -0.00      0.00      0.00


     number of scf cycles    =   8
     number of bfgs steps    =   7

     enthalpy old            =    -235.8218217246 Ry
     enthalpy new            =    -235.8218217374 Ry

     CASE: enthalpy_new < enthalpy_old

     small trust_radius: resetting bfgs history

     new trust radius        =       0.0000026164 bohr
     new conv_thr            =            1.0E-12 Ry

     new unit-cell volume =    251.30294 a.u.^3 (    37.23925 Ang^3 )

CELL_PARAMETERS (alat=  1.88972599)
   2.863459524  -0.000000000   0.000000000
  -1.431729762   2.479828883  -0.000000000
  -0.000000000   0.000000000   5.244309292

ATOMIC_POSITIONS (angstrom)
Nb       1.431729762   2.479828883   5.244309292
Nb       1.431731194   0.826608801   2.622154646


     NEW-OLD atomic charge density approx. for the potential

     Check: negative/imaginary core charge=   -0.000001    0.000000
     extrapolated charge   26.00006, renormalised to   26.00000

     total cpu time spent up to now is      675.6 secs

     per-process dynamical memory:    92.7 Mb

     Self-consistent Calculation

     iteration #  1     ecut=    40.00 Ry     beta=0.60
     Davidson diagonalization with overlap
     ethr =  1.00E-06,  avg # of iterations =  2.0

     Threshold (ethr) on eigenvalues was too large:
     Diagonalizing with lowered threshold

     Davidson diagonalization with overlap
     ethr =  9.29E-13,  avg # of iterations =  1.4

     total cpu time spent up to now is      684.1 secs

     total energy              =    -235.82182174 Ry
     Harris-Foulkes estimate   =    -235.82176437 Ry
     estimated scf accuracy    <          2.3E-10 Ry

     iteration #  2     ecut=    40.00 Ry     beta=0.60
     Davidson diagonalization with overlap
     ethr =  8.99E-13,  avg # of iterations =  3.0

     total cpu time spent up to now is      690.7 secs

     total energy              =    -235.82182174 Ry
     Harris-Foulkes estimate   =    -235.82182174 Ry
     estimated scf accuracy    <          3.1E-10 Ry

     iteration #  3     ecut=    40.00 Ry     beta=0.60
     Davidson diagonalization with overlap
     ethr =  8.99E-13,  avg # of iterations =  2.2

     total cpu time spent up to now is      695.7 secs

     total energy              =    -235.82182174 Ry
     Harris-Foulkes estimate   =    -235.82182174 Ry
     estimated scf accuracy    <          5.7E-10 Ry

     iteration #  4     ecut=    40.00 Ry     beta=0.60
     Davidson diagonalization with overlap
     ethr =  8.99E-13,  avg # of iterations =  1.2

     total cpu time spent up to now is      700.0 secs

     total energy              =    -235.82182174 Ry
     Harris-Foulkes estimate   =    -235.82182174 Ry
     estimated scf accuracy    <          3.5E-11 Ry

     iteration #  5     ecut=    40.00 Ry     beta=0.60
     Davidson diagonalization with overlap
     ethr =  1.35E-13,  avg # of iterations =  2.0

     total cpu time spent up to now is      704.5 secs

     total energy              =    -235.82182174 Ry
     Harris-Foulkes estimate   =    -235.82182174 Ry
     estimated scf accuracy    <          8.0E-12 Ry

     iteration #  6     ecut=    40.00 Ry     beta=0.60
     Davidson diagonalization with overlap
     ethr =  1.00E-13,  avg # of iterations =  1.0

     total cpu time spent up to now is      708.6 secs

     total energy              =    -235.82182174 Ry
     Harris-Foulkes estimate   =    -235.82182174 Ry
     estimated scf accuracy    <          1.5E-12 Ry

     iteration #  7     ecut=    40.00 Ry     beta=0.60
     Davidson diagonalization with overlap
     ethr =  1.00E-13,  avg # of iterations =  1.0

     total cpu time spent up to now is      715.7 secs

     End of self-consistent calculation

     Number of k-points >= 100: set verbosity='high' to print the bands.

     the Fermi energy is    17.6464 ev

!    total energy              =    -235.82182174 Ry
     Harris-Foulkes estimate   =    -235.82182174 Ry
     estimated scf accuracy    <          3.8E-13 Ry

     The total energy is the sum of the following terms:

     one-electron contribution =     -35.59451325 Ry
     hartree contribution      =      31.11426240 Ry
     xc contribution           =     -36.83941631 Ry
     ewald contribution        =    -194.50221406 Ry
     smearing contrib. (-TS)   =       0.00005949 Ry

     convergence has been achieved in   7 iterations

     Forces acting on atoms (Ry/au):

     atom    1 type  1   force =     0.00000000    0.00000000    0.00000000
     atom    2 type  1   force =    -0.00000000   -0.00000000    0.00000000

     Total force =     0.000000     Total SCF correction =     0.000000


     entering subroutine stress ...

          total   stress  (Ry/bohr**3)                   (kbar)     P=    0.00
   0.00000001  -0.00000000  -0.00000000          0.00     -0.00     -0.00
   0.00000000   0.00000001   0.00000000          0.00      0.00      0.00
  -0.00000000   0.00000000   0.00000002         -0.00      0.00      0.00


     number of scf cycles    =   9
     number of bfgs steps    =   8

     enthalpy old            =    -235.8218217374 Ry
     enthalpy new            =    -235.8218217374 Ry

     CASE: enthalpy_new < enthalpy_old

     Message from routine bfgs:
     history already reset at previous step: stopping
     small trust_radius: resetting bfgs history

     new trust radius        =       0.0000012075 bohr
     new conv_thr            =            1.0E-12 Ry

     new unit-cell volume =    251.30314 a.u.^3 (    37.23928 Ang^3 )

CELL_PARAMETERS (alat=  1.88972599)
   2.863460145  -0.000000000   0.000000000
  -1.431730072   2.479829420  -0.000000000
  -0.000000000   0.000000000   5.244311289

ATOMIC_POSITIONS (angstrom)
Nb       1.431730072   2.479829420   5.244311289
Nb       1.431731505   0.826608980   2.622155645


     NEW-OLD atomic charge density approx. for the potential

     Check: negative/imaginary core charge=   -0.000001    0.000000
     extrapolated charge   26.00002, renormalised to   26.00000

     total cpu time spent up to now is      720.7 secs

     per-process dynamical memory:    92.7 Mb

     Self-consistent Calculation

     iteration #  1     ecut=    40.00 Ry     beta=0.60
     Davidson diagonalization with overlap
     ethr =  1.00E-06,  avg # of iterations =  1.0

     Threshold (ethr) on eigenvalues was too large:
     Diagonalizing with lowered threshold

     Davidson diagonalization with overlap
     ethr =  1.37E-13,  avg # of iterations =  1.7

     total cpu time spent up to now is      739.0 secs

     total energy              =    -235.82182174 Ry
     Harris-Foulkes estimate   =    -235.82180158 Ry
     estimated scf accuracy    <          3.5E-11 Ry

     iteration #  2     ecut=    40.00 Ry     beta=0.60
     Davidson diagonalization with overlap
     ethr =  1.36E-13,  avg # of iterations =  3.0

     total cpu time spent up to now is      747.4 secs

     total energy              =    -235.82182174 Ry
     Harris-Foulkes estimate   =    -235.82182174 Ry
     estimated scf accuracy    <          1.3E-10 Ry

     iteration #  3     ecut=    40.00 Ry     beta=0.60
     Davidson diagonalization with overlap
     ethr =  1.36E-13,  avg # of iterations =  3.0

     total cpu time spent up to now is      754.2 secs

     total energy              =    -235.82182174 Ry
     Harris-Foulkes estimate   =    -235.82182174 Ry
     estimated scf accuracy    <          2.1E-10 Ry

     iteration #  4     ecut=    40.00 Ry     beta=0.60
     Davidson diagonalization with overlap
     ethr =  1.36E-13,  avg # of iterations =  2.1

     total cpu time spent up to now is      759.2 secs

     total energy              =    -235.82182174 Ry
     Harris-Foulkes estimate   =    -235.82182174 Ry
     estimated scf accuracy    <          4.0E-12 Ry

     iteration #  5     ecut=    40.00 Ry     beta=0.60
     Davidson diagonalization with overlap
     ethr =  1.00E-13,  avg # of iterations =  1.0

     total cpu time spent up to now is      765.9 secs

     End of self-consistent calculation

     Number of k-points >= 100: set verbosity='high' to print the bands.

     the Fermi energy is    17.6464 ev

!    total energy              =    -235.82182174 Ry
     Harris-Foulkes estimate   =    -235.82182174 Ry
     estimated scf accuracy    <          5.0E-13 Ry

     The total energy is the sum of the following terms:

     one-electron contribution =     -35.59459063 Ry
     hartree contribution      =      31.11428411 Ry
     xc contribution           =     -36.83941466 Ry
     ewald contribution        =    -194.50216004 Ry
     smearing contrib. (-TS)   =       0.00005948 Ry

     convergence has been achieved in   5 iterations

     Forces acting on atoms (Ry/au):

     atom    1 type  1   force =    -0.00000000   -0.00000000    0.00000000
     atom    2 type  1   force =     0.00000000    0.00000000   -0.00000000

     Total force =     0.000000     Total SCF correction =     0.000000


     entering subroutine stress ...

          total   stress  (Ry/bohr**3)                   (kbar)     P=    0.00
   0.00000000  -0.00000000  -0.00000000          0.00     -0.00     -0.00
  -0.00000000   0.00000000   0.00000000         -0.00      0.00      0.00
   0.00000000  -0.00000000   0.00000001          0.00     -0.00      0.00


     bfgs converged in  10 scf cycles and   9 bfgs steps
     (criteria: energy <  1.0E-10, force <  1.0E-05, cell <  1.0E-03)

     End of BFGS Geometry Optimization

     Final enthalpy =    -235.8218217373 Ry
Begin final coordinates
     new unit-cell volume =    251.30314 a.u.^3 (    37.23928 Ang^3 )

CELL_PARAMETERS (alat=  1.88972599)
   2.863460145  -0.000000000   0.000000000
  -1.431730072   2.479829420  -0.000000000
  -0.000000000   0.000000000   5.244311289

ATOMIC_POSITIONS (angstrom)
Nb       1.431730072   2.479829420   5.244311289
Nb       1.431731505   0.826608980   2.622155645
End final coordinates



     A final scf calculation at the relaxed structure.
     The G-vectors are recalculated for the final unit cell
     Results may differ from those at the preceding step.

   Info: using nr1, nr2, nr3 values from input

   Info: using nr1, nr2, nr3 values from input

     Parallelization info
     --------------------
     sticks:   dense  smooth     PW     G-vecs:    dense   smooth      PW
     Min         201      78     27                 8433     2126     385
     Max         202      79     28                 8440     2133     388
     Sum         805     313    109                33743     8511    1547



     bravais-lattice index     =            0
     lattice parameter (alat)  =       1.8897  a.u.
     unit-cell volume          =     251.3031 (a.u.)^3
     number of atoms/cell      =            2
     number of atomic types    =            1
     number of electrons       =        26.00
     number of Kohn-Sham states=           17
     kinetic-energy cutoff     =      40.0000  Ry
     charge density cutoff     =     400.0000  Ry
     convergence threshold     =      1.0E-12
     mixing beta               =       0.6000
     number of iterations used =            8  plain     mixing
     Exchange-correlation      =  SLA  PW   PBE  PBE ( 1  4  3  4 0 0)

     celldm(1)=   1.889726  celldm(2)=   0.000000  celldm(3)=   0.000000
     celldm(4)=   0.000000  celldm(5)=   0.000000  celldm(6)=   0.000000

     crystal axes: (cart. coord. in units of alat)
               a(1) = (   2.863460  -0.000000   0.000000 )  
               a(2) = (  -1.431730   2.479829  -0.000000 )  
               a(3) = (  -0.000000   0.000000   5.244311 )  

     reciprocal axes: (cart. coord. in units 2 pi/alat)
               b(1) = (  0.349228  0.201627 -0.000000 )  
               b(2) = (  0.000000  0.403254 -0.000000 )  
               b(3) = ( -0.000000  0.000000  0.190683 )  


     PseudoPot. # 1 for Nb read from file:
     ./Nb.pbe-nsp-van.UPF
     MD5 check sum: 0a22fc7fb0ba19a08ca5db297a5d2854
     Pseudo is Ultrasoft + core correction, Zval = 13.0
     Generated by new atomic code, or converted to UPF format
     Using radial grid of  887 points,  6 beta functions with: 
                l(1) =   0
                l(2) =   0
                l(3) =   1
                l(4) =   1
                l(5) =   2
                l(6) =   2
     Q(r) pseudized with  6 coefficients,  rinner =    1.000   1.000   1.000
                                                       1.000   1.000

     atomic species   valence    mass     pseudopotential
        Nb            13.00    92.90638     Nb( 1.00)

     12 Sym. Ops. (no inversion) found
          (note: 12 additional sym.ops. were found but ignored
           their fractional translations are incommensurate with FFT grid)


   Cartesian axes

     site n.     atom                  positions (alat units)
         1           Nb  tau(   1) = (   1.4317302   2.4798296   5.2443117  )
         2           Nb  tau(   2) = (   1.4317316   0.8266090   2.6221558  )

     number of k points=   280  Marzari-Vanderbilt smearing, width (Ry)=  0.0200

     Number of k-points >= 100: set verbosity='high' to print them.

     Dense  grid:    33743 G-vectors     FFT dimensions: (  40,  40,  60)

     Smooth grid:     8511 G-vectors     FFT dimensions: (  24,  24,  40)

     Estimated max dynamical RAM per process >      25.37Mb

     Estimated total allocated dynamical RAM >     101.48Mb

     Check: negative/imaginary core charge=   -0.000001    0.000000

     Initial potential from superposition of free atoms

     starting charge   25.99453, renormalised to   26.00000
     Starting wfc are   26 randomized atomic wfcs

     total cpu time spent up to now is      772.3 secs

     per-process dynamical memory:    91.7 Mb

     Self-consistent Calculation

     iteration #  1     ecut=    40.00 Ry     beta=0.60
     Davidson diagonalization with overlap
     ethr =  1.00E-06,  avg # of iterations =  9.3

     total cpu time spent up to now is      789.1 secs

     total energy              =    -235.78783491 Ry
     Harris-Foulkes estimate   =    -235.88596068 Ry
     estimated scf accuracy    <       0.18128786 Ry

     iteration #  2     ecut=    40.00 Ry     beta=0.60
     Davidson diagonalization with overlap
     ethr =  6.97E-04,  avg # of iterations =  2.0

     total cpu time spent up to now is      794.5 secs

     total energy              =    -235.82089831 Ry
     Harris-Foulkes estimate   =    -235.82237458 Ry
     estimated scf accuracy    <       0.00524062 Ry

     iteration #  3     ecut=    40.00 Ry     beta=0.60
     Davidson diagonalization with overlap
     ethr =  2.02E-05,  avg # of iterations =  2.4

     total cpu time spent up to now is      799.7 secs

     total energy              =    -235.82150520 Ry
     Harris-Foulkes estimate   =    -235.82153806 Ry
     estimated scf accuracy    <       0.00065763 Ry

     iteration #  4     ecut=    40.00 Ry     beta=0.60
     Davidson diagonalization with overlap
     ethr =  2.53E-06,  avg # of iterations =  2.1

     total cpu time spent up to now is      804.0 secs

     total energy              =    -235.82152449 Ry
     Harris-Foulkes estimate   =    -235.82152344 Ry
     estimated scf accuracy    <       0.00000618 Ry

     iteration #  5     ecut=    40.00 Ry     beta=0.60
     Davidson diagonalization with overlap
     ethr =  2.38E-08,  avg # of iterations =  3.5

     total cpu time spent up to now is      811.2 secs

     total energy              =    -235.82152709 Ry
     Harris-Foulkes estimate   =    -235.82152714 Ry
     estimated scf accuracy    <       0.00000033 Ry

     iteration #  6     ecut=    40.00 Ry     beta=0.60
     Davidson diagonalization with overlap
     ethr =  1.26E-09,  avg # of iterations =  2.4

     total cpu time spent up to now is      821.6 secs

     total energy              =    -235.82152706 Ry
     Harris-Foulkes estimate   =    -235.82152725 Ry
     estimated scf accuracy    <       0.00000117 Ry

     iteration #  7     ecut=    40.00 Ry     beta=0.60
     Davidson diagonalization with overlap
     ethr =  1.26E-09,  avg # of iterations =  2.1

     total cpu time spent up to now is      827.1 secs

     total energy              =    -235.82152715 Ry
     Harris-Foulkes estimate   =    -235.82152716 Ry
     estimated scf accuracy    <       0.00000003 Ry

     iteration #  8     ecut=    40.00 Ry     beta=0.60
     Davidson diagonalization with overlap
     ethr =  1.11E-10,  avg # of iterations =  2.1

     total cpu time spent up to now is      831.5 secs

     total energy              =    -235.82152716 Ry
     Harris-Foulkes estimate   =    -235.82152716 Ry
     estimated scf accuracy    <          5.7E-10 Ry

     iteration #  9     ecut=    40.00 Ry     beta=0.60
     Davidson diagonalization with overlap
     ethr =  2.21E-12,  avg # of iterations =  3.1

     total cpu time spent up to now is      840.8 secs

     total energy              =    -235.82152716 Ry
     Harris-Foulkes estimate   =    -235.82152716 Ry
     estimated scf accuracy    <          6.0E-12 Ry

     iteration # 10     ecut=    40.00 Ry     beta=0.60
     Davidson diagonalization with overlap
     ethr =  1.00E-13,  avg # of iterations =  2.4

     total cpu time spent up to now is      847.7 secs

     End of self-consistent calculation

     Number of k-points >= 100: set verbosity='high' to print the bands.

     the Fermi energy is    17.6465 ev

!    total energy              =    -235.82152716 Ry
     Harris-Foulkes estimate   =    -235.82152716 Ry
     estimated scf accuracy    <          5.9E-13 Ry

     The total energy is the sum of the following terms:

     one-electron contribution =     -35.59447407 Ry
     hartree contribution      =      31.11430408 Ry
     xc contribution           =     -36.83925640 Ry
     ewald contribution        =    -194.50216004 Ry
     smearing contrib. (-TS)   =       0.00005928 Ry

     convergence has been achieved in  10 iterations

     Forces acting on atoms (Ry/au):

     atom    1 type  1   force =     0.00000000    0.00000000    0.00000000
     atom    2 type  1   force =    -0.00000000   -0.00000000    0.00000000

     Total force =     0.000000     Total SCF correction =     0.000000


     entering subroutine stress ...

          total   stress  (Ry/bohr**3)                   (kbar)     P=    0.80
   0.00000818   0.00000000   0.00000000          1.20      0.00      0.00
   0.00000000   0.00000818  -0.00000000          0.00      1.20     -0.00
   0.00000000  -0.00000000  -0.00000004          0.00     -0.00     -0.01


     init_run     :      5.50s CPU      5.96s WALL (       2 calls)
     electrons    :    729.05s CPU    801.99s WALL (      11 calls)
     update_pot   :      5.48s CPU      5.56s WALL (       9 calls)
     forces       :     10.10s CPU     11.03s WALL (      11 calls)
     stress       :     23.67s CPU     24.80s WALL (      11 calls)

     Called by init_run:
     wfcinit      :      4.47s CPU      4.87s WALL (       2 calls)
     potinit      :      0.22s CPU      0.23s WALL (       2 calls)

     Called by electrons:
     c_bands      :    631.48s CPU    691.24s WALL (     124 calls)
     sum_band     :     87.29s CPU     99.30s WALL (     124 calls)
     v_of_rho     :      3.08s CPU      3.34s WALL (     131 calls)
     newd         :      7.49s CPU      8.40s WALL (     131 calls)
     mix_rho      :      0.31s CPU      0.34s WALL (     124 calls)

     Called by c_bands:
     init_us_2    :     10.82s CPU     11.75s WALL (   76160 calls)
     cegterg      :    605.46s CPU    663.20s WALL (   34720 calls)

     Called by sum_band:
     sum_band:bec :      0.88s CPU      0.97s WALL (   34720 calls)
     addusdens    :      6.83s CPU      7.52s WALL (     124 calls)

     Called by *egterg:
     h_psi        :    377.99s CPU    414.59s WALL (  118717 calls)
     s_psi        :     25.66s CPU     28.44s WALL (  118717 calls)
     g_psi        :      2.02s CPU      2.19s WALL (   83437 calls)
     cdiaghg      :     75.07s CPU     81.70s WALL (  114517 calls)

     Called by h_psi:
     h_psi:pot    :    375.40s CPU    411.78s WALL (  118717 calls)
     h_psi:calbec :     36.43s CPU     40.50s WALL (  118717 calls)
     vloc_psi     :    312.66s CPU    342.25s WALL (  118717 calls)
     add_vuspsi   :     25.91s CPU     28.63s WALL (  118717 calls)

     General routines
     calbec       :     54.64s CPU     60.73s WALL (  168837 calls)
     fft          :      3.14s CPU      3.44s WALL (    2352 calls)
     ffts         :      0.05s CPU      0.05s WALL (     255 calls)
     fftw         :    325.73s CPU    359.86s WALL ( 3695266 calls)
     interpolate  :      0.34s CPU      0.38s WALL (     255 calls)

     Parallel routines
     fft_scatter  :    123.81s CPU    140.04s WALL ( 3697873 calls)

     PWSCF        : 12m54.57s CPU    14m10.20s WALL


   This run was terminated on:  16: 4:23  25Apr2018            

=------------------------------------------------------------------------------=
   JOB DONE.
=------------------------------------------------------------------------------=
