
     Program PWSCF v.6.3MaX starts on 23Jan2020 at 14:25:40 

     This program is part of the open-source Quantum ESPRESSO suite
     for quantum simulation of materials; please cite
         "P. Giannozzi et al., J. Phys.:Condens. Matter 21 395502 (2009);
         "P. Giannozzi et al., J. Phys.:Condens. Matter 29 465901 (2017);
          URL http://www.quantum-espresso.org", 
     in publications or presentations arising from this work. More details at
     http://www.quantum-espresso.org/quote

     Parallel version (MPI), running on    12 processors

     MPI processes distributed on     2 nodes
     R & G space division:  proc/nbgrp/npool/nimage =      12
     Waiting for input...
     Reading input from standard input

     Current dimensions of program PWSCF are:
     Max number of different atomic species (ntypx) = 10
     Max number of k-points (npk) =  40000
     Max angular momentum in pseudopotentials (lmaxx) =  3
     Message from routine iosys:
     minimal I/O required, wf_collect reset to FALSE

     Subspace diagonalization in iterative solution of the eigenvalue problem:
     a serial algorithm will be used

 
     Parallelization info
     --------------------
     sticks:   dense  smooth     PW     G-vecs:    dense   smooth      PW
     Min         179      71     21                 9238     2334     384
     Max         180      72     22                 9241     2337     386
     Sum        2155     855    261               110881    28023    4619
 


     bravais-lattice index     =            0
     lattice parameter (alat)  =       1.8897  a.u.
     unit-cell volume          =     586.6735 (a.u.)^3
     number of atoms/cell      =            4
     number of atomic types    =            2
     number of electrons       =        50.00
     number of Kohn-Sham states=           30
     kinetic-energy cutoff     =      50.0000  Ry
     charge density cutoff     =     500.0000  Ry
     convergence threshold     =      1.0E-10
     mixing beta               =       0.6000
     number of iterations used =            8  plain     mixing
     Exchange-correlation      = SLA PW PBE PBE ( 1  4  3  4 0 0)
     nstep                     =           50


     celldm(1)=   1.889726  celldm(2)=   0.000000  celldm(3)=   0.000000
     celldm(4)=   0.000000  celldm(5)=   0.000000  celldm(6)=   0.000000

     crystal axes: (cart. coord. in units of alat)
               a(1) = (   1.758031   1.758031  -1.758031 )  
               a(2) = (  -3.516063   3.516063   0.000000 )  
               a(3) = (   1.758031   1.758031   5.274095 )  

     reciprocal axes: (cart. coord. in units 2 pi/alat)
               b(1) = (  0.213307  0.213307 -0.142205 )  
               b(2) = ( -0.142205  0.142205  0.000000 )  
               b(3) = (  0.071102  0.071102  0.142205 )  


     PseudoPot. # 1 for Nb read from file:
     /home/u16/abhishekkt/fp/krishna/calculations/pseudopotentials/Nb.pbe-nsp-van.UPF
     MD5 check sum: c44c1a86bf31974e1e832c2ec821fd5f
     Pseudo is Ultrasoft + core correction, Zval = 13.0
     Generated by new atomic code, or converted to UPF format
     Using radial grid of  887 points,  6 beta functions with: 
                l(1) =   0
                l(2) =   0
                l(3) =   1
                l(4) =   1
                l(5) =   2
                l(6) =   2
     Q(r) pseudized with  6 coefficients,  rinner =    1.000   1.000   1.000
                                                       1.000   1.000

     PseudoPot. # 2 for Ti read from file:
     /home/u16/abhishekkt/fp/krishna/calculations/pseudopotentials/Ti.pbe-sp-van_ak.UPF
     MD5 check sum: 84d3ec9e8983e94242673103c800fb48
     Pseudo is Ultrasoft, Zval = 12.0
     Generated by new atomic code, or converted to UPF format
     Using radial grid of  851 points,  6 beta functions with: 
                l(1) =   0
                l(2) =   0
                l(3) =   1
                l(4) =   1
                l(5) =   2
                l(6) =   2
     Q(r) pseudized with  8 coefficients,  rinner =    1.000   1.000   1.000
                                                       1.000   1.000

     atomic species   valence    mass     pseudopotential
        Nb            13.00    92.90638     Nb( 1.00)
        Ti            12.00    47.86700     Ti( 1.00)

      2 Sym. Ops. (no inversion) found
          (note:  2 additional sym.ops. were found but ignored
           their fractional translations are incommensurate with FFT grid)


   Cartesian axes

     site n.     atom                  positions (alat units)
         1           Ti  tau(   1) = (  -1.7580316   5.2740949   1.7580316  )
         2           Ti  tau(   2) = (   0.0000000   3.5160633   3.5160633  )
         3           Nb  tau(   3) = (   0.0000000   7.0321265   3.5160633  )
         4           Nb  tau(   4) = (   0.0000000   3.5160633   0.0000000  )

     number of k points=   576  Marzari-Vanderbilt smearing, width (Ry)=  0.0200

     Number of k-points >= 100: set verbosity='high' to print them.

     Dense  grid:   110881 G-vectors     FFT dimensions: (  45,  72,  80)

     Smooth grid:    28023 G-vectors     FFT dimensions: (  25,  45,  50)

     Estimated max dynamical RAM per process >     113.32 MB

     Estimated total dynamical RAM >       1.33 GB

     Initial potential from superposition of free atoms

     starting charge   47.99445, renormalised to   50.00000
     Starting wfcs are   46 randomized atomic wfcs

     total cpu time spent up to now is       38.4 secs

     Self-consistent Calculation

     iteration #  1     ecut=    50.00 Ry     beta= 0.60
     Davidson diagonalization with overlap
     ethr =  1.00E-02,  avg # of iterations =  3.3

     total cpu time spent up to now is      117.7 secs

     total energy              =    -454.97963839 Ry
     Harris-Foulkes estimate   =    -471.41467529 Ry
     estimated scf accuracy    <      20.60861691 Ry

     iteration #  2     ecut=    50.00 Ry     beta= 0.60
     Davidson diagonalization with overlap
     ethr =  1.00E-02,  avg # of iterations =  6.5

     total cpu time spent up to now is      254.0 secs

     total energy              =    -458.87435517 Ry
     Harris-Foulkes estimate   =    -492.90430423 Ry
     estimated scf accuracy    <     107.60689075 Ry

     iteration #  3     ecut=    50.00 Ry     beta= 0.60
     Davidson diagonalization with overlap
     ethr =  1.00E-02,  avg # of iterations =  3.6

     total cpu time spent up to now is      384.5 secs

     total energy              =    -469.73637946 Ry
     Harris-Foulkes estimate   =    -470.81847179 Ry
     estimated scf accuracy    <      11.48469414 Ry

     iteration #  4     ecut=    50.00 Ry     beta= 0.60
     Davidson diagonalization with overlap
     ethr =  1.00E-02,  avg # of iterations =  1.0

     total cpu time spent up to now is      444.7 secs

     total energy              =    -469.62250217 Ry
     Harris-Foulkes estimate   =    -469.83866244 Ry
     estimated scf accuracy    <       7.18053312 Ry

     iteration #  5     ecut=    50.00 Ry     beta= 0.60
     Davidson diagonalization with overlap
     ethr =  1.00E-02,  avg # of iterations =  1.0

     total cpu time spent up to now is      504.2 secs

     total energy              =    -471.16569317 Ry
     Harris-Foulkes estimate   =    -469.64939565 Ry
     estimated scf accuracy    <       6.23033789 Ry

     iteration #  6     ecut=    50.00 Ry     beta= 0.60
     Davidson diagonalization with overlap
     ethr =  1.00E-02,  avg # of iterations =  1.0

     total cpu time spent up to now is      563.3 secs

     total energy              =    -467.46595474 Ry
     Harris-Foulkes estimate   =    -471.27074282 Ry
     estimated scf accuracy    <      10.26575159 Ry

     iteration #  7     ecut=    50.00 Ry     beta= 0.60
     Davidson diagonalization with overlap
     ethr =  1.00E-02,  avg # of iterations =  5.6

     total cpu time spent up to now is      662.8 secs

     total energy              =    -469.15345267 Ry
     Harris-Foulkes estimate   =    -469.68271599 Ry
     estimated scf accuracy    <      10.97492517 Ry

     iteration #  8     ecut=    50.00 Ry     beta= 0.60
     Davidson diagonalization with overlap
     ethr =  1.00E-02,  avg # of iterations =  1.0

     total cpu time spent up to now is      721.7 secs

     total energy              =    -469.20829810 Ry
     Harris-Foulkes estimate   =    -469.23516216 Ry
     estimated scf accuracy    <       5.63706084 Ry

     iteration #  9     ecut=    50.00 Ry     beta= 0.60
     Davidson diagonalization with overlap
     ethr =  1.00E-02,  avg # of iterations =  1.0

     total cpu time spent up to now is      781.0 secs

     total energy              =    -469.15962676 Ry
     Harris-Foulkes estimate   =    -469.22148808 Ry
     estimated scf accuracy    <       5.32954734 Ry

     iteration # 10     ecut=    50.00 Ry     beta= 0.60
     Davidson diagonalization with overlap
     ethr =  1.00E-02,  avg # of iterations =  1.0

     total cpu time spent up to now is      840.0 secs

     total energy              =    -468.90517064 Ry
     Harris-Foulkes estimate   =    -469.17193353 Ry
     estimated scf accuracy    <       4.26316040 Ry

     iteration # 11     ecut=    50.00 Ry     beta= 0.60
     Davidson diagonalization with overlap
     ethr =  8.53E-03,  avg # of iterations =  1.0

     total cpu time spent up to now is      898.9 secs

     total energy              =    -468.99411006 Ry
     Harris-Foulkes estimate   =    -468.99755989 Ry
     estimated scf accuracy    <       1.11403458 Ry

     iteration # 12     ecut=    50.00 Ry     beta= 0.60
     Davidson diagonalization with overlap
     ethr =  2.23E-03,  avg # of iterations =  3.6

     total cpu time spent up to now is      969.1 secs

     total energy              =    -469.02091969 Ry
     Harris-Foulkes estimate   =    -469.06389016 Ry
     estimated scf accuracy    <       0.31414138 Ry

     iteration # 13     ecut=    50.00 Ry     beta= 0.60
     Davidson diagonalization with overlap
     ethr =  6.28E-04,  avg # of iterations =  4.9

     total cpu time spent up to now is     1055.0 secs

     total energy              =    -469.06853108 Ry
     Harris-Foulkes estimate   =    -469.08756186 Ry
     estimated scf accuracy    <       0.16852401 Ry

     iteration # 14     ecut=    50.00 Ry     beta= 0.60
     Davidson diagonalization with overlap
     ethr =  3.37E-04,  avg # of iterations =  1.1

     total cpu time spent up to now is     1114.3 secs

     total energy              =    -469.06472522 Ry
     Harris-Foulkes estimate   =    -469.07344035 Ry
     estimated scf accuracy    <       0.03766945 Ry

     iteration # 15     ecut=    50.00 Ry     beta= 0.60
     Davidson diagonalization with overlap
     ethr =  7.53E-05,  avg # of iterations =  5.3

     total cpu time spent up to now is     1202.1 secs

     total energy              =    -469.07362462 Ry
     Harris-Foulkes estimate   =    -469.07288500 Ry
     estimated scf accuracy    <       0.01932338 Ry

     iteration # 16     ecut=    50.00 Ry     beta= 0.60
     Davidson diagonalization with overlap
     ethr =  3.86E-05,  avg # of iterations =  1.6

     total cpu time spent up to now is     1262.9 secs

     total energy              =    -469.07235337 Ry
     Harris-Foulkes estimate   =    -469.07397452 Ry
     estimated scf accuracy    <       0.03351933 Ry

     iteration # 17     ecut=    50.00 Ry     beta= 0.60
     Davidson diagonalization with overlap
     ethr =  3.86E-05,  avg # of iterations =  1.0

     total cpu time spent up to now is     1321.9 secs

     total energy              =    -469.07097349 Ry
     Harris-Foulkes estimate   =    -469.07264862 Ry
     estimated scf accuracy    <       0.01588056 Ry

     iteration # 18     ecut=    50.00 Ry     beta= 0.60
     Davidson diagonalization with overlap
     ethr =  3.18E-05,  avg # of iterations =  1.0

     total cpu time spent up to now is     1381.8 secs

     total energy              =    -469.07162473 Ry
     Harris-Foulkes estimate   =    -469.07158355 Ry
     estimated scf accuracy    <       0.00145936 Ry

     iteration # 19     ecut=    50.00 Ry     beta= 0.60
     Davidson diagonalization with overlap
     c_bands:  1 eigenvalues not converged
     c_bands:  1 eigenvalues not converged
     ethr =  2.92E-06,  avg # of iterations =  7.2

     total cpu time spent up to now is     1476.3 secs

     total energy              =    -469.07173634 Ry
     Harris-Foulkes estimate   =    -469.07180397 Ry
     estimated scf accuracy    <       0.00081144 Ry

     iteration # 20     ecut=    50.00 Ry     beta= 0.60
     Davidson diagonalization with overlap
     ethr =  1.62E-06,  avg # of iterations =  1.4

     total cpu time spent up to now is     1538.2 secs

     total energy              =    -469.07174780 Ry
     Harris-Foulkes estimate   =    -469.07176317 Ry
     estimated scf accuracy    <       0.00025339 Ry

     iteration # 21     ecut=    50.00 Ry     beta= 0.60
     Davidson diagonalization with overlap
     c_bands:  1 eigenvalues not converged
     ethr =  5.07E-07,  avg # of iterations =  2.3

     total cpu time spent up to now is     1603.0 secs

     total energy              =    -469.07175525 Ry
     Harris-Foulkes estimate   =    -469.07176004 Ry
     estimated scf accuracy    <       0.00006321 Ry

     iteration # 22     ecut=    50.00 Ry     beta= 0.60
     Davidson diagonalization with overlap
     ethr =  1.26E-07,  avg # of iterations =  4.0

     total cpu time spent up to now is     1684.5 secs

     total energy              =    -469.07176562 Ry
     Harris-Foulkes estimate   =    -469.07176606 Ry
     estimated scf accuracy    <       0.00000576 Ry

     iteration # 23     ecut=    50.00 Ry     beta= 0.60
     Davidson diagonalization with overlap
     ethr =  1.15E-08,  avg # of iterations =  3.1

     total cpu time spent up to now is     1755.4 secs

     total energy              =    -469.07176582 Ry
     Harris-Foulkes estimate   =    -469.07176620 Ry
     estimated scf accuracy    <       0.00000467 Ry

     iteration # 24     ecut=    50.00 Ry     beta= 0.60
     Davidson diagonalization with overlap
     ethr =  9.33E-09,  avg # of iterations =  1.0

     total cpu time spent up to now is     1815.4 secs

     total energy              =    -469.07176579 Ry
     Harris-Foulkes estimate   =    -469.07176595 Ry
     estimated scf accuracy    <       0.00000177 Ry

     iteration # 25     ecut=    50.00 Ry     beta= 0.60
     Davidson diagonalization with overlap
     ethr =  3.55E-09,  avg # of iterations =  2.0

     total cpu time spent up to now is     1878.3 secs

     total energy              =    -469.07176584 Ry
     Harris-Foulkes estimate   =    -469.07176587 Ry
     estimated scf accuracy    <       0.00000035 Ry

     iteration # 26     ecut=    50.00 Ry     beta= 0.60
     Davidson diagonalization with overlap
     ethr =  6.95E-10,  avg # of iterations =  4.1

     total cpu time spent up to now is     1960.4 secs

     total energy              =    -469.07176590 Ry
     Harris-Foulkes estimate   =    -469.07176591 Ry
     estimated scf accuracy    <       0.00000003 Ry

     iteration # 27     ecut=    50.00 Ry     beta= 0.60
     Davidson diagonalization with overlap
     ethr =  6.42E-11,  avg # of iterations =  3.4

     total cpu time spent up to now is     2035.2 secs

     total energy              =    -469.07176590 Ry
     Harris-Foulkes estimate   =    -469.07176591 Ry
     estimated scf accuracy    <          6.3E-09 Ry

     iteration # 28     ecut=    50.00 Ry     beta= 0.60
     Davidson diagonalization with overlap
     ethr =  1.26E-11,  avg # of iterations =  2.4

     total cpu time spent up to now is     2103.7 secs

     total energy              =    -469.07176591 Ry
     Harris-Foulkes estimate   =    -469.07176591 Ry
     estimated scf accuracy    <          1.1E-09 Ry

     iteration # 29     ecut=    50.00 Ry     beta= 0.60
     Davidson diagonalization with overlap
     ethr =  2.26E-12,  avg # of iterations =  4.3

     total cpu time spent up to now is     2188.1 secs

     total energy              =    -469.07176591 Ry
     Harris-Foulkes estimate   =    -469.07176591 Ry
     estimated scf accuracy    <          1.5E-09 Ry

     iteration # 30     ecut=    50.00 Ry     beta= 0.60
     Davidson diagonalization with overlap
     ethr =  2.26E-12,  avg # of iterations =  1.0

     total cpu time spent up to now is     2247.3 secs

     total energy              =    -469.07176591 Ry
     Harris-Foulkes estimate   =    -469.07176591 Ry
     estimated scf accuracy    <          5.8E-10 Ry

     iteration # 31     ecut=    50.00 Ry     beta= 0.60
     Davidson diagonalization with overlap
     ethr =  1.15E-12,  avg # of iterations =  2.8

     total cpu time spent up to now is     2315.2 secs

     End of self-consistent calculation

     Number of k-points >= 100: set verbosity='high' to print the bands.

     the Fermi energy is    12.1722 ev

!    total energy              =    -469.07176591 Ry
     Harris-Foulkes estimate   =    -469.07176591 Ry
     estimated scf accuracy    <          8.8E-11 Ry

     The total energy is the sum of the following terms:

     one-electron contribution =    -150.85825158 Ry
     hartree contribution      =      89.56384842 Ry
     xc contribution           =     -65.24395945 Ry
     ewald contribution        =    -342.53242269 Ry
     smearing contrib. (-TS)   =      -0.00098060 Ry

     convergence has been achieved in  31 iterations

     Forces acting on atoms (cartesian axes, Ry/au):

     atom    1 type  2   force =    -0.00037482   -0.00037482   -0.00944051
     atom    2 type  2   force =     0.00036932    0.00036932    0.00944492
     atom    3 type  1   force =    -0.00343106   -0.00343106    0.01286532
     atom    4 type  1   force =     0.00343656    0.00343656   -0.01286972

     Total force =     0.023605     Total SCF correction =     0.000011


     Computing stress (Cartesian axis) and pressure

          total   stress  (Ry/bohr**3)                   (kbar)     P= -199.10
  -0.00135110   0.00001455   0.00002616       -198.75      2.14      3.85
   0.00001455  -0.00135110   0.00002616          2.14   -198.75      3.85
   0.00002616   0.00002616  -0.00135815          3.85      3.85   -199.79


     BFGS Geometry Optimization

     number of scf cycles    =   1
     number of bfgs steps    =   0

     enthalpy new            =    -469.0717659058 Ry

     new trust radius        =       0.1645419751 bohr
     new conv_thr            =            1.0E-10 Ry

     new unit-cell volume =    529.11285 a.u.^3 (    78.40643 Ang^3 )
     density =      5.96277 g/cm^3

CELL_PARAMETERS (alat=  1.88972599)
   1.698139306   1.698139306  -1.696040075
  -3.396020783   3.396020783   0.000000000
   1.702738728   1.702738728   5.097319069

ATOMIC_POSITIONS (angstrom)
Ti      -1.695776752   5.096264815   1.695813156
Ti       0.003770655   3.399791439   3.403807871
Nb       0.003106733   6.795148300   3.407853494
Nb       0.003032098   3.399052882  -0.004277034


     NEW-OLD atomic charge density approx. for the potential
     extrapolated charge   44.77883, renormalised to   50.00000

     total cpu time spent up to now is     2322.8 secs

     Self-consistent Calculation

     iteration #  1     ecut=    50.00 Ry     beta= 0.60
     Davidson diagonalization with overlap
     c_bands:  1 eigenvalues not converged
     c_bands:  1 eigenvalues not converged
     c_bands:  1 eigenvalues not converged
     c_bands:  1 eigenvalues not converged
     c_bands:  1 eigenvalues not converged
     c_bands:  1 eigenvalues not converged
     c_bands:  1 eigenvalues not converged
     c_bands:  1 eigenvalues not converged
     c_bands:  1 eigenvalues not converged
     c_bands:  1 eigenvalues not converged
     c_bands:  1 eigenvalues not converged
     c_bands:  1 eigenvalues not converged
     c_bands:  1 eigenvalues not converged
     ethr =  1.00E-06,  avg # of iterations = 15.8

     total cpu time spent up to now is     2570.5 secs

     total energy              =    -443.97223364 Ry
     Harris-Foulkes estimate   =    -480.31444601 Ry
     estimated scf accuracy    <      28.18600945 Ry

     iteration #  2     ecut=    50.00 Ry     beta= 0.60
     Davidson diagonalization with overlap
     ethr =  1.00E-02,  avg # of iterations =  5.6

     total cpu time spent up to now is     2694.6 secs

     total energy              =    -450.68943341 Ry
     Harris-Foulkes estimate   =    -507.72101254 Ry
     estimated scf accuracy    <     204.39337567 Ry

     iteration #  3     ecut=    50.00 Ry     beta= 0.60
     Davidson diagonalization with overlap
     ethr =  1.00E-02,  avg # of iterations =  4.1

     total cpu time spent up to now is     2799.5 secs

     total energy              =    -470.87338045 Ry
     Harris-Foulkes estimate   =    -473.24662877 Ry
     estimated scf accuracy    <      12.33857985 Ry

     iteration #  4     ecut=    50.00 Ry     beta= 0.60
     Davidson diagonalization with overlap
     ethr =  1.00E-02,  avg # of iterations =  1.0

     total cpu time spent up to now is     2859.4 secs

     total energy              =    -468.80182369 Ry
     Harris-Foulkes estimate   =    -471.03302377 Ry
     estimated scf accuracy    <       8.83674465 Ry

     iteration #  5     ecut=    50.00 Ry     beta= 0.60
     Davidson diagonalization with overlap
     ethr =  1.00E-02,  avg # of iterations =  2.9

     total cpu time spent up to now is     2928.3 secs

     total energy              =    -469.50158320 Ry
     Harris-Foulkes estimate   =    -469.33076186 Ry
     estimated scf accuracy    <       1.34167449 Ry

     iteration #  6     ecut=    50.00 Ry     beta= 0.60
     Davidson diagonalization with overlap
     ethr =  2.68E-03,  avg # of iterations =  2.0

     total cpu time spent up to now is     2991.7 secs

     total energy              =    -469.48463820 Ry
     Harris-Foulkes estimate   =    -469.57435230 Ry
     estimated scf accuracy    <       2.36719235 Ry

     iteration #  7     ecut=    50.00 Ry     beta= 0.60
     Davidson diagonalization with overlap
     ethr =  2.68E-03,  avg # of iterations =  1.0

     total cpu time spent up to now is     3050.6 secs

     total energy              =    -469.53026558 Ry
     Harris-Foulkes estimate   =    -469.49497118 Ry
     estimated scf accuracy    <       2.22250134 Ry

     iteration #  8     ecut=    50.00 Ry     beta= 0.60
     Davidson diagonalization with overlap
     ethr =  2.68E-03,  avg # of iterations =  1.0

     total cpu time spent up to now is     3109.6 secs

     total energy              =    -469.55809115 Ry
     Harris-Foulkes estimate   =    -469.53362685 Ry
     estimated scf accuracy    <       2.38484913 Ry

     iteration #  9     ecut=    50.00 Ry     beta= 0.60
     Davidson diagonalization with overlap
     ethr =  2.68E-03,  avg # of iterations =  1.0

     total cpu time spent up to now is     3168.4 secs

     total energy              =    -469.10884487 Ry
     Harris-Foulkes estimate   =    -469.55999004 Ry
     estimated scf accuracy    <       2.50759482 Ry

     iteration # 10     ecut=    50.00 Ry     beta= 0.60
     Davidson diagonalization with overlap
     ethr =  2.68E-03,  avg # of iterations =  1.3

     total cpu time spent up to now is     3228.1 secs

     total energy              =    -468.75204562 Ry
     Harris-Foulkes estimate   =    -469.16232277 Ry
     estimated scf accuracy    <       0.97232470 Ry

     iteration # 11     ecut=    50.00 Ry     beta= 0.60
     Davidson diagonalization with overlap
     ethr =  1.94E-03,  avg # of iterations =  4.5

     total cpu time spent up to now is     3331.4 secs

     total energy              =    -468.95131063 Ry
     Harris-Foulkes estimate   =    -469.68959089 Ry
     estimated scf accuracy    <       9.33173334 Ry

     iteration # 12     ecut=    50.00 Ry     beta= 0.60
     Davidson diagonalization with overlap
     ethr =  1.94E-03,  avg # of iterations =  4.2

     total cpu time spent up to now is     3411.0 secs

     total energy              =    -469.16112535 Ry
     Harris-Foulkes estimate   =    -469.18767177 Ry
     estimated scf accuracy    <       1.05897963 Ry

     iteration # 13     ecut=    50.00 Ry     beta= 0.60
     Davidson diagonalization with overlap
     ethr =  1.94E-03,  avg # of iterations =  1.1

     total cpu time spent up to now is     3470.6 secs

     total energy              =    -468.98320245 Ry
     Harris-Foulkes estimate   =    -469.16772770 Ry
     estimated scf accuracy    <       0.77497387 Ry

     iteration # 14     ecut=    50.00 Ry     beta= 0.60
     Davidson diagonalization with overlap
     ethr =  1.55E-03,  avg # of iterations =  5.3

     total cpu time spent up to now is     3557.5 secs

     total energy              =    -469.18940496 Ry
     Harris-Foulkes estimate   =    -469.21794226 Ry
     estimated scf accuracy    <       0.58986820 Ry

     iteration # 15     ecut=    50.00 Ry     beta= 0.60
     Davidson diagonalization with overlap
     ethr =  1.18E-03,  avg # of iterations =  1.1

     total cpu time spent up to now is     3617.3 secs

     total energy              =    -469.12611474 Ry
     Harris-Foulkes estimate   =    -469.19534305 Ry
     estimated scf accuracy    <       0.43477292 Ry

     iteration # 16     ecut=    50.00 Ry     beta= 0.60
     Davidson diagonalization with overlap
     ethr =  8.70E-04,  avg # of iterations =  1.1

     total cpu time spent up to now is     3676.5 secs

     total energy              =    -469.15403568 Ry
     Harris-Foulkes estimate   =    -469.13913658 Ry
     estimated scf accuracy    <       0.10939527 Ry

     iteration # 17     ecut=    50.00 Ry     beta= 0.60
     Davidson diagonalization with overlap
     ethr =  2.19E-04,  avg # of iterations =  2.7

     total cpu time spent up to now is     3743.0 secs

     total energy              =    -469.10906431 Ry
     Harris-Foulkes estimate   =    -469.15982452 Ry
     estimated scf accuracy    <       0.21427723 Ry

     iteration # 18     ecut=    50.00 Ry     beta= 0.60
     Davidson diagonalization with overlap
     ethr =  2.19E-04,  avg # of iterations =  5.0

     total cpu time spent up to now is     3827.0 secs

     total energy              =    -469.13508527 Ry
     Harris-Foulkes estimate   =    -469.13736695 Ry
     estimated scf accuracy    <       0.01644959 Ry

     iteration # 19     ecut=    50.00 Ry     beta= 0.60
     Davidson diagonalization with overlap
     ethr =  3.29E-05,  avg # of iterations =  4.5

     total cpu time spent up to now is     3901.7 secs

     total energy              =    -469.13666145 Ry
     Harris-Foulkes estimate   =    -469.13670353 Ry
     estimated scf accuracy    <       0.00277724 Ry

     iteration # 20     ecut=    50.00 Ry     beta= 0.60
     Davidson diagonalization with overlap
     ethr =  5.55E-06,  avg # of iterations =  5.9

     total cpu time spent up to now is     3984.8 secs

     total energy              =    -469.13679376 Ry
     Harris-Foulkes estimate   =    -469.13699754 Ry
     estimated scf accuracy    <       0.00224181 Ry

     iteration # 21     ecut=    50.00 Ry     beta= 0.60
     Davidson diagonalization with overlap
     ethr =  4.48E-06,  avg # of iterations =  1.0

     total cpu time spent up to now is     4043.8 secs

     total energy              =    -469.13664346 Ry
     Harris-Foulkes estimate   =    -469.13687440 Ry
     estimated scf accuracy    <       0.00121271 Ry

     iteration # 22     ecut=    50.00 Ry     beta= 0.60
     Davidson diagonalization with overlap
     ethr =  2.43E-06,  avg # of iterations =  4.3

     total cpu time spent up to now is     4119.4 secs

     total energy              =    -469.13678019 Ry
     Harris-Foulkes estimate   =    -469.13683588 Ry
     estimated scf accuracy    <       0.00030381 Ry

     iteration # 23     ecut=    50.00 Ry     beta= 0.60
     Davidson diagonalization with overlap
     ethr =  6.08E-07,  avg # of iterations =  3.0

     total cpu time spent up to now is     4187.8 secs

     total energy              =    -469.13681580 Ry
     Harris-Foulkes estimate   =    -469.13681902 Ry
     estimated scf accuracy    <       0.00001924 Ry

     iteration # 24     ecut=    50.00 Ry     beta= 0.60
     Davidson diagonalization with overlap
     ethr =  3.85E-08,  avg # of iterations =  4.9

     total cpu time spent up to now is     4276.4 secs

     total energy              =    -469.13682306 Ry
     Harris-Foulkes estimate   =    -469.13682442 Ry
     estimated scf accuracy    <       0.00000919 Ry

     iteration # 25     ecut=    50.00 Ry     beta= 0.60
     Davidson diagonalization with overlap
     ethr =  1.84E-08,  avg # of iterations =  1.1

     total cpu time spent up to now is     4335.3 secs

     total energy              =    -469.13682345 Ry
     Harris-Foulkes estimate   =    -469.13682388 Ry
     estimated scf accuracy    <       0.00000247 Ry

     iteration # 26     ecut=    50.00 Ry     beta= 0.60
     Davidson diagonalization with overlap
     ethr =  4.95E-09,  avg # of iterations =  3.6

     total cpu time spent up to now is     4409.2 secs

     total energy              =    -469.13682379 Ry
     Harris-Foulkes estimate   =    -469.13682383 Ry
     estimated scf accuracy    <       0.00000020 Ry

     iteration # 27     ecut=    50.00 Ry     beta= 0.60
     Davidson diagonalization with overlap
     ethr =  4.05E-10,  avg # of iterations =  3.6

     total cpu time spent up to now is     4484.6 secs

     total energy              =    -469.13682383 Ry
     Harris-Foulkes estimate   =    -469.13682384 Ry
     estimated scf accuracy    <       0.00000003 Ry

     iteration # 28     ecut=    50.00 Ry     beta= 0.60
     Davidson diagonalization with overlap
     ethr =  5.68E-11,  avg # of iterations =  3.5

     total cpu time spent up to now is     4559.2 secs

     total energy              =    -469.13682384 Ry
     Harris-Foulkes estimate   =    -469.13682384 Ry
     estimated scf accuracy    <          3.4E-09 Ry

     iteration # 29     ecut=    50.00 Ry     beta= 0.60
     Davidson diagonalization with overlap
     ethr =  6.80E-12,  avg # of iterations =  3.7

     total cpu time spent up to now is     4638.9 secs

     total energy              =    -469.13682384 Ry
     Harris-Foulkes estimate   =    -469.13682384 Ry
     estimated scf accuracy    <          2.5E-09 Ry

     iteration # 30     ecut=    50.00 Ry     beta= 0.60
     Davidson diagonalization with overlap
     ethr =  5.01E-12,  avg # of iterations =  1.1

     total cpu time spent up to now is     4698.1 secs

     End of self-consistent calculation

     Number of k-points >= 100: set verbosity='high' to print the bands.

     the Fermi energy is    13.8077 ev

!    total energy              =    -469.13682384 Ry
     Harris-Foulkes estimate   =    -469.13682384 Ry
     estimated scf accuracy    <          4.7E-11 Ry

     The total energy is the sum of the following terms:

     one-electron contribution =    -133.20227157 Ry
     hartree contribution      =      84.13963063 Ry
     xc contribution           =     -65.57026741 Ry
     ewald contribution        =    -354.50259676 Ry
     smearing contrib. (-TS)   =      -0.00131872 Ry

     convergence has been achieved in  30 iterations

     Forces acting on atoms (cartesian axes, Ry/au):

     atom    1 type  2   force =     0.00128574    0.00128574   -0.00774562
     atom    2 type  2   force =    -0.00128684   -0.00128684    0.00775137
     atom    3 type  1   force =    -0.00564572   -0.00564572    0.00949657
     atom    4 type  1   force =     0.00564683    0.00564683   -0.00950233

     Total force =     0.020849     Total SCF correction =     0.000013


     Computing stress (Cartesian axis) and pressure

          total   stress  (Ry/bohr**3)                   (kbar)     P= -123.34
  -0.00083954   0.00001965   0.00001937       -123.50      2.89      2.85
   0.00001965  -0.00083954   0.00001937          2.89   -123.50      2.85
   0.00001937   0.00001937  -0.00083627          2.85      2.85   -123.02


     number of scf cycles    =   2
     number of bfgs steps    =   1

     enthalpy old            =    -469.0717659058 Ry
     enthalpy new            =    -469.1368238379 Ry

     CASE: enthalpy_new < enthalpy_old

     new trust radius        =       0.2230628277 bohr
     new conv_thr            =            1.0E-10 Ry

     new unit-cell volume =    455.93900 a.u.^3 (    67.56319 Ang^3 )
     density =      6.91973 g/cm^3

CELL_PARAMETERS (alat=  1.88972599)
   1.615826827   1.615826827  -1.610124802
  -3.227493780   3.227493780   0.000000000
   1.628237523   1.628237523   4.855196003

ATOMIC_POSITIONS (angstrom)
Ti      -1.604234704   4.850752856   1.609257905
Ti       0.010157144   3.237650924   3.252152070
Nb       0.008598198   6.463585759   3.261950686
Nb       0.013158897   3.240652677  -0.010682659


     NEW-OLD atomic charge density approx. for the potential
     extrapolated charge   42.29735, renormalised to   50.00000

     total cpu time spent up to now is     4706.3 secs

     Self-consistent Calculation

     iteration #  1     ecut=    50.00 Ry     beta= 0.60
     Davidson diagonalization with overlap
     c_bands:  1 eigenvalues not converged
     c_bands:  1 eigenvalues not converged
     c_bands:  1 eigenvalues not converged
     c_bands:  1 eigenvalues not converged
     c_bands:  1 eigenvalues not converged
     c_bands:  1 eigenvalues not converged
     c_bands:  1 eigenvalues not converged
     c_bands:  1 eigenvalues not converged
     c_bands:  1 eigenvalues not converged
     c_bands:  1 eigenvalues not converged
     c_bands:  1 eigenvalues not converged
     c_bands:  1 eigenvalues not converged
     c_bands:  1 eigenvalues not converged
     c_bands:  1 eigenvalues not converged
     c_bands:  1 eigenvalues not converged
     c_bands:  1 eigenvalues not converged
     c_bands:  1 eigenvalues not converged
     c_bands:  1 eigenvalues not converged
     c_bands:  1 eigenvalues not converged
     c_bands:  1 eigenvalues not converged
     c_bands:  1 eigenvalues not converged
     c_bands:  1 eigenvalues not converged
     c_bands:  1 eigenvalues not converged
     c_bands:  1 eigenvalues not converged
     c_bands:  1 eigenvalues not converged
     c_bands:  1 eigenvalues not converged
     c_bands:  1 eigenvalues not converged
     ethr =  1.00E-06,  avg # of iterations = 15.3

     total cpu time spent up to now is     4963.2 secs

     total energy              =    -425.26141477 Ry
     Harris-Foulkes estimate   =    -483.77349022 Ry
     estimated scf accuracy    <      49.13959092 Ry

     iteration #  2     ecut=    50.00 Ry     beta= 0.60
     Davidson diagonalization with overlap
     ethr =  1.00E-02,  avg # of iterations =  7.3

     total cpu time spent up to now is     5110.4 secs

     total energy              =    -450.38103157 Ry
     Harris-Foulkes estimate   =    -535.05576403 Ry
     estimated scf accuracy    <     280.23258056 Ry

     iteration #  3     ecut=    50.00 Ry     beta= 0.60
     Davidson diagonalization with overlap
     ethr =  1.00E-02,  avg # of iterations =  5.0

     total cpu time spent up to now is     5233.1 secs

     total energy              =    -471.95734882 Ry
     Harris-Foulkes estimate   =    -476.15914009 Ry
     estimated scf accuracy    <      20.01283495 Ry

     iteration #  4     ecut=    50.00 Ry     beta= 0.60
     Davidson diagonalization with overlap
     ethr =  1.00E-02,  avg # of iterations =  2.0

     total cpu time spent up to now is     5300.9 secs

     total energy              =    -468.89904807 Ry
     Harris-Foulkes estimate   =    -472.30406705 Ry
     estimated scf accuracy    <      12.59142437 Ry

     iteration #  5     ecut=    50.00 Ry     beta= 0.60
     Davidson diagonalization with overlap
     ethr =  1.00E-02,  avg # of iterations =  3.0

     total cpu time spent up to now is     5377.0 secs

     total energy              =    -469.74718820 Ry
     Harris-Foulkes estimate   =    -469.63011285 Ry
     estimated scf accuracy    <       2.13239628 Ry

     iteration #  6     ecut=    50.00 Ry     beta= 0.60
     Davidson diagonalization with overlap
     ethr =  4.26E-03,  avg # of iterations =  1.3

     total cpu time spent up to now is     5439.7 secs

     total energy              =    -469.54454163 Ry
     Harris-Foulkes estimate   =    -469.80447978 Ry
     estimated scf accuracy    <       2.95755568 Ry

     iteration #  7     ecut=    50.00 Ry     beta= 0.60
     Davidson diagonalization with overlap
     ethr =  4.26E-03,  avg # of iterations =  1.0

     total cpu time spent up to now is     5501.2 secs

     total energy              =    -469.25946237 Ry
     Harris-Foulkes estimate   =    -469.56629392 Ry
     estimated scf accuracy    <       2.36590197 Ry

     iteration #  8     ecut=    50.00 Ry     beta= 0.60
     Davidson diagonalization with overlap
     ethr =  4.26E-03,  avg # of iterations =  1.0

     total cpu time spent up to now is     5562.8 secs

     total energy              =    -469.18937373 Ry
     Harris-Foulkes estimate   =    -469.29685530 Ry
     estimated scf accuracy    <       1.22573558 Ry

     iteration #  9     ecut=    50.00 Ry     beta= 0.60
     Davidson diagonalization with overlap
     ethr =  2.45E-03,  avg # of iterations =  1.4

     total cpu time spent up to now is     5625.3 secs

     total energy              =    -469.20461407 Ry
     Harris-Foulkes estimate   =    -469.21378250 Ry
     estimated scf accuracy    <       0.63335518 Ry

     iteration # 10     ecut=    50.00 Ry     beta= 0.60
     Davidson diagonalization with overlap
     ethr =  1.27E-03,  avg # of iterations =  1.3

     total cpu time spent up to now is     5687.8 secs

     total energy              =    -468.95077147 Ry
     Harris-Foulkes estimate   =    -469.21280113 Ry
     estimated scf accuracy    <       0.52071998 Ry

     iteration # 11     ecut=    50.00 Ry     beta= 0.60
     Davidson diagonalization with overlap
     ethr =  1.04E-03,  avg # of iterations =  4.3

     total cpu time spent up to now is     5793.9 secs

     total energy              =    -469.37938775 Ry
     Harris-Foulkes estimate   =    -469.37480177 Ry
     estimated scf accuracy    <       3.15371917 Ry

     iteration # 12     ecut=    50.00 Ry     beta= 0.60
     Davidson diagonalization with overlap
     ethr =  1.04E-03,  avg # of iterations =  1.0

     total cpu time spent up to now is     5855.6 secs

     total energy              =    -469.37473190 Ry
     Harris-Foulkes estimate   =    -469.38088501 Ry
     estimated scf accuracy    <       3.12900818 Ry

     iteration # 13     ecut=    50.00 Ry     beta= 0.60
     Davidson diagonalization with overlap
     ethr =  1.04E-03,  avg # of iterations =  1.0

     total cpu time spent up to now is     5917.5 secs

     total energy              =    -469.40840829 Ry
     Harris-Foulkes estimate   =    -469.37639883 Ry
     estimated scf accuracy    <       3.13808231 Ry

     iteration # 14     ecut=    50.00 Ry     beta= 0.60
     Davidson diagonalization with overlap
     ethr =  1.04E-03,  avg # of iterations =  1.0

     total cpu time spent up to now is     5978.9 secs

     total energy              =    -469.62375678 Ry
     Harris-Foulkes estimate   =    -469.41185322 Ry
     estimated scf accuracy    <       3.53210524 Ry

     iteration # 15     ecut=    50.00 Ry     beta= 0.60
     Davidson diagonalization with overlap
     ethr =  1.04E-03,  avg # of iterations =  1.8

     total cpu time spent up to now is     6043.0 secs

     total energy              =    -469.61713938 Ry
     Harris-Foulkes estimate   =    -469.65620376 Ry
     estimated scf accuracy    <       6.24820507 Ry

     iteration # 16     ecut=    50.00 Ry     beta= 0.60
     Davidson diagonalization with overlap
     ethr =  1.04E-03,  avg # of iterations =  1.0

     total cpu time spent up to now is     6103.4 secs

     total energy              =    -468.75032584 Ry
     Harris-Foulkes estimate   =    -469.62164209 Ry
     estimated scf accuracy    <       5.95409586 Ry

     iteration # 17     ecut=    50.00 Ry     beta= 0.60
     Davidson diagonalization with overlap
     ethr =  1.04E-03,  avg # of iterations =  4.5

     total cpu time spent up to now is     6191.6 secs

     total energy              =    -469.15638489 Ry
     Harris-Foulkes estimate   =    -469.15810449 Ry
     estimated scf accuracy    <       0.00968611 Ry

     iteration # 18     ecut=    50.00 Ry     beta= 0.60
     Davidson diagonalization with overlap
     ethr =  1.94E-05,  avg # of iterations =  6.2

     total cpu time spent up to now is     6286.7 secs

     total energy              =    -469.15849924 Ry
     Harris-Foulkes estimate   =    -469.15895052 Ry
     estimated scf accuracy    <       0.00172228 Ry

     iteration # 19     ecut=    50.00 Ry     beta= 0.60
     Davidson diagonalization with overlap
     ethr =  3.44E-06,  avg # of iterations =  5.3

     total cpu time spent up to now is     6368.1 secs

     total energy              =    -469.15874279 Ry
     Harris-Foulkes estimate   =    -469.15876079 Ry
     estimated scf accuracy    <       0.00014124 Ry

     iteration # 20     ecut=    50.00 Ry     beta= 0.60
     Davidson diagonalization with overlap
     ethr =  2.82E-07,  avg # of iterations =  3.5

     total cpu time spent up to now is     6443.4 secs

     total energy              =    -469.15875844 Ry
     Harris-Foulkes estimate   =    -469.15877094 Ry
     estimated scf accuracy    <       0.00011470 Ry

     iteration # 21     ecut=    50.00 Ry     beta= 0.60
     Davidson diagonalization with overlap
     ethr =  2.29E-07,  avg # of iterations =  1.0

     total cpu time spent up to now is     6502.5 secs

     total energy              =    -469.15875894 Ry
     Harris-Foulkes estimate   =    -469.15876348 Ry
     estimated scf accuracy    <       0.00002926 Ry

     iteration # 22     ecut=    50.00 Ry     beta= 0.60
     Davidson diagonalization with overlap
     ethr =  5.85E-08,  avg # of iterations =  3.2

     total cpu time spent up to now is     6574.1 secs

     total energy              =    -469.15876239 Ry
     Harris-Foulkes estimate   =    -469.15876270 Ry
     estimated scf accuracy    <       0.00000198 Ry

     iteration # 23     ecut=    50.00 Ry     beta= 0.60
     Davidson diagonalization with overlap
     ethr =  3.97E-09,  avg # of iterations =  3.8

     total cpu time spent up to now is     6652.1 secs

     total energy              =    -469.15876273 Ry
     Harris-Foulkes estimate   =    -469.15876296 Ry
     estimated scf accuracy    <       0.00000188 Ry

     iteration # 24     ecut=    50.00 Ry     beta= 0.60
     Davidson diagonalization with overlap
     ethr =  3.76E-09,  avg # of iterations =  1.0

     total cpu time spent up to now is     6710.7 secs

     total energy              =    -469.15876276 Ry
     Harris-Foulkes estimate   =    -469.15876282 Ry
     estimated scf accuracy    <       0.00000038 Ry

     iteration # 25     ecut=    50.00 Ry     beta= 0.60
     Davidson diagonalization with overlap
     ethr =  7.59E-10,  avg # of iterations =  3.3

     total cpu time spent up to now is     6784.6 secs

     total energy              =    -469.15876281 Ry
     Harris-Foulkes estimate   =    -469.15876282 Ry
     estimated scf accuracy    <       0.00000006 Ry

     iteration # 26     ecut=    50.00 Ry     beta= 0.60
     Davidson diagonalization with overlap
     ethr =  1.21E-10,  avg # of iterations =  2.1

     total cpu time spent up to now is     6847.4 secs

     total energy              =    -469.15876282 Ry
     Harris-Foulkes estimate   =    -469.15876282 Ry
     estimated scf accuracy    <       0.00000002 Ry

     iteration # 27     ecut=    50.00 Ry     beta= 0.60
     Davidson diagonalization with overlap
     ethr =  3.54E-11,  avg # of iterations =  3.2

     total cpu time spent up to now is     6918.2 secs

     total energy              =    -469.15876282 Ry
     Harris-Foulkes estimate   =    -469.15876282 Ry
     estimated scf accuracy    <          1.8E-09 Ry

     iteration # 28     ecut=    50.00 Ry     beta= 0.60
     Davidson diagonalization with overlap
     ethr =  3.54E-12,  avg # of iterations =  3.3

     total cpu time spent up to now is     6995.5 secs

     End of self-consistent calculation

     Number of k-points >= 100: set verbosity='high' to print the bands.

     the Fermi energy is    16.4556 ev

!    total energy              =    -469.15876282 Ry
     Harris-Foulkes estimate   =    -469.15876282 Ry
     estimated scf accuracy    <          7.5E-11 Ry

     The total energy is the sum of the following terms:

     one-electron contribution =    -107.09645962 Ry
     hartree contribution      =      76.55011805 Ry
     xc contribution           =     -66.12222617 Ry
     ewald contribution        =    -372.48868582 Ry
     smearing contrib. (-TS)   =      -0.00150926 Ry

     convergence has been achieved in  28 iterations

     Forces acting on atoms (cartesian axes, Ry/au):

     atom    1 type  2   force =     0.00524988    0.00524988   -0.00193950
     atom    2 type  2   force =    -0.00524993   -0.00524993    0.00193900
     atom    3 type  1   force =    -0.00950794   -0.00950794    0.00084086
     atom    4 type  1   force =     0.00950799    0.00950799   -0.00084037

     Total force =     0.021927     Total SCF correction =     0.000016


     Computing stress (Cartesian axis) and pressure

          total   stress  (Ry/bohr**3)                   (kbar)     P=   59.88
   0.00040178   0.00002316  -0.00000300         59.10      3.41     -0.44
   0.00002316   0.00040178  -0.00000300          3.41     59.10     -0.44
  -0.00000300  -0.00000300   0.00041753         -0.44     -0.44     61.42


     number of scf cycles    =   3
     number of bfgs steps    =   2

     enthalpy old            =    -469.1368238379 Ry
     enthalpy new            =    -469.1587628178 Ry

     CASE: enthalpy_new < enthalpy_old

     new trust radius        =       0.0651010844 bohr
     new conv_thr            =            1.0E-10 Ry

     new unit-cell volume =    476.89182 a.u.^3 (    70.66808 Ang^3 )
     density =      6.61571 g/cm^3

CELL_PARAMETERS (alat=  1.88972599)
   1.640781641   1.640781641  -1.635607792
  -3.275515802   3.275515802   0.000000000
   1.651481887   1.651481887   4.928228010

ATOMIC_POSITIONS (angstrom)
Ti      -1.626702792   4.924328813   1.633705466
Ti       0.008363888   3.283879691   3.299881145
Nb       0.006692271   6.557723876   3.308195628
Nb       0.015758047   3.291273849  -0.010231692


     NEW-OLD atomic charge density approx. for the potential
     extrapolated charge   52.10869, renormalised to   50.00000

     total cpu time spent up to now is     7003.2 secs

     Self-consistent Calculation

     iteration #  1     ecut=    50.00 Ry     beta= 0.60
     Davidson diagonalization with overlap
     c_bands:  1 eigenvalues not converged
     c_bands:  1 eigenvalues not converged
     c_bands:  1 eigenvalues not converged
     ethr =  1.00E-06,  avg # of iterations = 12.3

     total cpu time spent up to now is     7197.1 secs

     total energy              =    -468.74654891 Ry
     Harris-Foulkes estimate   =    -465.76112887 Ry
     estimated scf accuracy    <       0.32955392 Ry

     iteration #  2     ecut=    50.00 Ry     beta= 0.60
     Davidson diagonalization with overlap
     ethr =  6.59E-04,  avg # of iterations =  6.9

     total cpu time spent up to now is     7326.2 secs

     total energy              =    -468.54506890 Ry
     Harris-Foulkes estimate   =    -469.86624875 Ry
     estimated scf accuracy    <       9.56672241 Ry

     iteration #  3     ecut=    50.00 Ry     beta= 0.60
     Davidson diagonalization with overlap
     ethr =  6.59E-04,  avg # of iterations =  5.0

     total cpu time spent up to now is     7427.4 secs

     total energy              =    -469.11649525 Ry
     Harris-Foulkes estimate   =    -469.28574134 Ry
     estimated scf accuracy    <       0.65843923 Ry

     iteration #  4     ecut=    50.00 Ry     beta= 0.60
     Davidson diagonalization with overlap
     ethr =  6.59E-04,  avg # of iterations =  3.0

     total cpu time spent up to now is     7498.8 secs

     total energy              =    -469.17353535 Ry
     Harris-Foulkes estimate   =    -469.18225112 Ry
     estimated scf accuracy    <       0.08645029 Ry

     iteration #  5     ecut=    50.00 Ry     beta= 0.60
     Davidson diagonalization with overlap
     ethr =  1.73E-04,  avg # of iterations =  3.0

     total cpu time spent up to now is     7564.4 secs

     total energy              =    -469.16793450 Ry
     Harris-Foulkes estimate   =    -469.17685758 Ry
     estimated scf accuracy    <       0.06960155 Ry

     iteration #  6     ecut=    50.00 Ry     beta= 0.60
     Davidson diagonalization with overlap
     ethr =  1.39E-04,  avg # of iterations =  1.0

     total cpu time spent up to now is     7623.1 secs

     total energy              =    -469.16680995 Ry
     Harris-Foulkes estimate   =    -469.16958700 Ry
     estimated scf accuracy    <       0.04358636 Ry

     iteration #  7     ecut=    50.00 Ry     beta= 0.60
     Davidson diagonalization with overlap
     ethr =  8.72E-05,  avg # of iterations =  1.1

     total cpu time spent up to now is     7681.9 secs

     total energy              =    -469.16368011 Ry
     Harris-Foulkes estimate   =    -469.16755492 Ry
     estimated scf accuracy    <       0.03406501 Ry

     iteration #  8     ecut=    50.00 Ry     beta= 0.60
     Davidson diagonalization with overlap
     ethr =  6.81E-05,  avg # of iterations =  1.0

     total cpu time spent up to now is     7741.0 secs

     total energy              =    -469.16337180 Ry
     Harris-Foulkes estimate   =    -469.16436009 Ry
     estimated scf accuracy    <       0.01759669 Ry

     iteration #  9     ecut=    50.00 Ry     beta= 0.60
     Davidson diagonalization with overlap
     c_bands:  1 eigenvalues not converged
     ethr =  3.52E-05,  avg # of iterations =  2.2

     total cpu time spent up to now is     7803.3 secs

     total energy              =    -469.16255945 Ry
     Harris-Foulkes estimate   =    -469.16375975 Ry
     estimated scf accuracy    <       0.01132255 Ry

     iteration # 10     ecut=    50.00 Ry     beta= 0.60
     Davidson diagonalization with overlap
     ethr =  2.26E-05,  avg # of iterations =  1.8

     total cpu time spent up to now is     7864.6 secs

     total energy              =    -469.16182902 Ry
     Harris-Foulkes estimate   =    -469.16281611 Ry
     estimated scf accuracy    <       0.00536592 Ry

     iteration # 11     ecut=    50.00 Ry     beta= 0.60
     Davidson diagonalization with overlap
     ethr =  1.07E-05,  avg # of iterations =  4.8

     total cpu time spent up to now is     7944.7 secs

     total energy              =    -469.16251615 Ry
     Harris-Foulkes estimate   =    -469.16252955 Ry
     estimated scf accuracy    <       0.00003925 Ry

     iteration # 12     ecut=    50.00 Ry     beta= 0.60
     Davidson diagonalization with overlap
     c_bands:  1 eigenvalues not converged
     c_bands:  2 eigenvalues not converged
     ethr =  7.85E-08,  avg # of iterations =  5.5

     total cpu time spent up to now is     8055.1 secs

     total energy              =    -469.16256476 Ry
     Harris-Foulkes estimate   =    -469.16257959 Ry
     estimated scf accuracy    <       0.00026013 Ry

     iteration # 13     ecut=    50.00 Ry     beta= 0.60
     Davidson diagonalization with overlap
     ethr =  7.85E-08,  avg # of iterations =  1.0

     total cpu time spent up to now is     8113.9 secs

     total energy              =    -469.16254554 Ry
     Harris-Foulkes estimate   =    -469.16256695 Ry
     estimated scf accuracy    <       0.00013463 Ry

     iteration # 14     ecut=    50.00 Ry     beta= 0.60
     Davidson diagonalization with overlap
     ethr =  7.85E-08,  avg # of iterations =  3.5

     total cpu time spent up to now is     8191.1 secs

     total energy              =    -469.16255830 Ry
     Harris-Foulkes estimate   =    -469.16256069 Ry
     estimated scf accuracy    <       0.00001327 Ry

     iteration # 15     ecut=    50.00 Ry     beta= 0.60
     Davidson diagonalization with overlap
     ethr =  2.65E-08,  avg # of iterations =  1.5

     total cpu time spent up to now is     8251.3 secs

     total energy              =    -469.16255903 Ry
     Harris-Foulkes estimate   =    -469.16255920 Ry
     estimated scf accuracy    <       0.00000157 Ry

     iteration # 16     ecut=    50.00 Ry     beta= 0.60
     Davidson diagonalization with overlap
     ethr =  3.14E-09,  avg # of iterations =  3.8

     total cpu time spent up to now is     8330.4 secs

     total energy              =    -469.16255905 Ry
     Harris-Foulkes estimate   =    -469.16255926 Ry
     estimated scf accuracy    <       0.00000098 Ry

     iteration # 17     ecut=    50.00 Ry     beta= 0.60
     Davidson diagonalization with overlap
     ethr =  1.96E-09,  avg # of iterations =  1.0

     total cpu time spent up to now is     8389.2 secs

     total energy              =    -469.16255899 Ry
     Harris-Foulkes estimate   =    -469.16255909 Ry
     estimated scf accuracy    <       0.00000041 Ry

     iteration # 18     ecut=    50.00 Ry     beta= 0.60
     Davidson diagonalization with overlap
     ethr =  8.24E-10,  avg # of iterations =  2.7

     total cpu time spent up to now is     8459.4 secs

     total energy              =    -469.16255892 Ry
     Harris-Foulkes estimate   =    -469.16255906 Ry
     estimated scf accuracy    <       0.00000059 Ry

     iteration # 19     ecut=    50.00 Ry     beta= 0.60
     Davidson diagonalization with overlap
     ethr =  8.24E-10,  avg # of iterations =  3.7

     total cpu time spent up to now is     8535.7 secs

     total energy              =    -469.16255897 Ry
     Harris-Foulkes estimate   =    -469.16255904 Ry
     estimated scf accuracy    <       0.00000039 Ry

     iteration # 20     ecut=    50.00 Ry     beta= 0.60
     Davidson diagonalization with overlap
     ethr =  7.73E-10,  avg # of iterations =  1.6

     total cpu time spent up to now is     8595.8 secs

     total energy              =    -469.16255899 Ry
     Harris-Foulkes estimate   =    -469.16255899 Ry
     estimated scf accuracy    <       0.00000002 Ry

     iteration # 21     ecut=    50.00 Ry     beta= 0.60
     Davidson diagonalization with overlap
     ethr =  3.15E-11,  avg # of iterations =  4.9

     total cpu time spent up to now is     8685.5 secs

     total energy              =    -469.16255900 Ry
     Harris-Foulkes estimate   =    -469.16255901 Ry
     estimated scf accuracy    <       0.00000002 Ry

     iteration # 22     ecut=    50.00 Ry     beta= 0.60
     Davidson diagonalization with overlap
     ethr =  3.15E-11,  avg # of iterations =  1.0

     total cpu time spent up to now is     8743.9 secs

     total energy              =    -469.16255900 Ry
     Harris-Foulkes estimate   =    -469.16255900 Ry
     estimated scf accuracy    <          4.2E-09 Ry

     iteration # 23     ecut=    50.00 Ry     beta= 0.60
     Davidson diagonalization with overlap
     ethr =  8.46E-12,  avg # of iterations =  3.8

     total cpu time spent up to now is     8820.7 secs

     End of self-consistent calculation

     Number of k-points >= 100: set verbosity='high' to print the bands.

     the Fermi energy is    15.6161 ev

!    total energy              =    -469.16255900 Ry
     Harris-Foulkes estimate   =    -469.16255900 Ry
     estimated scf accuracy    <          2.4E-11 Ry

     The total energy is the sum of the following terms:

     one-electron contribution =    -115.05278915 Ry
     hartree contribution      =      78.80718755 Ry
     xc contribution           =     -65.94512247 Ry
     ewald contribution        =    -366.97044456 Ry
     smearing contrib. (-TS)   =      -0.00139037 Ry

     convergence has been achieved in  23 iterations

     Forces acting on atoms (cartesian axes, Ry/au):

     atom    1 type  2   force =     0.00353232    0.00353232   -0.00432504
     atom    2 type  2   force =    -0.00353235   -0.00353235    0.00432437
     atom    3 type  1   force =    -0.00745713   -0.00745713    0.00419500
     atom    4 type  1   force =     0.00745716    0.00745716   -0.00419433

     Total force =     0.018573     Total SCF correction =     0.000011


     Computing stress (Cartesian axis) and pressure

          total   stress  (Ry/bohr**3)                   (kbar)     P=   -6.43
  -0.00004846   0.00002402   0.00000540         -7.13      3.53      0.79
   0.00002402  -0.00004846   0.00000540          3.53     -7.13      0.79
   0.00000540   0.00000540  -0.00003421          0.79      0.79     -5.03


     number of scf cycles    =   4
     number of bfgs steps    =   3

     enthalpy old            =    -469.1587628178 Ry
     enthalpy new            =    -469.1625590031 Ry

     CASE: enthalpy_new < enthalpy_old

     new trust radius        =       0.0101863403 bohr
     new conv_thr            =            1.0E-10 Ry

     new unit-cell volume =    474.97005 a.u.^3 (    70.38330 Ang^3 )
     density =      6.64248 g/cm^3

CELL_PARAMETERS (alat=  1.88972599)
   1.639109899   1.639109899  -1.633324868
  -3.268877323   3.268877323   0.000000000
   1.650687549   1.650687549   4.923136566

ATOMIC_POSITIONS (angstrom)
Ti      -1.619636786   4.918117859   1.630279605
Ti       0.009008828   3.277886151   3.298654707
Nb       0.007334296   6.545088941   3.307344949
Nb       0.021155313   3.290032635  -0.011750017


     NEW-OLD atomic charge density approx. for the potential
     extrapolated charge   49.80581, renormalised to   50.00000

     total cpu time spent up to now is     8828.5 secs

     Self-consistent Calculation

     iteration #  1     ecut=    50.00 Ry     beta= 0.60
     Davidson diagonalization with overlap
     ethr =  1.00E-06,  avg # of iterations =  4.8

     total cpu time spent up to now is     8956.6 secs

     total energy              =    -469.15768013 Ry
     Harris-Foulkes estimate   =    -469.48152078 Ry
     estimated scf accuracy    <       0.00461618 Ry

     iteration #  2     ecut=    50.00 Ry     beta= 0.60
     Davidson diagonalization with overlap
     c_bands:  1 eigenvalues not converged
     ethr =  9.23E-06,  avg # of iterations =  6.0

     total cpu time spent up to now is     9079.1 secs

     total energy              =    -469.15585983 Ry
     Harris-Foulkes estimate   =    -469.17333603 Ry
     estimated scf accuracy    <       0.11229431 Ry

     iteration #  3     ecut=    50.00 Ry     beta= 0.60
     Davidson diagonalization with overlap
     ethr =  9.23E-06,  avg # of iterations =  5.0

     total cpu time spent up to now is     9179.0 secs

     total energy              =    -469.16274843 Ry
     Harris-Foulkes estimate   =    -469.16416490 Ry
     estimated scf accuracy    <       0.00419964 Ry

     iteration #  4     ecut=    50.00 Ry     beta= 0.60
     Davidson diagonalization with overlap
     ethr =  8.40E-06,  avg # of iterations =  2.0

     total cpu time spent up to now is     9242.2 secs

     total energy              =    -469.16303020 Ry
     Harris-Foulkes estimate   =    -469.16321951 Ry
     estimated scf accuracy    <       0.00163616 Ry

     iteration #  5     ecut=    50.00 Ry     beta= 0.60
     Davidson diagonalization with overlap
     ethr =  3.27E-06,  avg # of iterations =  1.8

     total cpu time spent up to now is     9303.0 secs

     total energy              =    -469.16288678 Ry
     Harris-Foulkes estimate   =    -469.16308221 Ry
     estimated scf accuracy    <       0.00103286 Ry

     iteration #  6     ecut=    50.00 Ry     beta= 0.60
     Davidson diagonalization with overlap
     ethr =  2.07E-06,  avg # of iterations =  1.8

     total cpu time spent up to now is     9363.8 secs

     total energy              =    -469.16289142 Ry
     Harris-Foulkes estimate   =    -469.16293923 Ry
     estimated scf accuracy    <       0.00033305 Ry

     iteration #  7     ecut=    50.00 Ry     beta= 0.60
     Davidson diagonalization with overlap
     ethr =  6.66E-07,  avg # of iterations =  2.7

     total cpu time spent up to now is     9432.4 secs

     total energy              =    -469.16291337 Ry
     Harris-Foulkes estimate   =    -469.16292578 Ry
     estimated scf accuracy    <       0.00008314 Ry

     iteration #  8     ecut=    50.00 Ry     beta= 0.60
     Davidson diagonalization with overlap
     ethr =  1.66E-07,  avg # of iterations =  3.3

     total cpu time spent up to now is     9503.0 secs

     total energy              =    -469.16292190 Ry
     Harris-Foulkes estimate   =    -469.16292297 Ry
     estimated scf accuracy    <       0.00000344 Ry

     iteration #  9     ecut=    50.00 Ry     beta= 0.60
     Davidson diagonalization with overlap
     ethr =  6.87E-09,  avg # of iterations =  4.3

     total cpu time spent up to now is     9591.2 secs

     total energy              =    -469.16292350 Ry
     Harris-Foulkes estimate   =    -469.16292368 Ry
     estimated scf accuracy    <       0.00000060 Ry

     iteration # 10     ecut=    50.00 Ry     beta= 0.60
     Davidson diagonalization with overlap
     ethr =  1.19E-09,  avg # of iterations =  3.2

     total cpu time spent up to now is     9667.9 secs

     total energy              =    -469.16292361 Ry
     Harris-Foulkes estimate   =    -469.16292365 Ry
     estimated scf accuracy    <       0.00000018 Ry

     iteration # 11     ecut=    50.00 Ry     beta= 0.60
     Davidson diagonalization with overlap
     ethr =  3.68E-10,  avg # of iterations =  2.0

     total cpu time spent up to now is     9730.9 secs

     total energy              =    -469.16292362 Ry
     Harris-Foulkes estimate   =    -469.16292362 Ry
     estimated scf accuracy    <       0.00000002 Ry

     iteration # 12     ecut=    50.00 Ry     beta= 0.60
     Davidson diagonalization with overlap
     ethr =  3.05E-11,  avg # of iterations =  4.1

     total cpu time spent up to now is     9820.8 secs

     total energy              =    -469.16292363 Ry
     Harris-Foulkes estimate   =    -469.16292363 Ry
     estimated scf accuracy    <          4.0E-09 Ry

     iteration # 13     ecut=    50.00 Ry     beta= 0.60
     Davidson diagonalization with overlap
     ethr =  7.95E-12,  avg # of iterations =  1.5

     total cpu time spent up to now is     9883.3 secs

     total energy              =    -469.16292363 Ry
     Harris-Foulkes estimate   =    -469.16292363 Ry
     estimated scf accuracy    <          1.1E-09 Ry

     iteration # 14     ecut=    50.00 Ry     beta= 0.60
     Davidson diagonalization with overlap
     ethr =  2.19E-12,  avg # of iterations =  3.4

     total cpu time spent up to now is     9961.9 secs

     total energy              =    -469.16292363 Ry
     Harris-Foulkes estimate   =    -469.16292363 Ry
     estimated scf accuracy    <          4.1E-10 Ry

     iteration # 15     ecut=    50.00 Ry     beta= 0.60
     Davidson diagonalization with overlap
     ethr =  8.26E-13,  avg # of iterations =  1.2

     total cpu time spent up to now is    10023.1 secs

     End of self-consistent calculation

     Number of k-points >= 100: set verbosity='high' to print the bands.

     the Fermi energy is    15.6889 ev

!    total energy              =    -469.16292363 Ry
     Harris-Foulkes estimate   =    -469.16292363 Ry
     estimated scf accuracy    <          9.7E-11 Ry

     The total energy is the sum of the following terms:

     one-electron contribution =    -114.33661757 Ry
     hartree contribution      =      78.60016301 Ry
     xc contribution           =     -65.96062340 Ry
     ewald contribution        =    -367.46451950 Ry
     smearing contrib. (-TS)   =      -0.00132616 Ry

     convergence has been achieved in  15 iterations

     Forces acting on atoms (cartesian axes, Ry/au):

     atom    1 type  2   force =     0.00341588    0.00341588   -0.00417314
     atom    2 type  2   force =    -0.00341541   -0.00341541    0.00417260
     atom    3 type  1   force =    -0.00691465   -0.00691465    0.00405827
     atom    4 type  1   force =     0.00691418    0.00691418   -0.00405773

     Total force =     0.017483     Total SCF correction =     0.000021


     Computing stress (Cartesian axis) and pressure

          total   stress  (Ry/bohr**3)                   (kbar)     P=   -0.99
  -0.00001193   0.00002419   0.00000423         -1.75      3.56      0.62
   0.00002419  -0.00001193   0.00000423          3.56     -1.75      0.62
   0.00000423   0.00000423   0.00000376          0.62      0.62      0.55


     number of scf cycles    =   5
     number of bfgs steps    =   4

     enthalpy old            =    -469.1625590031 Ry
     enthalpy new            =    -469.1629236268 Ry

     CASE: enthalpy_new < enthalpy_old

     new trust radius        =       0.0152635073 bohr
     new conv_thr            =            1.0E-10 Ry

     new unit-cell volume =    473.80137 a.u.^3 (    70.21012 Ang^3 )
     density =      6.65886 g/cm^3

CELL_PARAMETERS (alat=  1.88972599)
   1.638651696   1.638651696  -1.632026763
  -3.262633180   3.262633180   0.000000000
   1.651367025   1.651367025   4.921521504

ATOMIC_POSITIONS (angstrom)
Ti      -1.610713540   4.914552820   1.627035173
Ti       0.009957668   3.272590847   3.300853564
Nb       0.008500600   6.533766960   3.310005618
Nb       0.029402534   3.292035714  -0.014157502


     NEW-OLD atomic charge density approx. for the potential
     extrapolated charge   49.88162, renormalised to   50.00000

     total cpu time spent up to now is    10032.3 secs

     Self-consistent Calculation

     iteration #  1     ecut=    50.00 Ry     beta= 0.60
     Davidson diagonalization with overlap
     ethr =  1.00E-06,  avg # of iterations =  4.7

     total cpu time spent up to now is    10168.8 secs

     total energy              =    -469.16155319 Ry
     Harris-Foulkes estimate   =    -469.35676337 Ry
     estimated scf accuracy    <       0.00157350 Ry

     iteration #  2     ecut=    50.00 Ry     beta= 0.60
     Davidson diagonalization with overlap
     c_bands:  1 eigenvalues not converged
     ethr =  3.15E-06,  avg # of iterations =  5.8

     total cpu time spent up to now is    10296.9 secs

     total energy              =    -469.16102149 Ry
     Harris-Foulkes estimate   =    -469.16671683 Ry
     estimated scf accuracy    <       0.03654585 Ry

     iteration #  3     ecut=    50.00 Ry     beta= 0.60
     Davidson diagonalization with overlap
     ethr =  3.15E-06,  avg # of iterations =  5.0

     total cpu time spent up to now is    10401.5 secs

     total energy              =    -469.16327721 Ry
     Harris-Foulkes estimate   =    -469.16380674 Ry
     estimated scf accuracy    <       0.00160270 Ry

     iteration #  4     ecut=    50.00 Ry     beta= 0.60
     Davidson diagonalization with overlap
     ethr =  3.15E-06,  avg # of iterations =  2.0

     total cpu time spent up to now is    10467.3 secs

     total energy              =    -469.16338794 Ry
     Harris-Foulkes estimate   =    -469.16346062 Ry
     estimated scf accuracy    <       0.00054374 Ry

     iteration #  5     ecut=    50.00 Ry     beta= 0.60
     Davidson diagonalization with overlap
     ethr =  1.09E-06,  avg # of iterations =  1.9

     total cpu time spent up to now is    10531.8 secs

     total energy              =    -469.16332506 Ry
     Harris-Foulkes estimate   =    -469.16340902 Ry
     estimated scf accuracy    <       0.00032285 Ry

     iteration #  6     ecut=    50.00 Ry     beta= 0.60
     Davidson diagonalization with overlap
     ethr =  6.46E-07,  avg # of iterations =  2.8

     total cpu time spent up to now is    10602.8 secs

     total energy              =    -469.16334992 Ry
     Harris-Foulkes estimate   =    -469.16336147 Ry
     estimated scf accuracy    <       0.00009109 Ry

     iteration #  7     ecut=    50.00 Ry     beta= 0.60
     Davidson diagonalization with overlap
     ethr =  1.82E-07,  avg # of iterations =  2.2

     total cpu time spent up to now is    10668.8 secs

     total energy              =    -469.16335792 Ry
     Harris-Foulkes estimate   =    -469.16335916 Ry
     estimated scf accuracy    <       0.00001077 Ry

     iteration #  8     ecut=    50.00 Ry     beta= 0.60
     Davidson diagonalization with overlap
     ethr =  2.15E-08,  avg # of iterations =  4.0

     total cpu time spent up to now is    10753.8 secs

     total energy              =    -469.16335978 Ry
     Harris-Foulkes estimate   =    -469.16336031 Ry
     estimated scf accuracy    <       0.00000392 Ry

     iteration #  9     ecut=    50.00 Ry     beta= 0.60
     Davidson diagonalization with overlap
     ethr =  7.83E-09,  avg # of iterations =  1.0

     total cpu time spent up to now is    10814.9 secs

     total energy              =    -469.16335886 Ry
     Harris-Foulkes estimate   =    -469.16335991 Ry
     estimated scf accuracy    <       0.00000247 Ry

     iteration # 10     ecut=    50.00 Ry     beta= 0.60
     Davidson diagonalization with overlap
     ethr =  4.95E-09,  avg # of iterations =  3.0

     total cpu time spent up to now is    10891.1 secs

     total energy              =    -469.16335910 Ry
     Harris-Foulkes estimate   =    -469.16335918 Ry
     estimated scf accuracy    <       0.00000016 Ry

     iteration # 11     ecut=    50.00 Ry     beta= 0.60
     Davidson diagonalization with overlap
     ethr =  3.28E-10,  avg # of iterations =  4.0

     total cpu time spent up to now is    10984.6 secs

     total energy              =    -469.16335915 Ry
     Harris-Foulkes estimate   =    -469.16335917 Ry
     estimated scf accuracy    <       0.00000005 Ry

     iteration # 12     ecut=    50.00 Ry     beta= 0.60
     Davidson diagonalization with overlap
     ethr =  9.93E-11,  avg # of iterations =  3.0

     total cpu time spent up to now is    11058.3 secs

     total energy              =    -469.16335916 Ry
     Harris-Foulkes estimate   =    -469.16335916 Ry
     estimated scf accuracy    <          3.8E-09 Ry

     iteration # 13     ecut=    50.00 Ry     beta= 0.60
     Davidson diagonalization with overlap
     ethr =  7.52E-12,  avg # of iterations =  4.0

     total cpu time spent up to now is    11149.6 secs

     total energy              =    -469.16335916 Ry
     Harris-Foulkes estimate   =    -469.16335916 Ry
     estimated scf accuracy    <          4.7E-10 Ry

     iteration # 14     ecut=    50.00 Ry     beta= 0.60
     Davidson diagonalization with overlap
     ethr =  9.32E-13,  avg # of iterations =  2.1

     total cpu time spent up to now is    11217.2 secs

     End of self-consistent calculation

     Number of k-points >= 100: set verbosity='high' to print the bands.

     the Fermi energy is    15.7327 ev

!    total energy              =    -469.16335916 Ry
     Harris-Foulkes estimate   =    -469.16335916 Ry
     estimated scf accuracy    <          2.8E-11 Ry

     The total energy is the sum of the following terms:

     one-electron contribution =    -113.90085141 Ry
     hartree contribution      =      78.47373577 Ry
     xc contribution           =     -65.97017598 Ry
     ewald contribution        =    -367.76484461 Ry
     smearing contrib. (-TS)   =      -0.00122293 Ry

     convergence has been achieved in  14 iterations

     Forces acting on atoms (cartesian axes, Ry/au):

     atom    1 type  2   force =     0.00313329    0.00313329   -0.00404279
     atom    2 type  2   force =    -0.00313175   -0.00313175    0.00404277
     atom    3 type  1   force =    -0.00596489   -0.00596489    0.00402549
     atom    4 type  1   force =     0.00596334    0.00596334   -0.00402546

     Total force =     0.015704     Total SCF correction =     0.000005


     Computing stress (Cartesian axis) and pressure

          total   stress  (Ry/bohr**3)                   (kbar)     P=    2.30
   0.00000969   0.00002375   0.00000290          1.43      3.49      0.43
   0.00002375   0.00000969   0.00000290          3.49      1.43      0.43
   0.00000290   0.00000290   0.00002747          0.43      0.43      4.04


     number of scf cycles    =   6
     number of bfgs steps    =   5

     enthalpy old            =    -469.1629236268 Ry
     enthalpy new            =    -469.1633591604 Ry

     CASE: enthalpy_new < enthalpy_old

     new trust radius        =       0.0228878819 bohr
     new conv_thr            =            1.0E-10 Ry

     new unit-cell volume =    472.98414 a.u.^3 (    70.08902 Ang^3 )
     density =      6.67037 g/cm^3

CELL_PARAMETERS (alat=  1.88972599)
   1.639131101   1.639131101  -1.631368712
  -3.255075687   3.255075687   0.000000000
   1.653384591   1.653384591   4.922628983

ATOMIC_POSITIONS (angstrom)
Ti      -1.597978475   4.912172898   1.623077062
Ti       0.011441298   3.266516985   3.306689307
Nb       0.010663637   6.520815010   3.316493443
Nb       0.041935710   3.297011396  -0.018109136


     NEW-OLD atomic charge density approx. for the potential
     extrapolated charge   49.91707, renormalised to   50.00000

     total cpu time spent up to now is    11225.7 secs

     Self-consistent Calculation

     iteration #  1     ecut=    50.00 Ry     beta= 0.60
     Davidson diagonalization with overlap
     ethr =  1.00E-06,  avg # of iterations =  4.9

     total cpu time spent up to now is    11359.9 secs

     total energy              =    -469.16310981 Ry
     Harris-Foulkes estimate   =    -469.29904133 Ry
     estimated scf accuracy    <       0.00072614 Ry

     iteration #  2     ecut=    50.00 Ry     beta= 0.60
     Davidson diagonalization with overlap
     ethr =  1.45E-06,  avg # of iterations =  5.2

     total cpu time spent up to now is    11480.4 secs

     total energy              =    -469.16300196 Ry
     Harris-Foulkes estimate   =    -469.16519127 Ry
     estimated scf accuracy    <       0.01331240 Ry

     iteration #  3     ecut=    50.00 Ry     beta= 0.60
     Davidson diagonalization with overlap
     ethr =  1.45E-06,  avg # of iterations =  4.9

     total cpu time spent up to now is    11578.4 secs

     total energy              =    -469.16384750 Ry
     Harris-Foulkes estimate   =    -469.16413851 Ry
     estimated scf accuracy    <       0.00094866 Ry

     iteration #  4     ecut=    50.00 Ry     beta= 0.60
     Davidson diagonalization with overlap
     ethr =  1.45E-06,  avg # of iterations =  2.1

     total cpu time spent up to now is    11645.3 secs

     total energy              =    -469.16392338 Ry
     Harris-Foulkes estimate   =    -469.16396426 Ry
     estimated scf accuracy    <       0.00024699 Ry

     iteration #  5     ecut=    50.00 Ry     beta= 0.60
     Davidson diagonalization with overlap
     ethr =  4.94E-07,  avg # of iterations =  1.6

     total cpu time spent up to now is    11706.1 secs

     total energy              =    -469.16390106 Ry
     Harris-Foulkes estimate   =    -469.16393429 Ry
     estimated scf accuracy    <       0.00011299 Ry

     iteration #  6     ecut=    50.00 Ry     beta= 0.60
     Davidson diagonalization with overlap
     ethr =  2.26E-07,  avg # of iterations =  3.0

     total cpu time spent up to now is    11779.4 secs

     total energy              =    -469.16391443 Ry
     Harris-Foulkes estimate   =    -469.16392172 Ry
     estimated scf accuracy    <       0.00006534 Ry

     iteration #  7     ecut=    50.00 Ry     beta= 0.60
     Davidson diagonalization with overlap
     ethr =  1.31E-07,  avg # of iterations =  1.0

     total cpu time spent up to now is    11838.1 secs

     total energy              =    -469.16391743 Ry
     Harris-Foulkes estimate   =    -469.16391846 Ry
     estimated scf accuracy    <       0.00000529 Ry

     iteration #  8     ecut=    50.00 Ry     beta= 0.60
     Davidson diagonalization with overlap
     ethr =  1.06E-08,  avg # of iterations =  4.0

     total cpu time spent up to now is    11918.2 secs

     total energy              =    -469.16391800 Ry
     Harris-Foulkes estimate   =    -469.16391844 Ry
     estimated scf accuracy    <       0.00000242 Ry

     iteration #  9     ecut=    50.00 Ry     beta= 0.60
     Davidson diagonalization with overlap
     ethr =  4.84E-09,  avg # of iterations =  1.1

     total cpu time spent up to now is    11977.4 secs

     total energy              =    -469.16391789 Ry
     Harris-Foulkes estimate   =    -469.16391814 Ry
     estimated scf accuracy    <       0.00000099 Ry

     iteration # 10     ecut=    50.00 Ry     beta= 0.60
     Davidson diagonalization with overlap
     ethr =  1.99E-09,  avg # of iterations =  2.5

     total cpu time spent up to now is    12044.5 secs

     total energy              =    -469.16391795 Ry
     Harris-Foulkes estimate   =    -469.16391799 Ry
     estimated scf accuracy    <       0.00000013 Ry

     iteration # 11     ecut=    50.00 Ry     beta= 0.60
     Davidson diagonalization with overlap
     ethr =  2.68E-10,  avg # of iterations =  3.6

     total cpu time spent up to now is    12127.8 secs

     total energy              =    -469.16391797 Ry
     Harris-Foulkes estimate   =    -469.16391798 Ry
     estimated scf accuracy    <       0.00000005 Ry

     iteration # 12     ecut=    50.00 Ry     beta= 0.60
     Davidson diagonalization with overlap
     ethr =  9.37E-11,  avg # of iterations =  1.8

     total cpu time spent up to now is    12188.9 secs

     total energy              =    -469.16391797 Ry
     Harris-Foulkes estimate   =    -469.16391797 Ry
     estimated scf accuracy    <          6.8E-10 Ry

     iteration # 13     ecut=    50.00 Ry     beta= 0.60
     Davidson diagonalization with overlap
     ethr =  1.35E-12,  avg # of iterations =  4.8

     total cpu time spent up to now is    12289.8 secs

     total energy              =    -469.16391797 Ry
     Harris-Foulkes estimate   =    -469.16391797 Ry
     estimated scf accuracy    <          1.5E-09 Ry

     iteration # 14     ecut=    50.00 Ry     beta= 0.60
     Davidson diagonalization with overlap
     ethr =  1.35E-12,  avg # of iterations =  2.4

     total cpu time spent up to now is    12352.8 secs

     End of self-consistent calculation

     Number of k-points >= 100: set verbosity='high' to print the bands.

     the Fermi energy is    15.7630 ev

!    total energy              =    -469.16391797 Ry
     Harris-Foulkes estimate   =    -469.16391797 Ry
     estimated scf accuracy    <          6.2E-11 Ry

     The total energy is the sum of the following terms:

     one-electron contribution =    -113.60411791 Ry
     hartree contribution      =      78.38834725 Ry
     xc contribution           =     -65.97712258 Ry
     ewald contribution        =    -367.96995650 Ry
     smearing contrib. (-TS)   =      -0.00106824 Ry

     convergence has been achieved in  14 iterations

     Forces acting on atoms (cartesian axes, Ry/au):

     atom    1 type  2   force =     0.00265946    0.00265946   -0.00380382
     atom    2 type  2   force =    -0.00265775   -0.00265775    0.00380333
     atom    3 type  1   force =    -0.00445278   -0.00445278    0.00396847
     atom    4 type  1   force =     0.00445107    0.00445107   -0.00396798

     Total force =     0.012961     Total SCF correction =     0.000021


     Computing stress (Cartesian axis) and pressure

[...]

   Cartesian axes

     site n.     atom                  positions (alat units)
         1           Ti  tau(   1) = (  -1.5257675   4.9234688   1.6064398  )
         2           Ti  tau(   2) = (  -0.0140039   3.2106143   3.3797964  )
         3           Nb  tau(   3) = (   0.0227731   6.4720094   3.3928901  )
         4           Nb  tau(   4) = (   0.0803823   3.3050005  -0.0613700  )

     number of k points=   576  Marzari-Vanderbilt smearing, width (Ry)=  0.0200

     Number of k-points >= 100: set verbosity='high' to print them.

     Dense  grid:    89683 G-vectors     FFT dimensions: (  40,  64,  75)

     Smooth grid:    22703 G-vectors     FFT dimensions: (  25,  40,  48)

     Estimated max dynamical RAM per process >      92.35 MB

     Estimated total dynamical RAM >       1.08 GB

     Initial potential from superposition of free atoms

     starting charge   47.99445, renormalised to   50.00000
     Starting wfcs are   46 randomized atomic wfcs

     total cpu time spent up to now is    37291.5 secs

     Self-consistent Calculation

     iteration #  1     ecut=    50.00 Ry     beta= 0.60
     Davidson diagonalization with overlap
     c_bands:  1 eigenvalues not converged
     c_bands:  1 eigenvalues not converged
     c_bands:  1 eigenvalues not converged
     c_bands:  1 eigenvalues not converged
     c_bands:  1 eigenvalues not converged
     c_bands:  1 eigenvalues not converged
     c_bands:  1 eigenvalues not converged
     c_bands:  1 eigenvalues not converged
     c_bands:  1 eigenvalues not converged
     c_bands:  1 eigenvalues not converged
     c_bands:  1 eigenvalues not converged
     c_bands:  1 eigenvalues not converged
     c_bands:  2 eigenvalues not converged
     c_bands:  1 eigenvalues not converged
     c_bands:  1 eigenvalues not converged
     c_bands:  1 eigenvalues not converged
     c_bands:  1 eigenvalues not converged
     c_bands:  1 eigenvalues not converged
     c_bands:  1 eigenvalues not converged
     c_bands:  1 eigenvalues not converged
     c_bands:  1 eigenvalues not converged
     c_bands:  1 eigenvalues not converged
     c_bands:  1 eigenvalues not converged
     c_bands:  1 eigenvalues not converged
     c_bands:  1 eigenvalues not converged
     c_bands:  1 eigenvalues not converged
     c_bands:  1 eigenvalues not converged
     c_bands:  1 eigenvalues not converged
     c_bands:  2 eigenvalues not converged
     c_bands:  2 eigenvalues not converged
     c_bands:  1 eigenvalues not converged
     c_bands:  1 eigenvalues not converged
     c_bands:  1 eigenvalues not converged
     c_bands:  1 eigenvalues not converged
     c_bands:  1 eigenvalues not converged
     c_bands:  1 eigenvalues not converged
     c_bands:  1 eigenvalues not converged
     c_bands:  1 eigenvalues not converged
     c_bands:  1 eigenvalues not converged
     c_bands:  1 eigenvalues not converged
     c_bands:  1 eigenvalues not converged
     c_bands:  1 eigenvalues not converged
     c_bands:  1 eigenvalues not converged
     c_bands:  1 eigenvalues not converged
     c_bands:  1 eigenvalues not converged
     c_bands:  1 eigenvalues not converged
     c_bands:  1 eigenvalues not converged
     c_bands:  1 eigenvalues not converged
     c_bands:  1 eigenvalues not converged
     c_bands:  1 eigenvalues not converged
     c_bands:  2 eigenvalues not converged
     c_bands:  1 eigenvalues not converged
     c_bands:  1 eigenvalues not converged
     c_bands:  1 eigenvalues not converged
     c_bands:  1 eigenvalues not converged
     c_bands:  1 eigenvalues not converged
     c_bands:  2 eigenvalues not converged
     c_bands:  1 eigenvalues not converged
     c_bands:  2 eigenvalues not converged
     c_bands:  1 eigenvalues not converged
     c_bands:  1 eigenvalues not converged
     c_bands:  1 eigenvalues not converged
     c_bands:  1 eigenvalues not converged
     c_bands:  1 eigenvalues not converged
     c_bands:  1 eigenvalues not converged
     c_bands:  2 eigenvalues not converged
     c_bands:  1 eigenvalues not converged
     c_bands:  1 eigenvalues not converged
     c_bands:  1 eigenvalues not converged
     c_bands:  1 eigenvalues not converged
     c_bands:  1 eigenvalues not converged
     c_bands:  1 eigenvalues not converged
     c_bands:  2 eigenvalues not converged
     c_bands:  2 eigenvalues not converged
     c_bands:  1 eigenvalues not converged
     c_bands:  1 eigenvalues not converged
     c_bands:  1 eigenvalues not converged
     c_bands:  1 eigenvalues not converged
     c_bands:  2 eigenvalues not converged
     c_bands:  1 eigenvalues not converged
     c_bands:  1 eigenvalues not converged
     c_bands:  1 eigenvalues not converged
     c_bands:  1 eigenvalues not converged
     c_bands:  2 eigenvalues not converged
     c_bands:  1 eigenvalues not converged
     c_bands:  1 eigenvalues not converged
     c_bands:  1 eigenvalues not converged
     c_bands:  1 eigenvalues not converged
     c_bands:  1 eigenvalues not converged
     c_bands:  1 eigenvalues not converged
     c_bands:  1 eigenvalues not converged
     c_bands:  1 eigenvalues not converged
     c_bands:  1 eigenvalues not converged
     c_bands:  1 eigenvalues not converged
     c_bands:  1 eigenvalues not converged
     c_bands:  1 eigenvalues not converged
     c_bands:  1 eigenvalues not converged
     c_bands:  1 eigenvalues not converged
     c_bands:  1 eigenvalues not converged
     c_bands:  2 eigenvalues not converged
     c_bands:  1 eigenvalues not converged
     c_bands:  1 eigenvalues not converged
     c_bands:  1 eigenvalues not converged
     c_bands:  1 eigenvalues not converged
     c_bands:  1 eigenvalues not converged
     c_bands:  1 eigenvalues not converged
     c_bands:  1 eigenvalues not converged
     c_bands:  1 eigenvalues not converged
     c_bands:  1 eigenvalues not converged
     c_bands:  1 eigenvalues not converged
     c_bands:  1 eigenvalues not converged
     c_bands:  1 eigenvalues not converged
     c_bands:  1 eigenvalues not converged
     c_bands:  1 eigenvalues not converged
     c_bands:  1 eigenvalues not converged
     c_bands:  1 eigenvalues not converged
     ethr =  1.00E-06,  avg # of iterations = 15.2

     total cpu time spent up to now is    37459.0 secs

     total energy              =    -457.44691867 Ry
     Harris-Foulkes estimate   =    -471.19069942 Ry
     estimated scf accuracy    <      17.24850860 Ry

     iteration #  2     ecut=    50.00 Ry     beta= 0.60
     Davidson diagonalization with overlap
     ethr =  1.00E-02,  avg # of iterations =  5.3

     total cpu time spent up to now is    37553.8 secs

     total energy              =    -467.12166803 Ry
     Harris-Foulkes estimate   =    -488.99712119 Ry
     estimated scf accuracy    <      61.98143276 Ry

     iteration #  3     ecut=    50.00 Ry     beta= 0.60
     Davidson diagonalization with overlap
     ethr =  1.00E-02,  avg # of iterations =  3.6

     total cpu time spent up to now is    37623.4 secs

     total energy              =    -469.78577787 Ry
     Harris-Foulkes estimate   =    -470.96188179 Ry
     estimated scf accuracy    <      11.77619840 Ry

     iteration #  4     ecut=    50.00 Ry     beta= 0.60
     Davidson diagonalization with overlap
     ethr =  1.00E-02,  avg # of iterations =  1.1

     total cpu time spent up to now is    37667.8 secs

     total energy              =    -469.58979253 Ry
     Harris-Foulkes estimate   =    -469.89875613 Ry
     estimated scf accuracy    <       7.14180759 Ry

     iteration #  5     ecut=    50.00 Ry     beta= 0.60
     Davidson diagonalization with overlap
     ethr =  1.00E-02,  avg # of iterations =  1.0

     total cpu time spent up to now is    37712.0 secs

     total energy              =    -468.63318985 Ry
     Harris-Foulkes estimate   =    -469.63538071 Ry
     estimated scf accuracy    <       5.71751772 Ry

     iteration #  6     ecut=    50.00 Ry     beta= 0.60
     Davidson diagonalization with overlap
     ethr =  1.00E-02,  avg # of iterations =  3.5

     total cpu time spent up to now is    37764.5 secs

     total energy              =    -469.06336015 Ry
     Harris-Foulkes estimate   =    -469.02919064 Ry
     estimated scf accuracy    <       0.39855521 Ry

     iteration #  7     ecut=    50.00 Ry     beta= 0.60
     Davidson diagonalization with overlap
     ethr =  7.97E-04,  avg # of iterations =  5.3

     total cpu time spent up to now is    37838.9 secs

     total energy              =    -469.17339182 Ry
     Harris-Foulkes estimate   =    -469.18571026 Ry
     estimated scf accuracy    <       0.17954762 Ry

     iteration #  8     ecut=    50.00 Ry     beta= 0.60
     Davidson diagonalization with overlap
     ethr =  3.59E-04,  avg # of iterations =  1.1

     total cpu time spent up to now is    37883.0 secs

     total energy              =    -469.14419509 Ry
     Harris-Foulkes estimate   =    -469.17604592 Ry
     estimated scf accuracy    <       0.13988001 Ry

     iteration #  9     ecut=    50.00 Ry     beta= 0.60
     Davidson diagonalization with overlap
     ethr =  2.80E-04,  avg # of iterations =  3.4

     total cpu time spent up to now is    37937.5 secs

     total energy              =    -469.16643110 Ry
     Harris-Foulkes estimate   =    -469.16741453 Ry
     estimated scf accuracy    <       0.03671867 Ry

     iteration # 10     ecut=    50.00 Ry     beta= 0.60
     Davidson diagonalization with overlap
     ethr =  7.34E-05,  avg # of iterations =  3.6

     total cpu time spent up to now is    37989.4 secs

     total energy              =    -469.16898124 Ry
     Harris-Foulkes estimate   =    -469.16757947 Ry
     estimated scf accuracy    <       0.03147168 Ry

     iteration # 11     ecut=    50.00 Ry     beta= 0.60
     Davidson diagonalization with overlap
     ethr =  6.29E-05,  avg # of iterations =  1.0

     total cpu time spent up to now is    38033.4 secs

     total energy              =    -469.17385145 Ry
     Harris-Foulkes estimate   =    -469.16941532 Ry
     estimated scf accuracy    <       0.05020773 Ry

     iteration # 12     ecut=    50.00 Ry     beta= 0.60
     Davidson diagonalization with overlap
     ethr =  6.29E-05,  avg # of iterations =  1.8

     total cpu time spent up to now is    38079.5 secs

     total energy              =    -469.15122435 Ry
     Harris-Foulkes estimate   =    -469.17534165 Ry
     estimated scf accuracy    <       0.12431560 Ry

     iteration # 13     ecut=    50.00 Ry     beta= 0.60
     Davidson diagonalization with overlap
     ethr =  6.29E-05,  avg # of iterations =  4.1

     total cpu time spent up to now is    38141.2 secs

     total energy              =    -469.16913348 Ry
     Harris-Foulkes estimate   =    -469.16592632 Ry
     estimated scf accuracy    <       0.01073270 Ry

     iteration # 14     ecut=    50.00 Ry     beta= 0.60
     Davidson diagonalization with overlap
     ethr =  2.15E-05,  avg # of iterations =  4.6

     total cpu time spent up to now is    38204.2 secs

     total energy              =    -469.15970458 Ry
     Harris-Foulkes estimate   =    -469.17159151 Ry
     estimated scf accuracy    <       0.07231207 Ry

     iteration # 15     ecut=    50.00 Ry     beta= 0.60
     Davidson diagonalization with overlap
     ethr =  2.15E-05,  avg # of iterations =  4.6

     total cpu time spent up to now is    38271.6 secs

     total energy              =    -469.16497409 Ry
     Harris-Foulkes estimate   =    -469.16498936 Ry
     estimated scf accuracy    <       0.00005944 Ry

     iteration # 16     ecut=    50.00 Ry     beta= 0.60
     Davidson diagonalization with overlap
     ethr =  1.19E-07,  avg # of iterations =  4.9

     total cpu time spent up to now is    38346.5 secs

     total energy              =    -469.16501023 Ry
     Harris-Foulkes estimate   =    -469.16501663 Ry
     estimated scf accuracy    <       0.00003069 Ry

     iteration # 17     ecut=    50.00 Ry     beta= 0.60
     Davidson diagonalization with overlap
     ethr =  6.14E-08,  avg # of iterations =  2.0

     total cpu time spent up to now is    38393.8 secs

     total energy              =    -469.16501228 Ry
     Harris-Foulkes estimate   =    -469.16501279 Ry
     estimated scf accuracy    <       0.00000255 Ry

     iteration # 18     ecut=    50.00 Ry     beta= 0.60
     Davidson diagonalization with overlap
     ethr =  5.09E-09,  avg # of iterations =  4.3

     total cpu time spent up to now is    38459.2 secs

     total energy              =    -469.16501274 Ry
     Harris-Foulkes estimate   =    -469.16501339 Ry
     estimated scf accuracy    <       0.00000368 Ry

     iteration # 19     ecut=    50.00 Ry     beta= 0.60
     Davidson diagonalization with overlap
     ethr =  5.09E-09,  avg # of iterations =  2.6

     total cpu time spent up to now is    38507.8 secs

     total energy              =    -469.16501301 Ry
     Harris-Foulkes estimate   =    -469.16501302 Ry
     estimated scf accuracy    <       0.00000009 Ry

     iteration # 20     ecut=    50.00 Ry     beta= 0.60
     Davidson diagonalization with overlap
     ethr =  1.86E-10,  avg # of iterations =  5.0

     total cpu time spent up to now is    38578.2 secs

     total energy              =    -469.16501309 Ry
     Harris-Foulkes estimate   =    -469.16501311 Ry
     estimated scf accuracy    <       0.00000013 Ry

     iteration # 21     ecut=    50.00 Ry     beta= 0.60
     Davidson diagonalization with overlap
     ethr =  1.86E-10,  avg # of iterations =  1.0

     total cpu time spent up to now is    38622.1 secs

     total energy              =    -469.16501309 Ry
     Harris-Foulkes estimate   =    -469.16501310 Ry
     estimated scf accuracy    <       0.00000004 Ry

     iteration # 22     ecut=    50.00 Ry     beta= 0.60
     Davidson diagonalization with overlap
     ethr =  8.67E-11,  avg # of iterations =  3.0

     total cpu time spent up to now is    38675.0 secs

     total energy              =    -469.16501310 Ry
     Harris-Foulkes estimate   =    -469.16501310 Ry
     estimated scf accuracy    <          7.3E-10 Ry

     iteration # 23     ecut=    50.00 Ry     beta= 0.60
     Davidson diagonalization with overlap
     ethr =  1.47E-12,  avg # of iterations =  5.0

     total cpu time spent up to now is    38747.9 secs

     total energy              =    -469.16501310 Ry
     Harris-Foulkes estimate   =    -469.16501310 Ry
     estimated scf accuracy    <          1.5E-09 Ry

     iteration # 24     ecut=    50.00 Ry     beta= 0.60
     Davidson diagonalization with overlap
     ethr =  1.47E-12,  avg # of iterations =  1.0

     total cpu time spent up to now is    38791.9 secs

     total energy              =    -469.16501310 Ry
     Harris-Foulkes estimate   =    -469.16501310 Ry
     estimated scf accuracy    <          6.1E-10 Ry

     iteration # 25     ecut=    50.00 Ry     beta= 0.60
     Davidson diagonalization with overlap
     ethr =  1.23E-12,  avg # of iterations =  2.7

     total cpu time spent up to now is    38843.2 secs

     total energy              =    -469.16501310 Ry
     Harris-Foulkes estimate   =    -469.16501310 Ry
     estimated scf accuracy    <          2.3E-12 Ry

     iteration # 26     ecut=    50.00 Ry     beta= 0.60
     Davidson diagonalization with overlap
     ethr =  1.00E-13,  avg # of iterations =  2.9

     total cpu time spent up to now is    38896.2 secs

     total energy              =    -469.16501310 Ry
     Harris-Foulkes estimate   =    -469.16501310 Ry
     estimated scf accuracy    <          7.9E-12 Ry

     iteration # 27     ecut=    50.00 Ry     beta= 0.60
     Davidson diagonalization with overlap
     ethr =  1.00E-13,  avg # of iterations =  1.0

     total cpu time spent up to now is    38940.3 secs

     End of self-consistent calculation

     Number of k-points >= 100: set verbosity='high' to print the bands.

     the Fermi energy is    15.6786 ev

!    total energy              =    -469.16501310 Ry
     Harris-Foulkes estimate   =    -469.16501310 Ry
     estimated scf accuracy    <          2.2E-13 Ry

     The total energy is the sum of the following terms:

     one-electron contribution =    -114.73856815 Ry
     hartree contribution      =      78.77298560 Ry
     xc contribution           =     -65.96715195 Ry
     ewald contribution        =    -367.23193751 Ry
     smearing contrib. (-TS)   =      -0.00034109 Ry

     convergence has been achieved in  27 iterations

     Forces acting on atoms (cartesian axes, Ry/au):

     atom    1 type  2   force =    -0.00001415   -0.00001415    0.00000084
     atom    2 type  2   force =     0.00001526    0.00001526    0.00000422
     atom    3 type  1   force =     0.00000522    0.00000522    0.00001199
     atom    4 type  1   force =    -0.00000632   -0.00000632   -0.00001704

     Total force =     0.000038     Total SCF correction =     0.000002


     Computing stress (Cartesian axis) and pressure

          total   stress  (Ry/bohr**3)                   (kbar)     P=   -0.84
  -0.00000554  -0.00000027   0.00000014         -0.82     -0.04      0.02
  -0.00000027  -0.00000554   0.00000014         -0.04     -0.82      0.02
   0.00000014   0.00000014  -0.00000596          0.02      0.02     -0.88

 
     init_run     :     46.56s CPU     63.92s WALL (       2 calls)
     electrons    :  29187.92s CPU  38641.32s WALL (      30 calls)
     update_pot   :     15.19s CPU     16.05s WALL (      28 calls)
     forces       :     77.14s CPU     90.31s WALL (      30 calls)
     stress       :    124.28s CPU    129.61s WALL (      30 calls)

     Called by init_run:
     wfcinit      :     45.40s CPU     60.86s WALL (       2 calls)
     potinit      :      0.34s CPU      0.40s WALL (       2 calls)
     hinit0       :      0.59s CPU      2.39s WALL (       2 calls)

     Called by electrons:
     c_bands      :  25047.66s CPU  33064.48s WALL (     502 calls)
     sum_band     :   4072.78s CPU   5493.83s WALL (     502 calls)
     v_of_rho     :     23.70s CPU     30.06s WALL (     523 calls)
     newd         :     37.39s CPU     39.19s WALL (     523 calls)
     mix_rho      :      6.06s CPU      7.97s WALL (     502 calls)

     Called by c_bands:
     init_us_2    :    109.84s CPU    111.09s WALL (  614016 calls)
     cegterg      :  24430.82s CPU  32359.15s WALL (  289152 calls)

     Called by sum_band:
     sum_band:bec :      6.00s CPU      5.98s WALL (  289152 calls)
     addusdens    :     39.32s CPU     39.40s WALL (     502 calls)

     Called by *egterg:
     h_psi        :  20162.28s CPU  27437.32s WALL ( 1168646 calls)
     s_psi        :    153.92s CPU    154.47s WALL ( 1168646 calls)
     g_psi        :     32.59s CPU     34.29s WALL (  878342 calls)
     cdiaghg      :   2726.08s CPU   3046.36s WALL ( 1146182 calls)

     Called by h_psi:
     h_psi:pot    :  20150.33s CPU  27424.16s WALL ( 1168646 calls)
     h_psi:calbec :    527.56s CPU    680.02s WALL ( 1168646 calls)
     vloc_psi     :  19459.53s CPU  26580.26s WALL ( 1168646 calls)
     add_vuspsi   :    158.85s CPU    157.74s WALL ( 1168646 calls)

     General routines
     calbec       :    757.55s CPU    974.59s WALL ( 1544198 calls)
     fft          :     36.99s CPU     50.50s WALL (    7556 calls)
     ffts         :      1.41s CPU      1.88s WALL (    1025 calls)
     fftw         :  22853.86s CPU  31316.71s WALL (53858856 calls)
     interpolate  :      3.24s CPU      4.29s WALL (     523 calls)
 
     Parallel routines
     fft_scatt_xy :    581.34s CPU    602.18s WALL (53867437 calls)
     fft_scatt_yz :  20476.96s CPU  28852.65s WALL (53867437 calls)
 
     PWSCF        :     8h10m CPU       10h10m WALL

      49h
 
   This run was terminated on:   1:14:48  24Jan2020            

=------------------------------------------------------------------------------=
   JOB DONE.
=------------------------------------------------------------------------------=
