
     Program PWSCF v.6.3MaX starts on 24Mar2020 at 18:48:46 

     This program is part of the open-source Quantum ESPRESSO suite
     for quantum simulation of materials; please cite
         "P. Giannozzi et al., J. Phys.:Condens. Matter 21 395502 (2009);
         "P. Giannozzi et al., J. Phys.:Condens. Matter 29 465901 (2017);
          URL http://www.quantum-espresso.org", 
     in publications or presentations arising from this work. More details at
     http://www.quantum-espresso.org/quote

     Parallel version (MPI), running on     4 processors

     MPI processes distributed on     1 nodes
     R & G space division:  proc/nbgrp/npool/nimage =       4
     Waiting for input...
     Reading input from standard input

     Current dimensions of program PWSCF are:
     Max number of different atomic species (ntypx) = 10
     Max number of k-points (npk) =  40000
     Max angular momentum in pseudopotentials (lmaxx) =  3
     Message from routine iosys:
     minimal I/O required, wf_collect reset to FALSE

     Subspace diagonalization in iterative solution of the eigenvalue problem:
     a serial algorithm will be used

 
     Parallelization info
     --------------------
     sticks:   dense  smooth     PW     G-vecs:    dense   smooth      PW
     Min         910     364    105                36370     9180    1427
     Max         911     365    106                36375     9183    1428
     Sum        3643    1459    421               145493    36727    5709
 


     bravais-lattice index     =            0
     lattice parameter (alat)  =       1.8897  a.u.
     unit-cell volume          =    1077.7903 (a.u.)^3
     number of atoms/cell      =            8
     number of atomic types    =            2
     number of electrons       =        97.00
     number of Kohn-Sham states=           59
     kinetic-energy cutoff     =      40.0000  Ry
     charge density cutoff     =     400.0000  Ry
     convergence threshold     =      1.0E-10
     mixing beta               =       0.6000
     number of iterations used =            8  plain     mixing
     Exchange-correlation      = SLA PW PBE PBE ( 1  4  3  4 0 0)
     nstep                     =           50


     celldm(1)=   1.889726  celldm(2)=   0.000000  celldm(3)=   0.000000
     celldm(4)=   0.000000  celldm(5)=   0.000000  celldm(6)=   0.000000

     crystal axes: (cart. coord. in units of alat)
               a(1) = (   3.045004  -5.274102   0.000000 )  
               a(2) = (  -6.090008   0.000000   0.000000 )  
               a(3) = (   0.000000   0.000000  -4.972461 )  

     reciprocal axes: (cart. coord. in units 2 pi/alat)
               b(1) = (  0.000000 -0.189606  0.000000 )  
               b(2) = ( -0.164203 -0.094803  0.000000 )  
               b(3) = (  0.000000  0.000000 -0.201108 )  


     PseudoPot. # 1 for Nb read from file:
     ./Nb.pbe-nsp-van.UPF
     MD5 check sum: 0a22fc7fb0ba19a08ca5db297a5d2854
     Pseudo is Ultrasoft + core correction, Zval = 13.0
     Generated by new atomic code, or converted to UPF format
     Using radial grid of  887 points,  6 beta functions with: 
                l(1) =   0
                l(2) =   0
                l(3) =   1
                l(4) =   1
                l(5) =   2
                l(6) =   2
     Q(r) pseudized with  6 coefficients,  rinner =    1.000   1.000   1.000
                                                       1.000   1.000

     PseudoPot. # 2 for Ti read from file:
     ./Ti.pbe-sp-van_ak.UPF
     MD5 check sum: f98fea3e8887528921fefa5636a534ca
     Pseudo is Ultrasoft, Zval = 12.0
     Generated by new atomic code, or converted to UPF format
     Using radial grid of  851 points,  6 beta functions with: 
                l(1) =   0
                l(2) =   0
                l(3) =   1
                l(4) =   1
                l(5) =   2
                l(6) =   2
     Q(r) pseudized with  8 coefficients,  rinner =    1.000   1.000   1.000
                                                       1.000   1.000

     atomic species   valence    mass     pseudopotential
        Nb            13.00    92.90638     Nb( 1.00)
        Ti            12.00    47.86700     Ti( 1.00)

      4 Sym. Ops. (no inversion) found
          (note:  8 additional sym.ops. were found but ignored
           their fractional translations are incommensurate with FFT grid)


   Cartesian axes

     site n.     atom                  positions (alat units)
         1           Ti  tau(   1) = (  -3.0450042  -5.2741024  -4.9724614  )
         2           Ti  tau(   2) = (   0.0000015  -1.7580350  -2.4862307  )
         3           Ti  tau(   3) = (   0.0000000  -5.2741024  -4.9724614  )
         4           Ti  tau(   4) = (  -3.0450027  -1.7580350  -2.4862307  )
         5           Ti  tau(   5) = (  -4.5675063  -2.6370512  -4.9724614  )
         6           Ti  tau(   6) = (   1.5225036  -4.3950862  -2.4862307  )
         7           Ti  tau(   7) = (  -1.5225021  -2.6370512  -4.9724614  )
         8           Nb  tau(   8) = (  -1.5225006  -4.3950862  -2.4862307  )

     number of k points=   217  Marzari-Vanderbilt smearing, width (Ry)=  0.0200

     Number of k-points >= 100: set verbosity='high' to print them.

     Dense  grid:   145493 G-vectors     FFT dimensions: (  75,  75,  60)

     Smooth grid:    36727 G-vectors     FFT dimensions: (  48,  48,  40)

     Estimated max dynamical RAM per process >     367.94 MB

     Estimated total dynamical RAM >       1.44 GB

     Initial potential from superposition of free atoms

     starting charge   89.99696, renormalised to   97.00000
     Starting wfcs are   83 randomized atomic wfcs

     total cpu time spent up to now is       17.4 secs

     Self-consistent Calculation

     iteration #  1     ecut=    40.00 Ry     beta= 0.60
     Davidson diagonalization with overlap
     ethr =  1.00E-02,  avg # of iterations =  4.3

     total cpu time spent up to now is       72.1 secs

     total energy              =    -930.35065980 Ry
     Harris-Foulkes estimate   =    -936.91462298 Ry
     estimated scf accuracy    <       8.72922445 Ry

     iteration #  2     ecut=    40.00 Ry     beta= 0.60
     Davidson diagonalization with overlap
     ethr =  9.00E-03,  avg # of iterations =  5.0

     total cpu time spent up to now is      127.5 secs

     total energy              =    -929.08475728 Ry
     Harris-Foulkes estimate   =    -941.34386301 Ry
     estimated scf accuracy    <      38.84449777 Ry

     iteration #  3     ecut=    40.00 Ry     beta= 0.60
     Davidson diagonalization with overlap
     ethr =  9.00E-03,  avg # of iterations =  5.2

     total cpu time spent up to now is      173.9 secs

     total energy              =    -933.30932528 Ry
     Harris-Foulkes estimate   =    -934.93917223 Ry
     estimated scf accuracy    <       6.25126383 Ry

     iteration #  4     ecut=    40.00 Ry     beta= 0.60
     Davidson diagonalization with overlap
     ethr =  6.44E-03,  avg # of iterations =  5.5

     total cpu time spent up to now is      225.0 secs

     total energy              =    -932.75248943 Ry
     Harris-Foulkes estimate   =    -935.67848322 Ry
     estimated scf accuracy    <      24.10967265 Ry

     iteration #  5     ecut=    40.00 Ry     beta= 0.60
     Davidson diagonalization with overlap
     ethr =  6.44E-03,  avg # of iterations =  1.0

     total cpu time spent up to now is      253.7 secs

     total energy              =    -934.41744839 Ry
     Harris-Foulkes estimate   =    -934.45211850 Ry
     estimated scf accuracy    <       1.16390560 Ry

     iteration #  6     ecut=    40.00 Ry     beta= 0.60
     Davidson diagonalization with overlap
     ethr =  1.20E-03,  avg # of iterations =  6.5

     total cpu time spent up to now is      298.9 secs

     total energy              =    -934.45390528 Ry
     Harris-Foulkes estimate   =    -934.48868538 Ry
     estimated scf accuracy    <       0.66247866 Ry

     iteration #  7     ecut=    40.00 Ry     beta= 0.60
     Davidson diagonalization with overlap
     ethr =  6.83E-04,  avg # of iterations =  1.1

     total cpu time spent up to now is      327.6 secs

     total energy              =    -934.40697386 Ry
     Harris-Foulkes estimate   =    -934.46519594 Ry
     estimated scf accuracy    <       0.63695219 Ry

     iteration #  8     ecut=    40.00 Ry     beta= 0.60
     Davidson diagonalization with overlap
     ethr =  6.57E-04,  avg # of iterations =  1.1

     total cpu time spent up to now is      356.3 secs

     total energy              =    -934.39333802 Ry
     Harris-Foulkes estimate   =    -934.42026012 Ry
     estimated scf accuracy    <       0.42255756 Ry

     iteration #  9     ecut=    40.00 Ry     beta= 0.60
     Davidson diagonalization with overlap
     ethr =  4.36E-04,  avg # of iterations =  2.4

     total cpu time spent up to now is      387.6 secs

     total energy              =    -934.39454339 Ry
     Harris-Foulkes estimate   =    -934.40512527 Ry
     estimated scf accuracy    <       0.23910193 Ry

     iteration # 10     ecut=    40.00 Ry     beta= 0.60
     Davidson diagonalization with overlap
     ethr =  2.46E-04,  avg # of iterations =  4.2

     total cpu time spent up to now is      424.3 secs

     total energy              =    -934.40283034 Ry
     Harris-Foulkes estimate   =    -934.40845941 Ry
     estimated scf accuracy    <       0.09079688 Ry

     iteration # 11     ecut=    40.00 Ry     beta= 0.60
     Davidson diagonalization with overlap
     ethr =  9.36E-05,  avg # of iterations =  6.2

     total cpu time spent up to now is      472.1 secs

     total energy              =    -934.41130882 Ry
     Harris-Foulkes estimate   =    -934.41660442 Ry
     estimated scf accuracy    <       0.08919580 Ry

     iteration # 12     ecut=    40.00 Ry     beta= 0.60
     Davidson diagonalization with overlap
     ethr =  9.20E-05,  avg # of iterations =  1.0

     total cpu time spent up to now is      500.7 secs

     total energy              =    -934.40525052 Ry
     Harris-Foulkes estimate   =    -934.41285877 Ry
     estimated scf accuracy    <       0.04443069 Ry

     iteration # 13     ecut=    40.00 Ry     beta= 0.60
     Davidson diagonalization with overlap
     ethr =  4.58E-05,  avg # of iterations =  5.9

     total cpu time spent up to now is      546.4 secs

     total energy              =    -934.41002719 Ry
     Harris-Foulkes estimate   =    -934.41289278 Ry
     estimated scf accuracy    <       0.02486171 Ry

     iteration # 14     ecut=    40.00 Ry     beta= 0.60
     Davidson diagonalization with overlap
     ethr =  2.56E-05,  avg # of iterations =  1.6

     total cpu time spent up to now is      576.2 secs

     total energy              =    -934.41081470 Ry
     Harris-Foulkes estimate   =    -934.41099634 Ry
     estimated scf accuracy    <       0.00656765 Ry

     iteration # 15     ecut=    40.00 Ry     beta= 0.60
     Davidson diagonalization with overlap
     c_bands:  1 eigenvalues not converged
     c_bands:  1 eigenvalues not converged
     ethr =  6.77E-06,  avg # of iterations =  8.0

     total cpu time spent up to now is      628.3 secs

     total energy              =    -934.41127831 Ry
     Harris-Foulkes estimate   =    -934.41142390 Ry
     estimated scf accuracy    <       0.00327687 Ry

     iteration # 16     ecut=    40.00 Ry     beta= 0.60
     Davidson diagonalization with overlap
     c_bands:  1 eigenvalues not converged
     c_bands:  1 eigenvalues not converged
     c_bands:  1 eigenvalues not converged
     ethr =  3.38E-06,  avg # of iterations =  2.8

     total cpu time spent up to now is      660.7 secs

     total energy              =    -934.41118424 Ry
     Harris-Foulkes estimate   =    -934.41136934 Ry
     estimated scf accuracy    <       0.00238104 Ry

     iteration # 17     ecut=    40.00 Ry     beta= 0.60
     Davidson diagonalization with overlap
     c_bands:  1 eigenvalues not converged
     ethr =  2.45E-06,  avg # of iterations =  4.0

     total cpu time spent up to now is      696.7 secs

     total energy              =    -934.41125520 Ry
     Harris-Foulkes estimate   =    -934.41130698 Ry
     estimated scf accuracy    <       0.00038846 Ry

     iteration # 18     ecut=    40.00 Ry     beta= 0.60
     Davidson diagonalization with overlap
     c_bands:  1 eigenvalues not converged
     c_bands:  1 eigenvalues not converged
     c_bands:  1 eigenvalues not converged
     ethr =  4.00E-07,  avg # of iterations =  6.6

     total cpu time spent up to now is      745.9 secs

     total energy              =    -934.41130995 Ry
     Harris-Foulkes estimate   =    -934.41131703 Ry
     estimated scf accuracy    <       0.00005170 Ry

     iteration # 19     ecut=    40.00 Ry     beta= 0.60
     Davidson diagonalization with overlap
     ethr =  5.33E-08,  avg # of iterations =  3.8

     total cpu time spent up to now is      783.8 secs

     total energy              =    -934.41131462 Ry
     Harris-Foulkes estimate   =    -934.41131573 Ry
     estimated scf accuracy    <       0.00001104 Ry

     iteration # 20     ecut=    40.00 Ry     beta= 0.60
     Davidson diagonalization with overlap
     c_bands:  1 eigenvalues not converged
     ethr =  1.14E-08,  avg # of iterations =  5.3

     total cpu time spent up to now is      830.4 secs

     total energy              =    -934.41131290 Ry
     Harris-Foulkes estimate   =    -934.41131796 Ry
     estimated scf accuracy    <       0.00003475 Ry

     iteration # 21     ecut=    40.00 Ry     beta= 0.60
     Davidson diagonalization with overlap
     ethr =  1.14E-08,  avg # of iterations =  4.9

     total cpu time spent up to now is      876.3 secs

     total energy              =    -934.41131504 Ry
     Harris-Foulkes estimate   =    -934.41131691 Ry
     estimated scf accuracy    <       0.00001299 Ry

     iteration # 22     ecut=    40.00 Ry     beta= 0.60
     Davidson diagonalization with overlap
     ethr =  1.14E-08,  avg # of iterations =  1.8

     total cpu time spent up to now is      906.5 secs

     total energy              =    -934.41131559 Ry
     Harris-Foulkes estimate   =    -934.41131567 Ry
     estimated scf accuracy    <       0.00000191 Ry

     iteration # 23     ecut=    40.00 Ry     beta= 0.60
     Davidson diagonalization with overlap
     ethr =  1.97E-09,  avg # of iterations =  4.6

     total cpu time spent up to now is      951.3 secs

     total energy              =    -934.41131588 Ry
     Harris-Foulkes estimate   =    -934.41131597 Ry
     estimated scf accuracy    <       0.00000064 Ry

     iteration # 24     ecut=    40.00 Ry     beta= 0.60
     Davidson diagonalization with overlap
     ethr =  6.57E-10,  avg # of iterations =  3.1

     total cpu time spent up to now is      984.5 secs

     total energy              =    -934.41131592 Ry
     Harris-Foulkes estimate   =    -934.41131593 Ry
     estimated scf accuracy    <       0.00000007 Ry

     iteration # 25     ecut=    40.00 Ry     beta= 0.60
     Davidson diagonalization with overlap
     ethr =  7.02E-11,  avg # of iterations =  5.4

     total cpu time spent up to now is     1033.6 secs

     total energy              =    -934.41131594 Ry
     Harris-Foulkes estimate   =    -934.41131595 Ry
     estimated scf accuracy    <       0.00000011 Ry

     iteration # 26     ecut=    40.00 Ry     beta= 0.60
     Davidson diagonalization with overlap
     ethr =  7.02E-11,  avg # of iterations =  1.0

     total cpu time spent up to now is     1062.1 secs

     total energy              =    -934.41131594 Ry
     Harris-Foulkes estimate   =    -934.41131594 Ry
     estimated scf accuracy    <       0.00000004 Ry

     iteration # 27     ecut=    40.00 Ry     beta= 0.60
     Davidson diagonalization with overlap
     ethr =  4.20E-11,  avg # of iterations =  3.8

     total cpu time spent up to now is     1099.4 secs

     total energy              =    -934.41131594 Ry
     Harris-Foulkes estimate   =    -934.41131594 Ry
     estimated scf accuracy    <          8.6E-10 Ry

     iteration # 28     ecut=    40.00 Ry     beta= 0.60
     Davidson diagonalization with overlap
     ethr =  8.88E-13,  avg # of iterations =  6.9

     total cpu time spent up to now is     1157.5 secs

     total energy              =    -934.41131594 Ry
     Harris-Foulkes estimate   =    -934.41131594 Ry
     estimated scf accuracy    <          2.6E-09 Ry

     iteration # 29     ecut=    40.00 Ry     beta= 0.60
     Davidson diagonalization with overlap
     ethr =  8.88E-13,  avg # of iterations =  1.1

     total cpu time spent up to now is     1186.5 secs

     total energy              =    -934.41131594 Ry
     Harris-Foulkes estimate   =    -934.41131594 Ry
     estimated scf accuracy    <          1.1E-09 Ry

     iteration # 30     ecut=    40.00 Ry     beta= 0.60
     Davidson diagonalization with overlap
     ethr =  8.88E-13,  avg # of iterations =  3.2

     total cpu time spent up to now is     1220.5 secs

     total energy              =    -934.41131594 Ry
     Harris-Foulkes estimate   =    -934.41131594 Ry
     estimated scf accuracy    <          2.8E-10 Ry

     iteration # 31     ecut=    40.00 Ry     beta= 0.60
     Davidson diagonalization with overlap
     ethr =  2.93E-13,  avg # of iterations =  4.0

     total cpu time spent up to now is     1257.0 secs

     End of self-consistent calculation

     Number of k-points >= 100: set verbosity='high' to print the bands.

     the Fermi energy is    11.9323 ev

!    total energy              =    -934.41131594 Ry
     Harris-Foulkes estimate   =    -934.41131594 Ry
     estimated scf accuracy    <          7.1E-11 Ry

     The total energy is the sum of the following terms:

     one-electron contribution =    -352.78830869 Ry
     hartree contribution      =     200.47681148 Ry
     xc contribution           =    -119.27428733 Ry
     ewald contribution        =    -662.82186440 Ry
     smearing contrib. (-TS)   =      -0.00366699 Ry

     convergence has been achieved in  31 iterations

     Forces acting on atoms (cartesian axes, Ry/au):

     atom    1 type  2   force =     0.00137645    0.00079469    0.00000000
     atom    2 type  2   force =     0.00006981   -0.00004212    0.00000000
     atom    3 type  2   force =    -0.00137353    0.00079676    0.00000000
     atom    4 type  2   force =    -0.00007134   -0.00004119    0.00000000
     atom    5 type  2   force =    -0.00000209   -0.00000121    0.00000000
     atom    6 type  2   force =    -0.00000157    0.00008151    0.00000000
     atom    7 type  2   force =     0.00000325   -0.00158789    0.00000000
     atom    8 type  1   force =    -0.00000097   -0.00000056    0.00000000

     Total force =     0.002755     Total SCF correction =     0.000013


     Computing stress (Cartesian axis) and pressure

          total   stress  (Ry/bohr**3)                   (kbar)     P= -134.48
  -0.00087555   0.00000001   0.00000000       -128.80      0.00      0.00
   0.00000001  -0.00087556   0.00000000          0.00   -128.80      0.00
   0.00000000   0.00000000  -0.00099147          0.00      0.00   -145.85


     BFGS Geometry Optimization

     number of scf cycles    =   1
     number of bfgs steps    =   0

     enthalpy new            =    -934.4113159411 Ry

     new trust radius        =       0.1627479979 bohr
     new conv_thr            =            1.0E-10 Ry

     new unit-cell volume =   1005.56524 a.u.^3 (   149.00939 Ang^3 )
     density =      4.76930 g/cm^3

CELL_PARAMETERS (alat=  1.88972599)
   2.978350909  -5.158655468   0.000000000
  -5.956705489  -0.000002120   0.000000000
   0.000000000   0.000000000  -4.849210154

ATOMIC_POSITIONS (angstrom)
Ti      -2.977642140  -5.158246260  -4.849210154
Ti       0.000037009  -1.719574835  -2.424605077
Ti      -0.000712765  -5.158244131  -4.849210154
Ti      -2.978388791  -1.719575413  -2.424605077
Ti      -4.467531118  -2.579330479  -4.849210154
Ti       1.489175519  -4.298838580  -2.424605077
Ti      -1.489175609  -2.580150675  -4.849210154
Nb      -1.489176915  -4.298882120  -2.424605077


     NEW-OLD atomic charge density approx. for the potential
     extrapolated charge   90.53594, renormalised to   97.00000

     total cpu time spent up to now is     1278.3 secs

     Self-consistent Calculation

     iteration #  1     ecut=    40.00 Ry     beta= 0.60
     Davidson diagonalization with overlap
     c_bands:  1 eigenvalues not converged
     c_bands:  2 eigenvalues not converged
     c_bands:  1 eigenvalues not converged
     c_bands:  1 eigenvalues not converged
     c_bands:  1 eigenvalues not converged
     c_bands:  1 eigenvalues not converged
     c_bands:  1 eigenvalues not converged
     c_bands:  3 eigenvalues not converged
     c_bands:  5 eigenvalues not converged
     c_bands:  2 eigenvalues not converged
     c_bands:  1 eigenvalues not converged
     c_bands:  1 eigenvalues not converged
     c_bands:  1 eigenvalues not converged
     c_bands:  1 eigenvalues not converged
     c_bands:  1 eigenvalues not converged
     c_bands:  4 eigenvalues not converged
     c_bands:  3 eigenvalues not converged
     c_bands:  3 eigenvalues not converged
     c_bands:  2 eigenvalues not converged
     c_bands:  1 eigenvalues not converged
     c_bands:  2 eigenvalues not converged
     c_bands:  3 eigenvalues not converged
     c_bands:  4 eigenvalues not converged
     c_bands:  5 eigenvalues not converged
     c_bands:  5 eigenvalues not converged
     c_bands:  1 eigenvalues not converged
     c_bands:  1 eigenvalues not converged
     c_bands:  1 eigenvalues not converged
     c_bands:  1 eigenvalues not converged
     c_bands:  1 eigenvalues not converged
     c_bands:  1 eigenvalues not converged
     c_bands:  4 eigenvalues not converged
     c_bands:  1 eigenvalues not converged
     c_bands:  1 eigenvalues not converged
     c_bands:  1 eigenvalues not converged
     c_bands:  1 eigenvalues not converged
     c_bands:  1 eigenvalues not converged
     c_bands:  1 eigenvalues not converged
     c_bands:  1 eigenvalues not converged
     c_bands:  1 eigenvalues not converged
     c_bands:  2 eigenvalues not converged
     c_bands:  1 eigenvalues not converged
     c_bands:  2 eigenvalues not converged
     c_bands:  2 eigenvalues not converged
     c_bands:  1 eigenvalues not converged
     c_bands:  3 eigenvalues not converged
     c_bands:  5 eigenvalues not converged
     c_bands:  2 eigenvalues not converged
     c_bands:  1 eigenvalues not converged
     c_bands:  1 eigenvalues not converged
     c_bands:  2 eigenvalues not converged
     c_bands:  1 eigenvalues not converged
     c_bands:  1 eigenvalues not converged
     c_bands:  5 eigenvalues not converged
     c_bands:  4 eigenvalues not converged
     c_bands:  3 eigenvalues not converged
     c_bands:  1 eigenvalues not converged
     c_bands:  1 eigenvalues not converged
     c_bands:  2 eigenvalues not converged
     c_bands:  4 eigenvalues not converged
     c_bands:  4 eigenvalues not converged
     c_bands:  5 eigenvalues not converged
     c_bands:  4 eigenvalues not converged
     c_bands:  1 eigenvalues not converged
     c_bands:  1 eigenvalues not converged
     c_bands:  4 eigenvalues not converged
     c_bands:  2 eigenvalues not converged
     c_bands:  1 eigenvalues not converged
     c_bands:  3 eigenvalues not converged
     c_bands:  3 eigenvalues not converged
     c_bands:  1 eigenvalues not converged
     c_bands:  1 eigenvalues not converged
     c_bands:  1 eigenvalues not converged
     c_bands:  1 eigenvalues not converged
     c_bands:  1 eigenvalues not converged
     c_bands:  1 eigenvalues not converged
     c_bands:  1 eigenvalues not converged
     c_bands:  1 eigenvalues not converged
     c_bands:  1 eigenvalues not converged
     c_bands:  1 eigenvalues not converged
     c_bands:  1 eigenvalues not converged
     ethr =  1.00E-06,  avg # of iterations = 17.3

     total cpu time spent up to now is     1418.5 secs

     total energy              =    -926.99980120 Ry
     Harris-Foulkes estimate   =    -951.27588412 Ry
     estimated scf accuracy    <       7.39277038 Ry

     iteration #  2     ecut=    40.00 Ry     beta= 0.60
     Davidson diagonalization with overlap
     ethr =  7.62E-03,  avg # of iterations =  4.5

     total cpu time spent up to now is     1481.0 secs

     total energy              =    -932.17153334 Ry
     Harris-Foulkes estimate   =    -943.42008287 Ry
     estimated scf accuracy    <      37.80816020 Ry

     iteration #  3     ecut=    40.00 Ry     beta= 0.60
     Davidson diagonalization with overlap
     ethr =  7.62E-03,  avg # of iterations =  3.2

     total cpu time spent up to now is     1520.0 secs

     total energy              =    -934.27552492 Ry
     Harris-Foulkes estimate   =    -936.03005531 Ry
     estimated scf accuracy    <       6.11708317 Ry

     iteration #  4     ecut=    40.00 Ry     beta= 0.60
     Davidson diagonalization with overlap
     ethr =  6.31E-03,  avg # of iterations =  2.9

     total cpu time spent up to now is     1555.3 secs

     total energy              =    -934.75704029 Ry
     Harris-Foulkes estimate   =    -935.27865871 Ry
     estimated scf accuracy    <       4.49363880 Ry

     iteration #  5     ecut=    40.00 Ry     beta= 0.60
     Davidson diagonalization with overlap
     ethr =  4.63E-03,  avg # of iterations =  1.1

     total cpu time spent up to now is     1584.3 secs

     total energy              =    -934.67096274 Ry
     Harris-Foulkes estimate   =    -934.88311558 Ry
     estimated scf accuracy    <       2.44987043 Ry

     iteration #  6     ecut=    40.00 Ry     beta= 0.60
     Davidson diagonalization with overlap
     ethr =  2.53E-03,  avg # of iterations =  1.1

     total cpu time spent up to now is     1613.6 secs

     total energy              =    -934.63835582 Ry
     Harris-Foulkes estimate   =    -934.71186009 Ry
     estimated scf accuracy    <       1.54727944 Ry

     iteration #  7     ecut=    40.00 Ry     beta= 0.60
     Davidson diagonalization with overlap
     ethr =  1.60E-03,  avg # of iterations =  1.0

     total cpu time spent up to now is     1642.4 secs

     total energy              =    -934.44260317 Ry
     Harris-Foulkes estimate   =    -934.65661622 Ry
     estimated scf accuracy    <       1.20099942 Ry

     iteration #  8     ecut=    40.00 Ry     beta= 0.60
     Davidson diagonalization with overlap
     ethr =  1.24E-03,  avg # of iterations =  2.4

     total cpu time spent up to now is     1674.3 secs

     total energy              =    -934.46489671 Ry
     Harris-Foulkes estimate   =    -934.48834528 Ry
     estimated scf accuracy    <       0.38251569 Ry

     iteration #  9     ecut=    40.00 Ry     beta= 0.60
     Davidson diagonalization with overlap
     ethr =  3.94E-04,  avg # of iterations =  5.8

     total cpu time spent up to now is     1719.9 secs

     total energy              =    -934.51340714 Ry
     Harris-Foulkes estimate   =    -934.50018077 Ry
     estimated scf accuracy    <       0.17128561 Ry

     iteration # 10     ecut=    40.00 Ry     beta= 0.60
     Davidson diagonalization with overlap
     ethr =  1.77E-04,  avg # of iterations =  2.4

     total cpu time spent up to now is     1751.7 secs

     total energy              =    -934.41432686 Ry
     Harris-Foulkes estimate   =    -934.51623000 Ry
     estimated scf accuracy    <       0.22822762 Ry

     iteration # 11     ecut=    40.00 Ry     beta= 0.60
     Davidson diagonalization with overlap
     ethr =  1.77E-04,  avg # of iterations =  4.8

     total cpu time spent up to now is     1798.2 secs

     total energy              =    -934.45776225 Ry
     Harris-Foulkes estimate   =    -934.46417132 Ry
     estimated scf accuracy    <       0.01748560 Ry

     iteration # 12     ecut=    40.00 Ry     beta= 0.60
     Davidson diagonalization with overlap
     ethr =  1.80E-05,  avg # of iterations =  9.2

     total cpu time spent up to now is     1873.0 secs

     total energy              =    -934.46522992 Ry
     Harris-Foulkes estimate   =    -934.46578346 Ry
     estimated scf accuracy    <       0.01802044 Ry

     iteration # 13     ecut=    40.00 Ry     beta= 0.60
     Davidson diagonalization with overlap
     ethr =  1.80E-05,  avg # of iterations =  1.0

     total cpu time spent up to now is     1901.9 secs

     total energy              =    -934.46343095 Ry
     Harris-Foulkes estimate   =    -934.46553136 Ry
     estimated scf accuracy    <       0.01635252 Ry

     iteration # 14     ecut=    40.00 Ry     beta= 0.60
     Davidson diagonalization with overlap
     ethr =  1.69E-05,  avg # of iterations =  1.0

     total cpu time spent up to now is     1930.9 secs

     total energy              =    -934.46311914 Ry
     Harris-Foulkes estimate   =    -934.46392026 Ry
     estimated scf accuracy    <       0.00611173 Ry

     iteration # 15     ecut=    40.00 Ry     beta= 0.60
     Davidson diagonalization with overlap
     ethr =  6.30E-06,  avg # of iterations =  4.4

     total cpu time spent up to now is     1972.0 secs

     total energy              =    -934.46372708 Ry
     Harris-Foulkes estimate   =    -934.46378008 Ry
     estimated scf accuracy    <       0.00176032 Ry

     iteration # 16     ecut=    40.00 Ry     beta= 0.60
     Davidson diagonalization with overlap
     c_bands:  1 eigenvalues not converged
     c_bands:  2 eigenvalues not converged
     c_bands:  1 eigenvalues not converged
     c_bands:  1 eigenvalues not converged
     ethr =  1.81E-06,  avg # of iterations =  3.7

     total cpu time spent up to now is     2006.4 secs

     total energy              =    -934.46375903 Ry
     Harris-Foulkes estimate   =    -934.46379206 Ry
     estimated scf accuracy    <       0.00136528 Ry

     iteration # 17     ecut=    40.00 Ry     beta= 0.60
     Davidson diagonalization with overlap
     c_bands:  1 eigenvalues not converged
     c_bands:  1 eigenvalues not converged
     c_bands:  1 eigenvalues not converged
     c_bands:  1 eigenvalues not converged
     ethr =  1.41E-06,  avg # of iterations =  4.7

     total cpu time spent up to now is     2049.4 secs

     total energy              =    -934.46346009 Ry
     Harris-Foulkes estimate   =    -934.46405356 Ry
     estimated scf accuracy    <       0.00321983 Ry

     iteration # 18     ecut=    40.00 Ry     beta= 0.60
     Davidson diagonalization with overlap
     c_bands:  1 eigenvalues not converged
     ethr =  1.41E-06,  avg # of iterations =  3.3

     total cpu time spent up to now is     2088.4 secs

     total energy              =    -934.46353434 Ry
     Harris-Foulkes estimate   =    -934.46365856 Ry
     estimated scf accuracy    <       0.00056580 Ry

     iteration # 19     ecut=    40.00 Ry     beta= 0.60
     Davidson diagonalization with overlap
     c_bands:  1 eigenvalues not converged
     c_bands:  1 eigenvalues not converged
     c_bands:  1 eigenvalues not converged
     ethr =  5.83E-07,  avg # of iterations =  4.8

     total cpu time spent up to now is     2132.2 secs

     total energy              =    -934.46358156 Ry
     Harris-Foulkes estimate   =    -934.46366952 Ry
     estimated scf accuracy    <       0.00064674 Ry

     iteration # 20     ecut=    40.00 Ry     beta= 0.60
     Davidson diagonalization with overlap
     ethr =  5.83E-07,  avg # of iterations =  1.0

     total cpu time spent up to now is     2160.9 secs

     total energy              =    -934.46361678 Ry
     Harris-Foulkes estimate   =    -934.46362046 Ry
     estimated scf accuracy    <       0.00001417 Ry

     iteration # 21     ecut=    40.00 Ry     beta= 0.60
     Davidson diagonalization with overlap
     c_bands:  1 eigenvalues not converged
     ethr =  1.46E-08,  avg # of iterations =  7.5

     total cpu time spent up to now is     2222.0 secs

     total energy              =    -934.46362899 Ry
     Harris-Foulkes estimate   =    -934.46364085 Ry
     estimated scf accuracy    <       0.00011537 Ry

     iteration # 22     ecut=    40.00 Ry     beta= 0.60
     Davidson diagonalization with overlap
     ethr =  1.46E-08,  avg # of iterations =  5.0

     total cpu time spent up to now is     2268.5 secs

     total energy              =    -934.46363102 Ry
     Harris-Foulkes estimate   =    -934.46363555 Ry
     estimated scf accuracy    <       0.00004097 Ry

     iteration # 23     ecut=    40.00 Ry     beta= 0.60
     Davidson diagonalization with overlap
     ethr =  1.46E-08,  avg # of iterations =  3.3

     total cpu time spent up to now is     2302.1 secs

     total energy              =    -934.46363242 Ry
     Harris-Foulkes estimate   =    -934.46363286 Ry
     estimated scf accuracy    <       0.00000491 Ry

     iteration # 24     ecut=    40.00 Ry     beta= 0.60
     Davidson diagonalization with overlap
     ethr =  5.06E-09,  avg # of iterations =  4.5

     total cpu time spent up to now is     2345.4 secs

     total energy              =    -934.46363311 Ry
     Harris-Foulkes estimate   =    -934.46363339 Ry
     estimated scf accuracy    <       0.00000264 Ry

     iteration # 25     ecut=    40.00 Ry     beta= 0.60
     Davidson diagonalization with overlap
     ethr =  2.72E-09,  avg # of iterations =  1.7

     total cpu time spent up to now is     2375.4 secs

     total energy              =    -934.46363314 Ry
     Harris-Foulkes estimate   =    -934.46363326 Ry
     estimated scf accuracy    <       0.00000121 Ry

     iteration # 26     ecut=    40.00 Ry     beta= 0.60
     Davidson diagonalization with overlap
     ethr =  1.25E-09,  avg # of iterations =  4.0

     total cpu time spent up to now is     2413.5 secs

     total energy              =    -934.46363312 Ry
     Harris-Foulkes estimate   =    -934.46363331 Ry
     estimated scf accuracy    <       0.00000136 Ry

     iteration # 27     ecut=    40.00 Ry     beta= 0.60
     Davidson diagonalization with overlap
     ethr =  1.25E-09,  avg # of iterations =  1.2

     total cpu time spent up to now is     2442.6 secs

     total energy              =    -934.46363318 Ry
     Harris-Foulkes estimate   =    -934.46363320 Ry
     estimated scf accuracy    <       0.00000019 Ry

     iteration # 28     ecut=    40.00 Ry     beta= 0.60
     Davidson diagonalization with overlap
     ethr =  1.91E-10,  avg # of iterations =  5.1

     total cpu time spent up to now is     2490.0 secs

     total energy              =    -934.46363323 Ry
     Harris-Foulkes estimate   =    -934.46363324 Ry
     estimated scf accuracy    <       0.00000016 Ry

     iteration # 29     ecut=    40.00 Ry     beta= 0.60
     Davidson diagonalization with overlap
     ethr =  1.61E-10,  avg # of iterations =  1.0

     total cpu time spent up to now is     2518.7 secs

     total energy              =    -934.46363322 Ry
     Harris-Foulkes estimate   =    -934.46363323 Ry
     estimated scf accuracy    <       0.00000008 Ry

     iteration # 30     ecut=    40.00 Ry     beta= 0.60
     Davidson diagonalization with overlap
     ethr =  8.50E-11,  avg # of iterations =  3.1

     total cpu time spent up to now is     2553.1 secs

     total energy              =    -934.46363323 Ry
     Harris-Foulkes estimate   =    -934.46363323 Ry
     estimated scf accuracy    <          4.9E-09 Ry

     iteration # 31     ecut=    40.00 Ry     beta= 0.60
     Davidson diagonalization with overlap
     ethr =  5.03E-12,  avg # of iterations =  5.4

     total cpu time spent up to now is     2602.6 secs

     total energy              =    -934.46363323 Ry
     Harris-Foulkes estimate   =    -934.46363323 Ry
     estimated scf accuracy    <          1.8E-09 Ry

     iteration # 32     ecut=    40.00 Ry     beta= 0.60
     Davidson diagonalization with overlap
     ethr =  1.81E-12,  avg # of iterations =  1.5

     total cpu time spent up to now is     2632.3 secs

     total energy              =    -934.46363323 Ry
     Harris-Foulkes estimate   =    -934.46363323 Ry
     estimated scf accuracy    <          6.8E-10 Ry

     iteration # 33     ecut=    40.00 Ry     beta= 0.60
     Davidson diagonalization with overlap
     ethr =  7.04E-13,  avg # of iterations =  4.1

     total cpu time spent up to now is     2672.7 secs

     total energy              =    -934.46363323 Ry
     Harris-Foulkes estimate   =    -934.46363323 Ry
     estimated scf accuracy    <          1.7E-10 Ry

     iteration # 34     ecut=    40.00 Ry     beta= 0.60
     Davidson diagonalization with overlap
     ethr =  1.80E-13,  avg # of iterations =  3.3

     total cpu time spent up to now is     2707.5 secs

     End of self-consistent calculation

     Number of k-points >= 100: set verbosity='high' to print the bands.

     the Fermi energy is    12.9808 ev

!    total energy              =    -934.46363323 Ry
     Harris-Foulkes estimate   =    -934.46363323 Ry
     estimated scf accuracy    <          5.2E-11 Ry

     The total energy is the sum of the following terms:

     one-electron contribution =    -329.52870930 Ry
     hartree contribution      =     193.06973457 Ry
     xc contribution           =    -119.67890121 Ry
     ewald contribution        =    -678.32134526 Ry
     smearing contrib. (-TS)   =      -0.00441203 Ry

     convergence has been achieved in  34 iterations

     Forces acting on atoms (cartesian axes, Ry/au):

     atom    1 type  2   force =     0.00000535    0.00000309    0.00000000
     atom    2 type  2   force =    -0.00014204    0.00008232    0.00000000
     atom    3 type  2   force =    -0.00000596    0.00000300    0.00000000
     atom    4 type  2   force =     0.00014068    0.00008122    0.00000000
     atom    5 type  2   force =     0.00000180    0.00000104    0.00000000
     atom    6 type  2   force =     0.00000027   -0.00016417    0.00000000
     atom    7 type  2   force =    -0.00000038   -0.00000666    0.00000000
     atom    8 type  1   force =     0.00000028    0.00000016    0.00000000

     Total force =     0.000284     Total SCF correction =     0.000013


     Computing stress (Cartesian axis) and pressure

          total   stress  (Ry/bohr**3)                   (kbar)     P=  -74.48
  -0.00047327  -0.00000000   0.00000000        -69.62     -0.00      0.00
  -0.00000000  -0.00047327   0.00000000         -0.00    -69.62      0.00
   0.00000000   0.00000000  -0.00057231          0.00      0.00    -84.19


     number of scf cycles    =   2
     number of bfgs steps    =   1

     enthalpy old            =    -934.4113159411 Ry
     enthalpy new            =    -934.4636332306 Ry

     CASE: enthalpy_new < enthalpy_old

     new trust radius        =       0.1895996953 bohr
     new conv_thr            =            1.6E-11 Ry

     new unit-cell volume =    928.14083 a.u.^3 (   137.53628 Ang^3 )
     density =      5.16714 g/cm^3

CELL_PARAMETERS (alat=  1.88972599)
   2.905149171  -5.031866348   0.000000000
  -5.810300505  -0.000001249   0.000000000
   0.000000000   0.000000000  -4.704241695

ATOMIC_POSITIONS (angstrom)
Ti      -2.904449679  -5.031462496  -4.704241695
Ti      -0.000112805  -1.677224659  -2.352120847
Ti      -0.000701899  -5.031460918  -4.704241695
Ti      -2.905037468  -1.677225968  -2.352120847
Ti      -4.357725087  -2.515933943  -4.704241695
Ti       1.452575168  -4.193354226  -2.352120847
Ti      -1.452574422  -2.516743751  -4.704241695
Nb      -1.452574774  -4.193223743  -2.352120847


     NEW-OLD atomic charge density approx. for the potential
     extrapolated charge   89.49256, renormalised to   97.00000

     total cpu time spent up to now is     2728.9 secs

     Self-consistent Calculation

     iteration #  1     ecut=    40.00 Ry     beta= 0.60
     Davidson diagonalization with overlap
     c_bands:  3 eigenvalues not converged
     c_bands:  2 eigenvalues not converged
     c_bands:  1 eigenvalues not converged
     c_bands:  2 eigenvalues not converged
     c_bands:  3 eigenvalues not converged
     c_bands:  3 eigenvalues not converged
     c_bands:  2 eigenvalues not converged
     c_bands:  1 eigenvalues not converged
     c_bands:  1 eigenvalues not converged
     c_bands:  2 eigenvalues not converged
     c_bands:  5 eigenvalues not converged
     c_bands:  2 eigenvalues not converged
     c_bands:  3 eigenvalues not converged
     c_bands:  1 eigenvalues not converged
     c_bands:  2 eigenvalues not converged
     c_bands:  1 eigenvalues not converged
     c_bands:  2 eigenvalues not converged
     c_bands:  3 eigenvalues not converged
     c_bands:  3 eigenvalues not converged
     c_bands:  1 eigenvalues not converged
     c_bands:  5 eigenvalues not converged
     c_bands:  3 eigenvalues not converged
     c_bands:  1 eigenvalues not converged
     c_bands:  2 eigenvalues not converged
     c_bands:  1 eigenvalues not converged
     c_bands:  1 eigenvalues not converged
     c_bands:  2 eigenvalues not converged
     c_bands:  1 eigenvalues not converged
     c_bands:  1 eigenvalues not converged
     c_bands:  1 eigenvalues not converged
     c_bands:  3 eigenvalues not converged
     c_bands:  1 eigenvalues not converged
     c_bands:  1 eigenvalues not converged
     c_bands:  1 eigenvalues not converged
     c_bands:  1 eigenvalues not converged
     c_bands:  3 eigenvalues not converged
     c_bands:  3 eigenvalues not converged
     c_bands:  2 eigenvalues not converged
     c_bands:  1 eigenvalues not converged
     c_bands:  1 eigenvalues not converged
     c_bands:  2 eigenvalues not converged
     c_bands:  1 eigenvalues not converged
     c_bands:  3 eigenvalues not converged
     c_bands:  3 eigenvalues not converged
     c_bands:  1 eigenvalues not converged
     c_bands:  1 eigenvalues not converged
     c_bands:  1 eigenvalues not converged
     c_bands:  2 eigenvalues not converged
     c_bands:  3 eigenvalues not converged
     c_bands:  3 eigenvalues not converged
     c_bands:  1 eigenvalues not converged
     c_bands:  5 eigenvalues not converged
     c_bands:  3 eigenvalues not converged
     c_bands:  1 eigenvalues not converged
     c_bands:  3 eigenvalues not converged
     c_bands:  2 eigenvalues not converged
     c_bands:  1 eigenvalues not converged
     c_bands:  1 eigenvalues not converged
     c_bands:  2 eigenvalues not converged
     c_bands:  2 eigenvalues not converged
     c_bands:  1 eigenvalues not converged
     c_bands:  1 eigenvalues not converged
     c_bands:  1 eigenvalues not converged
     c_bands:  1 eigenvalues not converged
     ethr =  1.00E-06,  avg # of iterations = 16.9

     total cpu time spent up to now is     2865.9 secs

     total energy              =    -925.66314992 Ry
     Harris-Foulkes estimate   =    -952.66169068 Ry
     estimated scf accuracy    <       8.65273175 Ry

     iteration #  2     ecut=    40.00 Ry     beta= 0.60
     Davidson diagonalization with overlap
     ethr =  8.92E-03,  avg # of iterations =  4.3

     total cpu time spent up to now is     2927.1 secs

     total energy              =    -932.03266113 Ry
     Harris-Foulkes estimate   =    -944.24058058 Ry
     estimated scf accuracy    <      39.49001133 Ry

     iteration #  3     ecut=    40.00 Ry     beta= 0.60
     Davidson diagonalization with overlap
     ethr =  8.92E-03,  avg # of iterations =  3.0

     total cpu time spent up to now is     2965.4 secs

     total energy              =    -934.33524697 Ry
     Harris-Foulkes estimate   =    -936.15490090 Ry
     estimated scf accuracy    <       6.24838515 Ry

     iteration #  4     ecut=    40.00 Ry     beta= 0.60
     Davidson diagonalization with overlap
     ethr =  6.44E-03,  avg # of iterations =  2.9

     total cpu time spent up to now is     3000.4 secs

     total energy              =    -934.82521154 Ry
     Harris-Foulkes estimate   =    -935.38010160 Ry
     estimated scf accuracy    <       4.70998204 Ry

     iteration #  5     ecut=    40.00 Ry     beta= 0.60
     Davidson diagonalization with overlap
     ethr =  4.86E-03,  avg # of iterations =  1.1

     total cpu time spent up to now is     3029.1 secs

     total energy              =    -934.73000887 Ry
     Harris-Foulkes estimate   =    -934.95774130 Ry
     estimated scf accuracy    <       2.54594536 Ry

     iteration #  6     ecut=    40.00 Ry     beta= 0.60
     Davidson diagonalization with overlap
     ethr =  2.62E-03,  avg # of iterations =  1.1

     total cpu time spent up to now is     3058.1 secs

     total energy              =    -934.66080451 Ry
     Harris-Foulkes estimate   =    -934.77139024 Ry
     estimated scf accuracy    <       1.63191765 Ry

     iteration #  7     ecut=    40.00 Ry     beta= 0.60
     Davidson diagonalization with overlap
     ethr =  1.68E-03,  avg # of iterations =  1.0

     total cpu time spent up to now is     3086.6 secs

     total energy              =    -934.44790962 Ry
     Harris-Foulkes estimate   =    -934.68268597 Ry
     estimated scf accuracy    <       1.15335427 Ry

     iteration #  8     ecut=    40.00 Ry     beta= 0.60
     Davidson diagonalization with overlap
     ethr =  1.19E-03,  avg # of iterations =  2.9

     total cpu time spent up to now is     3119.6 secs

     total energy              =    -934.48086147 Ry
     Harris-Foulkes estimate   =    -934.50214499 Ry
     estimated scf accuracy    <       0.31058278 Ry

     iteration #  9     ecut=    40.00 Ry     beta= 0.60
     Davidson diagonalization with overlap
     ethr =  3.20E-04,  avg # of iterations =  6.3

     total cpu time spent up to now is     3167.5 secs

     total energy              =    -934.52683908 Ry
     Harris-Foulkes estimate   =    -934.51444460 Ry
     estimated scf accuracy    <       0.14050050 Ry

     iteration # 10     ecut=    40.00 Ry     beta= 0.60
     Davidson diagonalization with overlap
     ethr =  1.45E-04,  avg # of iterations =  2.2

     total cpu time spent up to now is     3198.5 secs

     total energy              =    -934.44436305 Ry
     Harris-Foulkes estimate   =    -934.52890098 Ry
     estimated scf accuracy    <       0.19176808 Ry

     iteration # 11     ecut=    40.00 Ry     beta= 0.60
     Davidson diagonalization with overlap
     ethr =  1.45E-04,  avg # of iterations =  4.2

     total cpu time spent up to now is     3241.5 secs

     total energy              =    -934.47857763 Ry
     Harris-Foulkes estimate   =    -934.47942447 Ry
     estimated scf accuracy    <       0.00286213 Ry

     iteration # 12     ecut=    40.00 Ry     beta= 0.60
     Davidson diagonalization with overlap
     c_bands:  1 eigenvalues not converged
     c_bands:  1 eigenvalues not converged
     c_bands:  1 eigenvalues not converged
     c_bands:  1 eigenvalues not converged
     c_bands:  1 eigenvalues not converged
     c_bands:  1 eigenvalues not converged
     c_bands:  1 eigenvalues not converged
     c_bands:  2 eigenvalues not converged
     c_bands:  2 eigenvalues not converged
     c_bands:  1 eigenvalues not converged
     c_bands:  1 eigenvalues not converged
     c_bands:  1 eigenvalues not converged
     c_bands:  1 eigenvalues not converged
     c_bands:  1 eigenvalues not converged
     c_bands:  1 eigenvalues not converged
     c_bands:  2 eigenvalues not converged
     c_bands:  1 eigenvalues not converged
     c_bands:  1 eigenvalues not converged
     c_bands:  1 eigenvalues not converged
     c_bands:  1 eigenvalues not converged
     c_bands:  1 eigenvalues not converged
     c_bands:  1 eigenvalues not converged
     c_bands:  1 eigenvalues not converged
     c_bands:  1 eigenvalues not converged
     c_bands:  1 eigenvalues not converged
     c_bands:  1 eigenvalues not converged
     c_bands:  1 eigenvalues not converged
     c_bands:  1 eigenvalues not converged
     c_bands:  1 eigenvalues not converged
     c_bands:  1 eigenvalues not converged
     c_bands:  1 eigenvalues not converged
     c_bands:  1 eigenvalues not converged
     c_bands:  1 eigenvalues not converged
     c_bands:  1 eigenvalues not converged
     c_bands:  1 eigenvalues not converged
     c_bands:  1 eigenvalues not converged
     c_bands:  1 eigenvalues not converged
     c_bands:  1 eigenvalues not converged
     c_bands:  1 eigenvalues not converged
     c_bands:  1 eigenvalues not converged
     c_bands:  1 eigenvalues not converged
     c_bands:  1 eigenvalues not converged
     c_bands:  1 eigenvalues not converged
     c_bands:  1 eigenvalues not converged
     c_bands:  1 eigenvalues not converged
     c_bands:  1 eigenvalues not converged
     c_bands:  1 eigenvalues not converged
     c_bands:  1 eigenvalues not converged
     c_bands:  1 eigenvalues not converged
     c_bands:  3 eigenvalues not converged
     c_bands:  1 eigenvalues not converged
     c_bands:  1 eigenvalues not converged
     c_bands:  2 eigenvalues not converged
     c_bands:  1 eigenvalues not converged
     c_bands:  1 eigenvalues not converged
     c_bands:  1 eigenvalues not converged
     c_bands:  1 eigenvalues not converged
     c_bands:  1 eigenvalues not converged
     c_bands:  1 eigenvalues not converged
     c_bands:  1 eigenvalues not converged
     c_bands:  1 eigenvalues not converged
     c_bands:  1 eigenvalues not converged
     c_bands:  1 eigenvalues not converged
     c_bands:  1 eigenvalues not converged
     c_bands:  2 eigenvalues not converged
     c_bands:  1 eigenvalues not converged
     c_bands:  1 eigenvalues not converged
     c_bands:  1 eigenvalues not converged
     c_bands:  1 eigenvalues not converged
     c_bands:  1 eigenvalues not converged
     c_bands:  1 eigenvalues not converged
     c_bands:  1 eigenvalues not converged
     c_bands:  1 eigenvalues not converged
     c_bands:  2 eigenvalues not converged
     c_bands:  2 eigenvalues not converged
     c_bands:  1 eigenvalues not converged
     c_bands:  1 eigenvalues not converged
     c_bands:  1 eigenvalues not converged
     c_bands:  1 eigenvalues not converged
     c_bands:  1 eigenvalues not converged
     c_bands:  1 eigenvalues not converged
     c_bands:  1 eigenvalues not converged
     ethr =  2.95E-06,  avg # of iterations = 17.0

     total cpu time spent up to now is     3331.1 secs

     total energy              =    -934.48222516 Ry
     Harris-Foulkes estimate   =    -934.48316143 Ry
     estimated scf accuracy    <       0.02060947 Ry

     iteration # 13     ecut=    40.00 Ry     beta= 0.60
     Davidson diagonalization with overlap
     c_bands:  1 eigenvalues not converged
     c_bands:  1 eigenvalues not converged
     c_bands:  1 eigenvalues not converged
     c_bands:  2 eigenvalues not converged
     c_bands:  1 eigenvalues not converged
     c_bands:  1 eigenvalues not converged
     ethr =  2.95E-06,  avg # of iterations =  2.8

     total cpu time spent up to now is     3363.1 secs

     total energy              =    -934.48068158 Ry
     Harris-Foulkes estimate   =    -934.48238961 Ry
     estimated scf accuracy    <       0.01573372 Ry

     iteration # 14     ecut=    40.00 Ry     beta= 0.60
     Davidson diagonalization with overlap
     c_bands:  1 eigenvalues not converged
     ethr =  2.95E-06,  avg # of iterations =  4.8

     total cpu time spent up to now is     3406.8 secs

     total energy              =    -934.48075676 Ry
     Harris-Foulkes estimate   =    -934.48121673 Ry
     estimated scf accuracy    <       0.00520540 Ry

     iteration # 15     ecut=    40.00 Ry     beta= 0.60
     Davidson diagonalization with overlap
     ethr =  2.95E-06,  avg # of iterations =  1.1

     total cpu time spent up to now is     3435.6 secs

     total energy              =    -934.48088123 Ry
     Harris-Foulkes estimate   =    -934.48085184 Ry
     estimated scf accuracy    <       0.00288951 Ry

     iteration # 16     ecut=    40.00 Ry     beta= 0.60
     Davidson diagonalization with overlap
     ethr =  2.95E-06,  avg # of iterations =  1.0

     total cpu time spent up to now is     3464.4 secs

     total energy              =    -934.48067323 Ry
     Harris-Foulkes estimate   =    -934.48090616 Ry
     estimated scf accuracy    <       0.00282188 Ry

     iteration # 17     ecut=    40.00 Ry     beta= 0.60
     Davidson diagonalization with overlap
     ethr =  2.91E-06,  avg # of iterations =  3.6

     total cpu time spent up to now is     3498.7 secs

     total energy              =    -934.48007634 Ry
     Harris-Foulkes estimate   =    -934.48096756 Ry
     estimated scf accuracy    <       0.00429996 Ry

     iteration # 18     ecut=    40.00 Ry     beta= 0.60
     Davidson diagonalization with overlap
     ethr =  2.91E-06,  avg # of iterations =  3.5

     total cpu time spent up to now is     3538.0 secs

     total energy              =    -934.48052100 Ry
     Harris-Foulkes estimate   =    -934.48061364 Ry
     estimated scf accuracy    <       0.00040435 Ry

     iteration # 19     ecut=    40.00 Ry     beta= 0.60
     Davidson diagonalization with overlap
     ethr =  4.17E-07,  avg # of iterations =  4.6

     total cpu time spent up to now is     3579.0 secs

     total energy              =    -934.48058365 Ry
     Harris-Foulkes estimate   =    -934.48058813 Ry
     estimated scf accuracy    <       0.00003315 Ry

     iteration # 20     ecut=    40.00 Ry     beta= 0.60
     Davidson diagonalization with overlap
     c_bands:  1 eigenvalues not converged
     ethr =  3.42E-08,  avg # of iterations =  5.0

     total cpu time spent up to now is     3622.9 secs

     total energy              =    -934.48058655 Ry
     Harris-Foulkes estimate   =    -934.48058991 Ry
     estimated scf accuracy    <       0.00001906 Ry

     iteration # 21     ecut=    40.00 Ry     beta= 0.60
     Davidson diagonalization with overlap
     ethr =  1.97E-08,  avg # of iterations =  3.0

     total cpu time spent up to now is     3656.4 secs

     total energy              =    -934.48058822 Ry
     Harris-Foulkes estimate   =    -934.48058827 Ry
     estimated scf accuracy    <       0.00000022 Ry

     iteration # 22     ecut=    40.00 Ry     beta= 0.60
     Davidson diagonalization with overlap
     c_bands:  1 eigenvalues not converged
     ethr =  2.32E-10,  avg # of iterations =  6.9

     total cpu time spent up to now is     3724.4 secs

     total energy              =    -934.48058877 Ry
     Harris-Foulkes estimate   =    -934.48058890 Ry
     estimated scf accuracy    <       0.00000196 Ry

     iteration # 23     ecut=    40.00 Ry     beta= 0.60
     Davidson diagonalization with overlap
     ethr =  2.32E-10,  avg # of iterations =  1.1

     total cpu time spent up to now is     3753.4 secs

     total energy              =    -934.48058868 Ry
     Harris-Foulkes estimate   =    -934.48058879 Ry
     estimated scf accuracy    <       0.00000098 Ry

     iteration # 24     ecut=    40.00 Ry     beta= 0.60
     Davidson diagonalization with overlap
     ethr =  2.32E-10,  avg # of iterations =  4.0

     total cpu time spent up to now is     3795.5 secs

     total energy              =    -934.48058875 Ry
     Harris-Foulkes estimate   =    -934.48058875 Ry
     estimated scf accuracy    <          3.4E-09 Ry

     iteration # 25     ecut=    40.00 Ry     beta= 0.60
     Davidson diagonalization with overlap
     ethr =  3.49E-12,  avg # of iterations =  6.1

     total cpu time spent up to now is     3851.6 secs

     total energy              =    -934.48058875 Ry
     Harris-Foulkes estimate   =    -934.48058876 Ry
     estimated scf accuracy    <       0.00000002 Ry

     iteration # 26     ecut=    40.00 Ry     beta= 0.60
     Davidson diagonalization with overlap
     ethr =  3.49E-12,  avg # of iterations =  4.7

     total cpu time spent up to now is     3897.8 secs

     total energy              =    -934.48058876 Ry
     Harris-Foulkes estimate   =    -934.48058876 Ry
     estimated scf accuracy    <          3.2E-09 Ry

     iteration # 27     ecut=    40.00 Ry     beta= 0.60
     Davidson diagonalization with overlap
     ethr =  3.26E-12,  avg # of iterations =  1.2

     total cpu time spent up to now is     3926.9 secs

     total energy              =    -934.48058876 Ry
     Harris-Foulkes estimate   =    -934.48058876 Ry
     estimated scf accuracy    <          7.9E-10 Ry

     iteration # 28     ecut=    40.00 Ry     beta= 0.60
     Davidson diagonalization with overlap
     ethr =  8.13E-13,  avg # of iterations =  4.3

     total cpu time spent up to now is     3969.1 secs

     total energy              =    -934.48058876 Ry
     Harris-Foulkes estimate   =    -934.48058876 Ry
     estimated scf accuracy    <          2.3E-10 Ry

     iteration # 29     ecut=    40.00 Ry     beta= 0.60
     Davidson diagonalization with overlap
     ethr =  2.41E-13,  avg # of iterations =  3.3

     total cpu time spent up to now is     4003.5 secs

     total energy              =    -934.48058876 Ry
     Harris-Foulkes estimate   =    -934.48058876 Ry
     estimated scf accuracy    <          8.7E-11 Ry

     iteration # 30     ecut=    40.00 Ry     beta= 0.60
     Davidson diagonalization with overlap
     ethr =  1.00E-13,  avg # of iterations =  3.5

     total cpu time spent up to now is     4039.0 secs

     total energy              =    -934.48058876 Ry
     Harris-Foulkes estimate   =    -934.48058876 Ry
     estimated scf accuracy    <          2.3E-11 Ry

     iteration # 31     ecut=    40.00 Ry     beta= 0.60
     Davidson diagonalization with overlap
     ethr =  1.00E-13,  avg # of iterations =  1.0

     total cpu time spent up to now is     4067.9 secs

     End of self-consistent calculation

     Number of k-points >= 100: set verbosity='high' to print the bands.

     the Fermi energy is    14.2749 ev

!    total energy              =    -934.48058876 Ry
     Harris-Foulkes estimate   =    -934.48058876 Ry
     estimated scf accuracy    <          3.5E-12 Ry

     The total energy is the sum of the following terms:

     one-electron contribution =    -302.23379944 Ry
     hartree contribution      =     184.62336956 Ry
     xc contribution           =    -120.19149439 Ry
     ewald contribution        =    -696.67354275 Ry
     smearing contrib. (-TS)   =      -0.00512173 Ry

     convergence has been achieved in  31 iterations

     Forces acting on atoms (cartesian axes, Ry/au):

     atom    1 type  2   force =    -0.00190108   -0.00109759    0.00000000
     atom    2 type  2   force =    -0.00032321    0.00018847    0.00000000
     atom    3 type  2   force =     0.00189999   -0.00109967    0.00000000
     atom    4 type  2   force =     0.00032243    0.00018615    0.00000000
     atom    5 type  2   force =     0.00000268    0.00000155    0.00000000
     atom    6 type  2   force =     0.00000161   -0.00037414    0.00000000
     atom    7 type  2   force =    -0.00000235    0.00219528    0.00000000
     atom    8 type  1   force =    -0.00000007   -0.00000004    0.00000000

     Total force =     0.003857     Total SCF correction =     0.000003


     Computing stress (Cartesian axis) and pressure

          total   stress  (Ry/bohr**3)                   (kbar)     P=   16.52
   0.00012886  -0.00000001   0.00000000         18.96     -0.00      0.00
  -0.00000001   0.00012887   0.00000000         -0.00     18.96      0.00
   0.00000000   0.00000000   0.00007916          0.00      0.00     11.64


     number of scf cycles    =   3
     number of bfgs steps    =   2

     enthalpy old            =    -934.4636332306 Ry
     enthalpy new            =    -934.4805887559 Ry

     CASE: enthalpy_new < enthalpy_old

     new trust radius        =       0.0290032428 bohr
     new conv_thr            =            1.0E-10 Ry

     new unit-cell volume =    941.03530 a.u.^3 (   139.44704 Ang^3 )
     density =      5.09634 g/cm^3

CELL_PARAMETERS (alat=  1.88972599)
   2.918978008  -5.055818594   0.000000000
  -5.837956751  -0.000000424   0.000000000
  -0.000000000  -0.000000000  -4.724512849

ATOMIC_POSITIONS (angstrom)
Ti      -2.919037654  -5.055853031  -4.724512849
Ti      -0.000229564  -1.685140343  -2.362256424
Ti       0.000059008  -5.055852689  -4.724512849
Ti      -2.918748540  -1.685142067  -2.362256424
Ti      -4.378466005  -2.527908716  -4.724512849
Ti       1.459490449  -4.213449760  -2.362256424
Ti      -1.459489027  -2.527841148  -4.724512849
Nb      -1.459488287  -4.213183434  -2.362256424


     NEW-OLD atomic charge density approx. for the potential
     extrapolated charge   98.23318, renormalised to   97.00000

     total cpu time spent up to now is     4089.3 secs

     Self-consistent Calculation

     iteration #  1     ecut=    40.00 Ry     beta= 0.60
     Davidson diagonalization with overlap
     c_bands:  1 eigenvalues not converged
     c_bands:  1 eigenvalues not converged
     c_bands:  1 eigenvalues not converged
     c_bands:  1 eigenvalues not converged
     c_bands:  1 eigenvalues not converged
     c_bands:  1 eigenvalues not converged
     ethr =  1.00E-06,  avg # of iterations = 12.0

     total cpu time spent up to now is     4179.0 secs

     total energy              =    -934.36059245 Ry
     Harris-Foulkes estimate   =    -931.69332051 Ry
     estimated scf accuracy    <       0.10219941 Ry

     iteration #  2     ecut=    40.00 Ry     beta= 0.60
     Davidson diagonalization with overlap
     ethr =  1.05E-04,  avg # of iterations =  5.0

     total cpu time spent up to now is     4242.8 secs

     total energy              =    -934.40299709 Ry
     Harris-Foulkes estimate   =    -934.60247861 Ry
     estimated scf accuracy    <       0.81400349 Ry

     iteration #  3     ecut=    40.00 Ry     beta= 0.60
     Davidson diagonalization with overlap
     ethr =  1.05E-04,  avg # of iterations =  4.7

     total cpu time spent up to now is     4293.8 secs

     total energy              =    -934.46213516 Ry
     Harris-Foulkes estimate   =    -934.51874806 Ry
     estimated scf accuracy    <       0.26012914 Ry

     iteration #  4     ecut=    40.00 Ry     beta= 0.60
     Davidson diagonalization with overlap
     ethr =  1.05E-04,  avg # of iterations =  4.2

     total cpu time spent up to now is     4335.1 secs

     total energy              =    -934.48338068 Ry
     Harris-Foulkes estimate   =    -934.49278048 Ry
     estimated scf accuracy    <       0.09330123 Ry

     iteration #  5     ecut=    40.00 Ry     beta= 0.60
     Davidson diagonalization with overlap
     ethr =  9.62E-05,  avg # of iterations =  1.0

     total cpu time spent up to now is     4363.7 secs

     total energy              =    -934.48626343 Ry
     Harris-Foulkes estimate   =    -934.48692862 Ry
     estimated scf accuracy    <       0.02811230 Ry

     iteration #  6     ecut=    40.00 Ry     beta= 0.60
     Davidson diagonalization with overlap
     ethr =  2.90E-05,  avg # of iterations =  1.4

     total cpu time spent up to now is     4393.4 secs

     total energy              =    -934.48527700 Ry
     Harris-Foulkes estimate   =    -934.48668131 Ry
     estimated scf accuracy    <       0.02563248 Ry

     iteration #  7     ecut=    40.00 Ry     beta= 0.60
     Davidson diagonalization with overlap
     ethr =  2.64E-05,  avg # of iterations =  1.0

     total cpu time spent up to now is     4422.2 secs

     total energy              =    -934.48197522 Ry
     Harris-Foulkes estimate   =    -934.48557499 Ry
     estimated scf accuracy    <       0.02041780 Ry

     iteration #  8     ecut=    40.00 Ry     beta= 0.60
     Davidson diagonalization with overlap
     ethr =  2.10E-05,  avg # of iterations =  3.0

     total cpu time spent up to now is     4455.2 secs

     total energy              =    -934.48192311 Ry
     Harris-Foulkes estimate   =    -934.48271122 Ry
     estimated scf accuracy    <       0.00870092 Ry

     iteration #  9     ecut=    40.00 Ry     beta= 0.60
     Davidson diagonalization with overlap
     ethr =  8.97E-06,  avg # of iterations =  3.8

     total cpu time spent up to now is     4491.0 secs

     total energy              =    -934.48152860 Ry
     Harris-Foulkes estimate   =    -934.48237057 Ry
     estimated scf accuracy    <       0.00531004 Ry

     iteration # 10     ecut=    40.00 Ry     beta= 0.60
     Davidson diagonalization with overlap
     ethr =  5.47E-06,  avg # of iterations =  3.2

     total cpu time spent up to now is     4524.7 secs

     total energy              =    -934.48067337 Ry
     Harris-Foulkes estimate   =    -934.48172153 Ry
     estimated scf accuracy    <       0.00269803 Ry

     iteration # 11     ecut=    40.00 Ry     beta= 0.60
     Davidson diagonalization with overlap
     ethr =  2.78E-06,  avg # of iterations =  5.3

     total cpu time spent up to now is     4572.4 secs

     total energy              =    -934.48124533 Ry
     Harris-Foulkes estimate   =    -934.48127683 Ry
     estimated scf accuracy    <       0.00018581 Ry

     iteration # 12     ecut=    40.00 Ry     beta= 0.60
     Davidson diagonalization with overlap
     c_bands:  1 eigenvalues not converged
     ethr =  1.92E-07,  avg # of iterations =  4.6

     total cpu time spent up to now is     4618.5 secs

     total energy              =    -934.48128498 Ry
     Harris-Foulkes estimate   =    -934.48128731 Ry
     estimated scf accuracy    <       0.00001000 Ry

     iteration # 13     ecut=    40.00 Ry     beta= 0.60
     Davidson diagonalization with overlap
     ethr =  1.03E-08,  avg # of iterations =  5.6

     total cpu time spent up to now is     4670.6 secs

     total energy              =    -934.48128705 Ry
     Harris-Foulkes estimate   =    -934.48128996 Ry
     estimated scf accuracy    <       0.00002557 Ry

     iteration # 14     ecut=    40.00 Ry     beta= 0.60
     Davidson diagonalization with overlap
     ethr =  1.03E-08,  avg # of iterations =  4.0

     total cpu time spent up to now is     4707.3 secs

     total energy              =    -934.48128739 Ry
     Harris-Foulkes estimate   =    -934.48128864 Ry
     estimated scf accuracy    <       0.00001010 Ry

     iteration # 15     ecut=    40.00 Ry     beta= 0.60
     Davidson diagonalization with overlap
     ethr =  1.03E-08,  avg # of iterations =  1.5

     total cpu time spent up to now is     4737.0 secs

     total energy              =    -934.48128780 Ry
     Harris-Foulkes estimate   =    -934.48128804 Ry
     estimated scf accuracy    <       0.00000438 Ry

     iteration # 16     ecut=    40.00 Ry     beta= 0.60
     Davidson diagonalization with overlap
     ethr =  4.51E-09,  avg # of iterations =  3.6

     total cpu time spent up to now is     4772.4 secs

     total energy              =    -934.48128767 Ry
     Harris-Foulkes estimate   =    -934.48128813 Ry
     estimated scf accuracy    <       0.00000285 Ry

     iteration # 17     ecut=    40.00 Ry     beta= 0.60
     Davidson diagonalization with overlap
     ethr =  2.94E-09,  avg # of iterations =  4.1

     total cpu time spent up to now is     4812.8 secs

     total energy              =    -934.48128781 Ry
     Harris-Foulkes estimate   =    -934.48128818 Ry
     estimated scf accuracy    <       0.00000303 Ry

     iteration # 18     ecut=    40.00 Ry     beta= 0.60
     Davidson diagonalization with overlap
     ethr =  2.94E-09,  avg # of iterations =  1.1

     total cpu time spent up to now is     4841.6 secs

     total energy              =    -934.48128788 Ry
     Harris-Foulkes estimate   =    -934.48128795 Ry
     estimated scf accuracy    <       0.00000058 Ry

     iteration # 19     ecut=    40.00 Ry     beta= 0.60
     Davidson diagonalization with overlap
     ethr =  5.99E-10,  avg # of iterations =  4.9

     total cpu time spent up to now is     4886.2 secs

     total energy              =    -934.48128794 Ry
     Harris-Foulkes estimate   =    -934.48128799 Ry
     estimated scf accuracy    <       0.00000024 Ry

     iteration # 20     ecut=    40.00 Ry     beta= 0.60
     Davidson diagonalization with overlap
     ethr =  2.49E-10,  avg # of iterations =  3.5

     total cpu time spent up to now is     4921.4 secs

     total energy              =    -934.48128797 Ry
     Harris-Foulkes estimate   =    -934.48128797 Ry
     estimated scf accuracy    <       0.00000001 Ry

     iteration # 21     ecut=    40.00 Ry     beta= 0.60
     Davidson diagonalization with overlap
     ethr =  1.03E-11,  avg # of iterations =  5.5

     total cpu time spent up to now is     4972.2 secs

     total energy              =    -934.48128797 Ry
     Harris-Foulkes estimate   =    -934.48128798 Ry
     estimated scf accuracy    <       0.00000002 Ry

     iteration # 22     ecut=    40.00 Ry     beta= 0.60
     Davidson diagonalization with overlap
     ethr =  1.03E-11,  avg # of iterations =  1.3

     total cpu time spent up to now is     5001.4 secs

     total energy              =    -934.48128797 Ry
     Harris-Foulkes estimate   =    -934.48128797 Ry
     estimated scf accuracy    <          4.4E-09 Ry

     iteration # 23     ecut=    40.00 Ry     beta= 0.60
     Davidson diagonalization with overlap
     ethr =  4.54E-12,  avg # of iterations =  4.2

     total cpu time spent up to now is     5042.8 secs

     total energy              =    -934.48128798 Ry
     Harris-Foulkes estimate   =    -934.48128798 Ry
     estimated scf accuracy    <          1.0E-09 Ry

     iteration # 24     ecut=    40.00 Ry     beta= 0.60
     Davidson diagonalization with overlap
     ethr =  1.05E-12,  avg # of iterations =  2.4

     total cpu time spent up to now is     5074.6 secs

     total energy              =    -934.48128797 Ry
     Harris-Foulkes estimate   =    -934.48128798 Ry
     estimated scf accuracy    <          1.5E-10 Ry

     iteration # 25     ecut=    40.00 Ry     beta= 0.60
     Davidson diagonalization with overlap
     ethr =  1.53E-13,  avg # of iterations =  4.8

     total cpu time spent up to now is     5120.3 secs

     End of self-consistent calculation

     Number of k-points >= 100: set verbosity='high' to print the bands.

     the Fermi energy is    14.0464 ev

!    total energy              =    -934.48128797 Ry
     Harris-Foulkes estimate   =    -934.48128798 Ry
     estimated scf accuracy    <          5.9E-11 Ry

     The total energy is the sum of the following terms:

     one-electron contribution =    -306.96583004 Ry
     hartree contribution      =     186.06768117 Ry
     xc contribution           =    -120.09943830 Ry
     ewald contribution        =    -693.47862684 Ry
     smearing contrib. (-TS)   =      -0.00507397 Ry

     convergence has been achieved in  25 iterations

     Forces acting on atoms (cartesian axes, Ry/au):

     atom    1 type  2   force =    -0.00120994   -0.00069856    0.00000000
     atom    2 type  2   force =    -0.00020975    0.00012213    0.00000000
     atom    3 type  2   force =     0.00121044   -0.00070044   -0.00000000
     atom    4 type  2   force =     0.00020807    0.00012013   -0.00000000
     atom    5 type  2   force =     0.00000177    0.00000102   -0.00000000
     atom    6 type  2   force =     0.00000090   -0.00024271    0.00000000
     atom    7 type  2   force =    -0.00000138    0.00139850   -0.00000000
     atom    8 type  1   force =    -0.00000011   -0.00000006    0.00000000

     Total force =     0.002457     Total SCF correction =     0.000008


     Computing stress (Cartesian axis) and pressure

          total   stress  (Ry/bohr**3)                   (kbar)     P=   -0.98
   0.00000980  -0.00000000   0.00000000          1.44     -0.00      0.00
  -0.00000000   0.00000980   0.00000000         -0.00      1.44      0.00
  -0.00000000  -0.00000000  -0.00003967         -0.00     -0.00     -5.84


     number of scf cycles    =   4
     number of bfgs steps    =   3

     enthalpy old            =    -934.4805887559 Ry
     enthalpy new            =    -934.4812879750 Ry

     CASE: enthalpy_new < enthalpy_old

     new trust radius        =       0.0062320579 bohr
     new conv_thr            =            1.0E-10 Ry

     new unit-cell volume =    940.45315 a.u.^3 (   139.36078 Ang^3 )
     density =      5.09950 g/cm^3

CELL_PARAMETERS (alat=  1.88972599)
   2.919558313  -5.056823712  -0.000000000
  -5.839116947  -0.000000186  -0.000000000
  -0.000000000  -0.000000000  -4.719713796

ATOMIC_POSITIONS (angstrom)
Ti      -2.920215581  -5.057203186  -4.719713796
Ti      -0.000333890  -1.685414552  -2.359856898
Ti       0.000657460  -5.057203878  -4.719713796
Ti      -2.919224977  -1.685417138  -2.359856898
Ti      -4.379335167  -2.528410527  -4.719713796
Ti       1.459781119  -4.214408122  -2.359856898
Ti      -1.459779660  -2.527652396  -4.719713796
Nb      -1.459778216  -4.214020903  -2.359856898


     NEW-OLD atomic charge density approx. for the potential
     extrapolated charge   96.94429, renormalised to   97.00000

     total cpu time spent up to now is     5141.7 secs

     Self-consistent Calculation

     iteration #  1     ecut=    40.00 Ry     beta= 0.60
     Davidson diagonalization with overlap
     ethr =  1.00E-06,  avg # of iterations =  3.3

     total cpu time spent up to now is     5194.4 secs

     total energy              =    -934.48106678 Ry
     Harris-Foulkes estimate   =    -934.60827460 Ry
     estimated scf accuracy    <       0.00023650 Ry

     iteration #  2     ecut=    40.00 Ry     beta= 0.60
     Davidson diagonalization with overlap
     ethr =  2.44E-07,  avg # of iterations =  5.4

     total cpu time spent up to now is     5260.1 secs

     total energy              =    -934.48107878 Ry
     Harris-Foulkes estimate   =    -934.48166119 Ry
     estimated scf accuracy    <       0.00270791 Ry

     iteration #  3     ecut=    40.00 Ry     beta= 0.60
     Davidson diagonalization with overlap
     ethr =  2.44E-07,  avg # of iterations =  5.3

     total cpu time spent up to now is     5311.0 secs

     total energy              =    -934.48129895 Ry
     Harris-Foulkes estimate   =    -934.48140612 Ry
     estimated scf accuracy    <       0.00044661 Ry

     iteration #  4     ecut=    40.00 Ry     beta= 0.60
     Davidson diagonalization with overlap
     ethr =  2.44E-07,  avg # of iterations =  4.4

     total cpu time spent up to now is     5352.2 secs

     total energy              =    -934.48132819 Ry
     Harris-Foulkes estimate   =    -934.48135840 Ry
     estimated scf accuracy    <       0.00024100 Ry

     iteration #  5     ecut=    40.00 Ry     beta= 0.60
     Davidson diagonalization with overlap
     ethr =  2.44E-07,  avg # of iterations =  1.0

     total cpu time spent up to now is     5380.8 secs

     total energy              =    -934.48133454 Ry
     Harris-Foulkes estimate   =    -934.48133984 Ry
     estimated scf accuracy    <       0.00004908 Ry

     iteration #  6     ecut=    40.00 Ry     beta= 0.60
     Davidson diagonalization with overlap
     ethr =  5.06E-08,  avg # of iterations =  4.3

     total cpu time spent up to now is     5420.2 secs

     total energy              =    -934.48133062 Ry
     Harris-Foulkes estimate   =    -934.48133906 Ry
     estimated scf accuracy    <       0.00003821 Ry

     iteration #  7     ecut=    40.00 Ry     beta= 0.60
     Davidson diagonalization with overlap
     ethr =  3.94E-08,  avg # of iterations =  2.6

     total cpu time spent up to now is     5452.7 secs

     total energy              =    -934.48132942 Ry
     Harris-Foulkes estimate   =    -934.48133283 Ry
     estimated scf accuracy    <       0.00002053 Ry

     iteration #  8     ecut=    40.00 Ry     beta= 0.60
     Davidson diagonalization with overlap
     ethr =  2.12E-08,  avg # of iterations =  2.6

     total cpu time spent up to now is     5486.7 secs

     total energy              =    -934.48133023 Ry
     Harris-Foulkes estimate   =    -934.48133087 Ry
     estimated scf accuracy    <       0.00000685 Ry

     iteration #  9     ecut=    40.00 Ry     beta= 0.60
     Davidson diagonalization with overlap
     ethr =  7.07E-09,  avg # of iterations =  2.8

     total cpu time spent up to now is     5519.4 secs

     total energy              =    -934.48133028 Ry
     Harris-Foulkes estimate   =    -934.48133049 Ry
     estimated scf accuracy    <       0.00000344 Ry

     iteration # 10     ecut=    40.00 Ry     beta= 0.60
     Davidson diagonalization with overlap
     ethr =  3.55E-09,  avg # of iterations =  3.4

     total cpu time spent up to now is     5553.8 secs

     total energy              =    -934.48133023 Ry
     Harris-Foulkes estimate   =    -934.48133044 Ry
     estimated scf accuracy    <       0.00000163 Ry

     iteration # 11     ecut=    40.00 Ry     beta= 0.60
     Davidson diagonalization with overlap
     ethr =  1.68E-09,  avg # of iterations =  4.0

     total cpu time spent up to now is     5592.5 secs

     total energy              =    -934.48133041 Ry
     Harris-Foulkes estimate   =    -934.48133042 Ry
     estimated scf accuracy    <       0.00000012 Ry

     iteration # 12     ecut=    40.00 Ry     beta= 0.60
     Davidson diagonalization with overlap
     ethr =  1.27E-10,  avg # of iterations =  5.3

     total cpu time spent up to now is     5639.9 secs

     total energy              =    -934.48133044 Ry
     Harris-Foulkes estimate   =    -934.48133044 Ry
     estimated scf accuracy    <       0.00000006 Ry

     iteration # 13     ecut=    40.00 Ry     beta= 0.60
     Davidson diagonalization with overlap
     ethr =  5.81E-11,  avg # of iterations =  1.3

     total cpu time spent up to now is     5669.1 secs

     total energy              =    -934.48133044 Ry
     Harris-Foulkes estimate   =    -934.48133044 Ry
     estimated scf accuracy    <       0.00000002 Ry

     iteration # 14     ecut=    40.00 Ry     beta= 0.60
     Davidson diagonalization with overlap
     ethr =  1.89E-11,  avg # of iterations =  4.4

     total cpu time spent up to now is     5713.4 secs

     total energy              =    -934.48133044 Ry
     Harris-Foulkes estimate   =    -934.48133044 Ry
     estimated scf accuracy    <       0.00000002 Ry

     iteration # 15     ecut=    40.00 Ry     beta= 0.60
     Davidson diagonalization with overlap
     ethr =  1.87E-11,  avg # of iterations =  2.4

     total cpu time spent up to now is     5744.7 secs

     total energy              =    -934.48133044 Ry
     Harris-Foulkes estimate   =    -934.48133044 Ry
     estimated scf accuracy    <          1.2E-09 Ry

     iteration # 16     ecut=    40.00 Ry     beta= 0.60
     Davidson diagonalization with overlap
     ethr =  1.22E-12,  avg # of iterations =  5.3

     total cpu time spent up to now is     5795.7 secs

     total energy              =    -934.48133044 Ry
     Harris-Foulkes estimate   =    -934.48133044 Ry
     estimated scf accuracy    <          1.6E-09 Ry

     iteration # 17     ecut=    40.00 Ry     beta= 0.60
     Davidson diagonalization with overlap
     ethr =  1.22E-12,  avg # of iterations =  1.0

     total cpu time spent up to now is     5824.4 secs

     total energy              =    -934.48133044 Ry
     Harris-Foulkes estimate   =    -934.48133044 Ry
     estimated scf accuracy    <          7.8E-10 Ry

     iteration # 18     ecut=    40.00 Ry     beta= 0.60
     Davidson diagonalization with overlap
     ethr =  8.01E-13,  avg # of iterations =  2.9

     total cpu time spent up to now is     5857.6 secs

     End of self-consistent calculation

     Number of k-points >= 100: set verbosity='high' to print the bands.

     the Fermi energy is    14.0572 ev

!    total energy              =    -934.48133044 Ry
     Harris-Foulkes estimate   =    -934.48133044 Ry
     estimated scf accuracy    <          9.9E-11 Ry

     The total energy is the sum of the following terms:

[...]
     c_bands:  2 eigenvalues not converged
     c_bands:  1 eigenvalues not converged
     c_bands:  1 eigenvalues not converged
     c_bands:  1 eigenvalues not converged
     c_bands:  1 eigenvalues not converged
     c_bands:  2 eigenvalues not converged
     c_bands:  3 eigenvalues not converged
     c_bands:  1 eigenvalues not converged
     c_bands:  1 eigenvalues not converged
     c_bands:  1 eigenvalues not converged
     c_bands:  1 eigenvalues not converged
     c_bands:  2 eigenvalues not converged
     c_bands:  2 eigenvalues not converged
     c_bands:  4 eigenvalues not converged
     c_bands:  1 eigenvalues not converged
     c_bands:  1 eigenvalues not converged
     c_bands:  1 eigenvalues not converged
     c_bands:  1 eigenvalues not converged
     c_bands:  1 eigenvalues not converged
     c_bands:  1 eigenvalues not converged
     c_bands:  1 eigenvalues not converged
     c_bands:  1 eigenvalues not converged
     c_bands:  2 eigenvalues not converged
     c_bands:  1 eigenvalues not converged
     c_bands:  3 eigenvalues not converged
     c_bands:  3 eigenvalues not converged
     c_bands:  3 eigenvalues not converged
     c_bands:  3 eigenvalues not converged
     c_bands:  1 eigenvalues not converged
     c_bands:  1 eigenvalues not converged
     c_bands:  2 eigenvalues not converged
     c_bands:  2 eigenvalues not converged
     c_bands:  2 eigenvalues not converged
     c_bands:  2 eigenvalues not converged
     c_bands:  2 eigenvalues not converged
     c_bands:  2 eigenvalues not converged
     c_bands:  3 eigenvalues not converged
     c_bands:  2 eigenvalues not converged
     c_bands:  1 eigenvalues not converged
     c_bands:  1 eigenvalues not converged
     c_bands:  1 eigenvalues not converged
     c_bands:  1 eigenvalues not converged
     c_bands:  1 eigenvalues not converged
     c_bands:  1 eigenvalues not converged
     c_bands:  2 eigenvalues not converged
     c_bands:  2 eigenvalues not converged
     c_bands:  3 eigenvalues not converged
     c_bands:  2 eigenvalues not converged
     c_bands:  1 eigenvalues not converged
     c_bands:  1 eigenvalues not converged
     c_bands:  2 eigenvalues not converged
     c_bands:  2 eigenvalues not converged
     c_bands:  3 eigenvalues not converged
     c_bands:  3 eigenvalues not converged
     c_bands:  1 eigenvalues not converged
     c_bands:  1 eigenvalues not converged
     c_bands:  1 eigenvalues not converged
     c_bands:  1 eigenvalues not converged
     c_bands:  1 eigenvalues not converged
     c_bands:  1 eigenvalues not converged
     c_bands:  1 eigenvalues not converged
     c_bands:  2 eigenvalues not converged
     c_bands:  2 eigenvalues not converged
     c_bands:  1 eigenvalues not converged
     c_bands:  1 eigenvalues not converged
     c_bands:  1 eigenvalues not converged
     c_bands:  1 eigenvalues not converged
     c_bands:  1 eigenvalues not converged
     c_bands:  2 eigenvalues not converged
     c_bands:  1 eigenvalues not converged
     c_bands:  1 eigenvalues not converged
     c_bands:  1 eigenvalues not converged
     c_bands:  1 eigenvalues not converged
     ethr =  1.00E-06,  avg # of iterations = 19.3

     total cpu time spent up to now is     9371.5 secs

     total energy              =    -930.80599372 Ry
     Harris-Foulkes estimate   =    -936.80646555 Ry
     estimated scf accuracy    <       7.99313294 Ry

     iteration #  2     ecut=    40.00 Ry     beta= 0.60
     Davidson diagonalization with overlap
     ethr =  8.24E-03,  avg # of iterations =  4.9

     total cpu time spent up to now is     9420.4 secs

     total energy              =    -929.29100957 Ry
     Harris-Foulkes estimate   =    -940.59077869 Ry
     estimated scf accuracy    <      36.08179185 Ry

     iteration #  3     ecut=    40.00 Ry     beta= 0.60
     Davidson diagonalization with overlap
     ethr =  8.24E-03,  avg # of iterations =  5.3

     total cpu time spent up to now is     9466.6 secs

     total energy              =    -933.04327296 Ry
     Harris-Foulkes estimate   =    -935.20595744 Ry
     estimated scf accuracy    <      10.38175265 Ry

     iteration #  4     ecut=    40.00 Ry     beta= 0.60
     Davidson diagonalization with overlap
     ethr =  8.24E-03,  avg # of iterations =  4.4

     total cpu time spent up to now is     9502.9 secs

     total energy              =    -933.55678416 Ry
     Harris-Foulkes estimate   =    -935.31418481 Ry
     estimated scf accuracy    <      11.38955307 Ry

     iteration #  5     ecut=    40.00 Ry     beta= 0.60
     Davidson diagonalization with overlap
     ethr =  8.24E-03,  avg # of iterations =  1.6

     total cpu time spent up to now is     9530.0 secs

     total energy              =    -934.20299693 Ry
     Harris-Foulkes estimate   =    -934.27453503 Ry
     estimated scf accuracy    <       0.54857616 Ry

     iteration #  6     ecut=    40.00 Ry     beta= 0.60
     Davidson diagonalization with overlap
     ethr =  5.66E-04,  avg # of iterations =  5.4

     total cpu time spent up to now is     9580.2 secs

     total energy              =    -934.48803747 Ry
     Harris-Foulkes estimate   =    -934.52383554 Ry
     estimated scf accuracy    <       0.48555283 Ry

     iteration #  7     ecut=    40.00 Ry     beta= 0.60
     Davidson diagonalization with overlap
     ethr =  5.01E-04,  avg # of iterations =  1.0

     total cpu time spent up to now is     9606.1 secs

     total energy              =    -934.43178662 Ry
     Harris-Foulkes estimate   =    -934.49381878 Ry
     estimated scf accuracy    <       0.29021866 Ry

     iteration #  8     ecut=    40.00 Ry     beta= 0.60
     Davidson diagonalization with overlap
     ethr =  2.99E-04,  avg # of iterations =  3.9

     total cpu time spent up to now is     9642.7 secs

     total energy              =    -934.48145918 Ry
     Harris-Foulkes estimate   =    -934.48821532 Ry
     estimated scf accuracy    <       0.15431882 Ry

     iteration #  9     ecut=    40.00 Ry     beta= 0.60
     Davidson diagonalization with overlap
     ethr =  1.59E-04,  avg # of iterations =  2.1

     total cpu time spent up to now is     9670.8 secs

     total energy              =    -934.47849683 Ry
     Harris-Foulkes estimate   =    -934.48675237 Ry
     estimated scf accuracy    <       0.16325451 Ry

     iteration # 10     ecut=    40.00 Ry     beta= 0.60
     Davidson diagonalization with overlap
     ethr =  1.59E-04,  avg # of iterations =  1.0

     total cpu time spent up to now is     9696.6 secs

     total energy              =    -934.47244818 Ry
     Harris-Foulkes estimate   =    -934.48169206 Ry
     estimated scf accuracy    <       0.12620230 Ry

     iteration # 11     ecut=    40.00 Ry     beta= 0.60
     Davidson diagonalization with overlap
     ethr =  1.30E-04,  avg # of iterations =  1.0

     total cpu time spent up to now is     9722.5 secs

     total energy              =    -934.47276977 Ry
     Harris-Foulkes estimate   =    -934.47475225 Ry
     estimated scf accuracy    <       0.05037212 Ry

     iteration # 12     ecut=    40.00 Ry     beta= 0.60
     Davidson diagonalization with overlap
     ethr =  5.19E-05,  avg # of iterations =  1.8

     total cpu time spent up to now is     9749.6 secs

     total energy              =    -934.47160109 Ry
     Harris-Foulkes estimate   =    -934.47360063 Ry
     estimated scf accuracy    <       0.03158158 Ry

     iteration # 13     ecut=    40.00 Ry     beta= 0.60
     Davidson diagonalization with overlap
     ethr =  3.26E-05,  avg # of iterations =  3.0

     total cpu time spent up to now is     9779.5 secs

     total energy              =    -934.47111254 Ry
     Harris-Foulkes estimate   =    -934.47249426 Ry
     estimated scf accuracy    <       0.01222055 Ry

     iteration # 14     ecut=    40.00 Ry     beta= 0.60
     Davidson diagonalization with overlap
     c_bands:  1 eigenvalues not converged
     ethr =  1.26E-05,  avg # of iterations =  7.4

     total cpu time spent up to now is     9826.6 secs

     total energy              =    -934.47298320 Ry
     Harris-Foulkes estimate   =    -934.47299467 Ry
     estimated scf accuracy    <       0.00058359 Ry

     iteration # 15     ecut=    40.00 Ry     beta= 0.60
     Davidson diagonalization with overlap
     c_bands:  1 eigenvalues not converged
     c_bands:  1 eigenvalues not converged
     c_bands:  1 eigenvalues not converged
     c_bands:  1 eigenvalues not converged
     c_bands:  1 eigenvalues not converged
     c_bands:  1 eigenvalues not converged
     c_bands:  1 eigenvalues not converged
     c_bands:  1 eigenvalues not converged
     ethr =  6.02E-07,  avg # of iterations =  9.2

     total cpu time spent up to now is     9884.5 secs

     total energy              =    -934.47299779 Ry
     Harris-Foulkes estimate   =    -934.47312204 Ry
     estimated scf accuracy    <       0.00148112 Ry

     iteration # 16     ecut=    40.00 Ry     beta= 0.60
     Davidson diagonalization with overlap
     c_bands:  1 eigenvalues not converged
     c_bands:  1 eigenvalues not converged
     ethr =  6.02E-07,  avg # of iterations =  1.4

     total cpu time spent up to now is     9911.1 secs

     total energy              =    -934.47295377 Ry
     Harris-Foulkes estimate   =    -934.47303581 Ry
     estimated scf accuracy    <       0.00063897 Ry

     iteration # 17     ecut=    40.00 Ry     beta= 0.60
     Davidson diagonalization with overlap
     ethr =  6.02E-07,  avg # of iterations =  3.4

     total cpu time spent up to now is     9944.0 secs

     total energy              =    -934.47300210 Ry
     Harris-Foulkes estimate   =    -934.47300671 Ry
     estimated scf accuracy    <       0.00004318 Ry

     iteration # 18     ecut=    40.00 Ry     beta= 0.60
     Davidson diagonalization with overlap
     ethr =  4.45E-08,  avg # of iterations =  5.1

     total cpu time spent up to now is     9985.1 secs

     total energy              =    -934.47300972 Ry
     Harris-Foulkes estimate   =    -934.47301060 Ry
     estimated scf accuracy    <       0.00001733 Ry

     iteration # 19     ecut=    40.00 Ry     beta= 0.60
     Davidson diagonalization with overlap
     ethr =  1.79E-08,  avg # of iterations =  4.1

     total cpu time spent up to now is    10021.2 secs

     total energy              =    -934.47300805 Ry
     Harris-Foulkes estimate   =    -934.47301293 Ry
     estimated scf accuracy    <       0.00004997 Ry

     iteration # 20     ecut=    40.00 Ry     beta= 0.60
     Davidson diagonalization with overlap
     ethr =  1.79E-08,  avg # of iterations =  1.8

     total cpu time spent up to now is    10048.5 secs

     total energy              =    -934.47300812 Ry
     Harris-Foulkes estimate   =    -934.47300965 Ry
     estimated scf accuracy    <       0.00001426 Ry

     iteration # 21     ecut=    40.00 Ry     beta= 0.60
     Davidson diagonalization with overlap
     ethr =  1.47E-08,  avg # of iterations =  3.5

     total cpu time spent up to now is    10081.6 secs

     total energy              =    -934.47300913 Ry
     Harris-Foulkes estimate   =    -934.47300924 Ry
     estimated scf accuracy    <       0.00000121 Ry

     iteration # 22     ecut=    40.00 Ry     beta= 0.60
     Davidson diagonalization with overlap
     ethr =  1.25E-09,  avg # of iterations =  4.8

     total cpu time spent up to now is    10121.7 secs

     total energy              =    -934.47300931 Ry
     Harris-Foulkes estimate   =    -934.47300936 Ry
     estimated scf accuracy    <       0.00000048 Ry

     iteration # 23     ecut=    40.00 Ry     beta= 0.60
     Davidson diagonalization with overlap
     ethr =  4.99E-10,  avg # of iterations =  2.5

     total cpu time spent up to now is    10150.7 secs

     total energy              =    -934.47300931 Ry
     Harris-Foulkes estimate   =    -934.47300933 Ry
     estimated scf accuracy    <       0.00000018 Ry

     iteration # 24     ecut=    40.00 Ry     beta= 0.60
     Davidson diagonalization with overlap
     ethr =  1.89E-10,  avg # of iterations =  3.9

     total cpu time spent up to now is    10186.4 secs

     total energy              =    -934.47300933 Ry
     Harris-Foulkes estimate   =    -934.47300934 Ry
     estimated scf accuracy    <       0.00000005 Ry

     iteration # 25     ecut=    40.00 Ry     beta= 0.60
     Davidson diagonalization with overlap
     ethr =  5.37E-11,  avg # of iterations =  4.2

     total cpu time spent up to now is    10222.9 secs

     total energy              =    -934.47300933 Ry
     Harris-Foulkes estimate   =    -934.47300934 Ry
     estimated scf accuracy    <       0.00000004 Ry

     iteration # 26     ecut=    40.00 Ry     beta= 0.60
     Davidson diagonalization with overlap
     ethr =  4.15E-11,  avg # of iterations =  1.3

     total cpu time spent up to now is    10249.2 secs

     total energy              =    -934.47300933 Ry
     Harris-Foulkes estimate   =    -934.47300933 Ry
     estimated scf accuracy    <          4.2E-09 Ry

     iteration # 27     ecut=    40.00 Ry     beta= 0.60
     Davidson diagonalization with overlap
     ethr =  4.34E-12,  avg # of iterations =  5.1

     total cpu time spent up to now is    10293.9 secs

     total energy              =    -934.47300933 Ry
     Harris-Foulkes estimate   =    -934.47300934 Ry
     estimated scf accuracy    <          9.3E-09 Ry

     iteration # 28     ecut=    40.00 Ry     beta= 0.60
     Davidson diagonalization with overlap
     ethr =  4.34E-12,  avg # of iterations =  2.4

     total cpu time spent up to now is    10322.6 secs

     total energy              =    -934.47300933 Ry
     Harris-Foulkes estimate   =    -934.47300933 Ry
     estimated scf accuracy    <          1.3E-09 Ry

     iteration # 29     ecut=    40.00 Ry     beta= 0.60
     Davidson diagonalization with overlap
     ethr =  1.32E-12,  avg # of iterations =  4.5

     total cpu time spent up to now is    10362.4 secs

     total energy              =    -934.47300934 Ry
     Harris-Foulkes estimate   =    -934.47300934 Ry
     estimated scf accuracy    <          1.7E-10 Ry

     iteration # 30     ecut=    40.00 Ry     beta= 0.60
     Davidson diagonalization with overlap
     ethr =  1.71E-13,  avg # of iterations =  3.6

     total cpu time spent up to now is    10394.7 secs

     total energy              =    -934.47300934 Ry
     Harris-Foulkes estimate   =    -934.47300934 Ry
     estimated scf accuracy    <          1.1E-10 Ry

     iteration # 31     ecut=    40.00 Ry     beta= 0.60
     Davidson diagonalization with overlap
     ethr =  1.15E-13,  avg # of iterations =  4.1

     total cpu time spent up to now is    10431.6 secs

     total energy              =    -934.47300934 Ry
     Harris-Foulkes estimate   =    -934.47300934 Ry
     estimated scf accuracy    <          6.6E-11 Ry

     iteration # 32     ecut=    40.00 Ry     beta= 0.60
     Davidson diagonalization with overlap
     ethr =  1.00E-13,  avg # of iterations =  1.0

     total cpu time spent up to now is    10457.4 secs

     total energy              =    -934.47300934 Ry
     Harris-Foulkes estimate   =    -934.47300934 Ry
     estimated scf accuracy    <          1.7E-11 Ry

     iteration # 33     ecut=    40.00 Ry     beta= 0.60
     Davidson diagonalization with overlap
     ethr =  1.00E-13,  avg # of iterations =  1.1

     total cpu time spent up to now is    10483.4 secs

     End of self-consistent calculation

     Number of k-points >= 100: set verbosity='high' to print the bands.

     the Fermi energy is    14.0636 ev

!    total energy              =    -934.47300934 Ry
     Harris-Foulkes estimate   =    -934.47300934 Ry
     estimated scf accuracy    <          2.0E-12 Ry

     The total energy is the sum of the following terms:

     one-electron contribution =    -306.70569319 Ry
     hartree contribution      =     185.97428778 Ry
     xc contribution           =    -120.09648500 Ry
     ewald contribution        =    -693.63979456 Ry
     smearing contrib. (-TS)   =      -0.00532437 Ry

     convergence has been achieved in  33 iterations

     Forces acting on atoms (cartesian axes, Ry/au):

     atom    1 type  2   force =     0.00011389    0.00006576   -0.00000000
     atom    2 type  2   force =     0.00003790   -0.00002314   -0.00000000
     atom    3 type  2   force =    -0.00011432    0.00006744    0.00000000
     atom    4 type  2   force =    -0.00003680   -0.00002125    0.00000000
     atom    5 type  2   force =    -0.00000164   -0.00000095    0.00000000
     atom    6 type  2   force =    -0.00000109    0.00004439   -0.00000000
     atom    7 type  2   force =     0.00000125   -0.00013273    0.00000000
     atom    8 type  1   force =     0.00000082    0.00000048   -0.00000000

     Total force =     0.000241     Total SCF correction =     0.000002


     Computing stress (Cartesian axis) and pressure

          total   stress  (Ry/bohr**3)                   (kbar)     P=   -7.45
  -0.00004890   0.00000000   0.00000000         -7.19      0.00      0.00
   0.00000000  -0.00004890   0.00000000          0.00     -7.19      0.00
  -0.00000000  -0.00000000  -0.00005420         -0.00     -0.00     -7.97

 
     init_run     :     30.49s CPU     31.29s WALL (       2 calls)
     electrons    :  10063.26s CPU  10239.77s WALL (      11 calls)
     update_pot   :     16.53s CPU     16.58s WALL (       9 calls)
     forces       :     52.18s CPU     53.52s WALL (      11 calls)
     stress       :    150.44s CPU    154.07s WALL (      11 calls)

     Called by init_run:
     wfcinit      :     27.84s CPU     28.40s WALL (       2 calls)
     potinit      :      0.79s CPU      0.81s WALL (       2 calls)
     hinit0       :      1.46s CPU      1.47s WALL (       2 calls)

     Called by electrons:
     c_bands      :   8848.32s CPU   8954.63s WALL (     254 calls)
     sum_band     :   1155.61s CPU   1199.18s WALL (     254 calls)
     v_of_rho     :     11.41s CPU     11.47s WALL (     260 calls)
     newd         :     47.88s CPU     75.62s WALL (     260 calls)
     mix_rho      :      1.64s CPU      1.66s WALL (     254 calls)

     Called by c_bands:
     init_us_2    :    100.85s CPU    101.22s WALL (  115444 calls)
     cegterg      :   8086.38s CPU   8189.39s WALL (   55118 calls)

     Called by sum_band:
     sum_band:bec :      4.01s CPU      4.13s WALL (   55118 calls)
     addusdens    :     55.42s CPU     80.30s WALL (     254 calls)

     Called by *egterg:
     h_psi        :   4741.15s CPU   4833.89s WALL (  261074 calls)
     s_psi        :    335.72s CPU    336.76s WALL (  261074 calls)
     g_psi        :     45.46s CPU     45.84s WALL (  205522 calls)
     cdiaghg      :   1788.80s CPU   1791.15s WALL (  257602 calls)

     Called by h_psi:
     h_psi:pot    :   4721.99s CPU   4813.79s WALL (  261074 calls)
     h_psi:calbec :    370.94s CPU    372.61s WALL (  261074 calls)
     vloc_psi     :   4012.82s CPU   4100.95s WALL (  261074 calls)
     add_vuspsi   :    337.21s CPU    338.82s WALL (  261074 calls)

     General routines
     calbec       :    537.52s CPU    539.66s WALL (  328127 calls)
     fft          :      8.11s CPU      8.21s WALL (    3658 calls)
     ffts         :      0.23s CPU      0.25s WALL (     514 calls)
     fftw         :   4332.78s CPU   4412.29s WALL (19700504 calls)
     interpolate  :      0.63s CPU      0.65s WALL (     260 calls)
 
     Parallel routines
     fft_scatt_xy :    694.69s CPU    728.36s WALL (19704676 calls)
     fft_scatt_yz :   1114.27s CPU   1116.74s WALL (19704676 calls)
 
     PWSCF        :     2h51m CPU       51h 2m WALL

      54h
 
   This run was terminated on:  21:43:45  24Mar2020            

=------------------------------------------------------------------------------=
   JOB DONE.
=------------------------------------------------------------------------------=
