
     Program PWSCF v.6.0 (svn rev. 13079) starts on  3Mar2020 at 15:20:36 

     This program is part of the open-source Quantum ESPRESSO suite
     for quantum simulation of materials; please cite
         "P. Giannozzi et al., J. Phys.:Condens. Matter 21 395502 (2009);
          URL http://www.quantum-espresso.org", 
     in publications or presentations arising from this work. More details at
     http://www.quantum-espresso.org/quote

     Parallel version (MPI), running on     1 processors
     Waiting for input...
     Reading input from standard input

     Current dimensions of program PWSCF are:
     Max number of different atomic species (ntypx) = 10
     Max number of k-points (npk) =  40000
     Max angular momentum in pseudopotentials (lmaxx) =  3

     Subspace diagonalization in iterative solution of the eigenvalue problem:
     a serial algorithm will be used


     G-vector sticks info
     --------------------
     sticks:   dense  smooth     PW     G-vecs:    dense   smooth      PW
     Sum         913     367    121               109271    27707    4719



     bravais-lattice index     =            0
     lattice parameter (alat)  =       1.8897  a.u.
     unit-cell volume          =     808.3427 (a.u.)^3
     number of atoms/cell      =            6
     number of atomic types    =            2
     number of electrons       =        74.00
     number of Kohn-Sham states=           44
     kinetic-energy cutoff     =      40.0000  Ry
     charge density cutoff     =     400.0000  Ry
     convergence threshold     =      1.0E-10
     mixing beta               =       0.6000
     number of iterations used =            8  plain     mixing
     Exchange-correlation      = SLA  PW   PBE  PBE ( 1  4  3  4 0 0)
     nstep                     =           50


     celldm(1)=   1.889726  celldm(2)=   0.000000  celldm(3)=   0.000000
     celldm(4)=   0.000000  celldm(5)=   0.000000  celldm(6)=   0.000000

     crystal axes: (cart. coord. in units of alat)
               a(1) = (  -1.522502  -2.637051   0.000000 )  
               a(2) = (   3.045004   0.000000   0.000000 )  
               a(3) = (   0.000000   0.000000  14.917383 )  

     reciprocal axes: (cart. coord. in units 2 pi/alat)
               b(1) = (  0.000000 -0.379211  0.000000 )  
               b(2) = (  0.328407 -0.189606  0.000000 )  
               b(3) = ( -0.000000  0.000000  0.067036 )  


     PseudoPot. # 1 for Nb read from file:
     ./Nb.pbe-nsp-van.UPF
     MD5 check sum: 0a22fc7fb0ba19a08ca5db297a5d2854
     Pseudo is Ultrasoft + core correction, Zval = 13.0
     Generated by new atomic code, or converted to UPF format
     Using radial grid of  887 points,  6 beta functions with: 
                l(1) =   0
                l(2) =   0
                l(3) =   1
                l(4) =   1
                l(5) =   2
                l(6) =   2
     Q(r) pseudized with  6 coefficients,  rinner =    1.000   1.000   1.000
                                                       1.000   1.000

     PseudoPot. # 2 for Ti read from file:
     ./Ti.pbe-sp-van_ak.UPF
     MD5 check sum: f98fea3e8887528921fefa5636a534ca
     Pseudo is Ultrasoft, Zval = 12.0
     Generated by new atomic code, or converted to UPF format
     Using radial grid of  851 points,  6 beta functions with: 
                l(1) =   0
                l(2) =   0
                l(3) =   1
                l(4) =   1
                l(5) =   2
                l(6) =   2
     Q(r) pseudized with  8 coefficients,  rinner =    1.000   1.000   1.000
                                                       1.000   1.000

     atomic species   valence    mass     pseudopotential
        Nb            13.00    92.90638     Nb( 1.00)
        Ti            12.00    47.86700     Ti( 1.00)

     12 Sym. Ops. (no inversion) found ( 6 have fractional translation)
          (note: 12 additional sym.ops. were found but ignored
           their fractional translations are incommensurate with FFT grid)


   Cartesian axes

     site n.     atom                  positions (alat units)
         1           Nb  tau(   1) = (   1.5225021  -2.6370512   4.9724614  )
         2           Ti  tau(   2) = (   0.0000015  -1.7580350   2.4862307  )
         3           Ti  tau(   3) = (   1.5225021  -2.6370512   9.9449228  )
         4           Ti  tau(   4) = (   0.0000015  -1.7580350   7.4586921  )
         5           Ti  tau(   5) = (   1.5225021  -2.6370512  14.9173841  )
         6           Nb  tau(   6) = (   0.0000015  -1.7580350  12.4311534  )

     number of k points=   120  Marzari-Vanderbilt smearing, width (Ry)=  0.0200

     Number of k-points >= 100: set verbosity='high' to print them.

     Dense  grid:   109271 G-vectors     FFT dimensions: (  40,  40, 180)

     Smooth grid:    27707 G-vectors     FFT dimensions: (  24,  24, 120)

     Estimated max dynamical RAM per process >     370.36Mb

     Initial potential from superposition of free atoms

     starting charge   69.99436, renormalised to   74.00000
     Starting wfc are   66 randomized atomic wfcs

     total cpu time spent up to now is       51.9 secs

     per-process dynamical memory:   356.8 Mb

     Self-consistent Calculation

     iteration #  1     ecut=    40.00 Ry     beta=0.60
     Davidson diagonalization with overlap
     ethr =  1.00E-02,  avg # of iterations =  3.6

     total cpu time spent up to now is      162.9 secs

     total energy              =    -671.10628516 Ry
     Harris-Foulkes estimate   =    -708.70753983 Ry
     estimated scf accuracy    <      46.49727438 Ry

     iteration #  2     ecut=    40.00 Ry     beta=0.60
     Davidson diagonalization with overlap
     ethr =  1.00E-02,  avg # of iterations =  8.1

     total cpu time spent up to now is      409.2 secs

     total energy              =    -669.18110514 Ry
     Harris-Foulkes estimate   =    -773.15877836 Ry
     estimated scf accuracy    <     377.70507853 Ry

     iteration #  3     ecut=    40.00 Ry     beta=0.60
     Davidson diagonalization with overlap
     ethr =  1.00E-02,  avg # of iterations =  5.1

     total cpu time spent up to now is      565.4 secs

     total energy              =    -700.05864610 Ry
     Harris-Foulkes estimate   =    -705.41556203 Ry
     estimated scf accuracy    <      39.43762029 Ry

     iteration #  4     ecut=    40.00 Ry     beta=0.60
     Davidson diagonalization with overlap
     ethr =  1.00E-02,  avg # of iterations =  4.4

     total cpu time spent up to now is      659.7 secs

     total energy              =    -702.27579429 Ry
     Harris-Foulkes estimate   =    -702.44441640 Ry
     estimated scf accuracy    <       1.52230524 Ry

     iteration #  5     ecut=    40.00 Ry     beta=0.60
     Davidson diagonalization with overlap
     ethr =  2.06E-03,  avg # of iterations =  5.6

     total cpu time spent up to now is      753.3 secs

     total energy              =    -702.07632034 Ry
     Harris-Foulkes estimate   =    -702.66301501 Ry
     estimated scf accuracy    <      14.85045773 Ry

     iteration #  6     ecut=    40.00 Ry     beta=0.60
     Davidson diagonalization with overlap
     ethr =  2.06E-03,  avg # of iterations =  4.5

     total cpu time spent up to now is      844.7 secs

     total energy              =    -702.30074436 Ry
     Harris-Foulkes estimate   =    -702.64056342 Ry
     estimated scf accuracy    <       4.36026988 Ry

     iteration #  7     ecut=    40.00 Ry     beta=0.60
     Davidson diagonalization with overlap
     ethr =  2.06E-03,  avg # of iterations =  3.0

     total cpu time spent up to now is      919.1 secs

     total energy              =    -702.16837510 Ry
     Harris-Foulkes estimate   =    -702.50479200 Ry
     estimated scf accuracy    <       2.16566308 Ry

     iteration #  8     ecut=    40.00 Ry     beta=0.60
     Davidson diagonalization with overlap
     ethr =  2.06E-03,  avg # of iterations =  3.4

     total cpu time spent up to now is      995.8 secs

     total energy              =    -702.29202595 Ry
     Harris-Foulkes estimate   =    -702.43499452 Ry
     estimated scf accuracy    <       1.21301960 Ry

     iteration #  9     ecut=    40.00 Ry     beta=0.60
     Davidson diagonalization with overlap
     ethr =  1.64E-03,  avg # of iterations =  1.2

     total cpu time spent up to now is     1066.4 secs

     total energy              =    -702.37626636 Ry
     Harris-Foulkes estimate   =    -702.37988771 Ry
     estimated scf accuracy    <       0.02244078 Ry

     iteration # 10     ecut=    40.00 Ry     beta=0.60
     Davidson diagonalization with overlap
     ethr =  3.03E-05,  avg # of iterations =  7.4

     total cpu time spent up to now is     1206.7 secs

     total energy              =    -702.38683241 Ry
     Harris-Foulkes estimate   =    -702.38817516 Ry
     estimated scf accuracy    <       0.01191139 Ry

     iteration # 11     ecut=    40.00 Ry     beta=0.60
     Davidson diagonalization with overlap
     ethr =  1.61E-05,  avg # of iterations =  1.1

     total cpu time spent up to now is     1277.2 secs

     total energy              =    -702.38736237 Ry
     Harris-Foulkes estimate   =    -702.38751040 Ry
     estimated scf accuracy    <       0.00092614 Ry

     iteration # 12     ecut=    40.00 Ry     beta=0.60
     Davidson diagonalization with overlap
     ethr =  1.25E-06,  avg # of iterations =  5.8

     total cpu time spent up to now is     1384.5 secs

     total energy              =    -702.38750568 Ry
     Harris-Foulkes estimate   =    -702.38756946 Ry
     estimated scf accuracy    <       0.00055065 Ry

     iteration # 13     ecut=    40.00 Ry     beta=0.60
     Davidson diagonalization with overlap
     ethr =  7.44E-07,  avg # of iterations =  1.2

     total cpu time spent up to now is     1455.0 secs

     total energy              =    -702.38753360 Ry
     Harris-Foulkes estimate   =    -702.38753463 Ry
     estimated scf accuracy    <       0.00000779 Ry

     iteration # 14     ecut=    40.00 Ry     beta=0.60
     Davidson diagonalization with overlap
     ethr =  1.05E-08,  avg # of iterations =  6.1

     total cpu time spent up to now is     1579.6 secs

     total energy              =    -702.38753998 Ry
     Harris-Foulkes estimate   =    -702.38754347 Ry
     estimated scf accuracy    <       0.00004436 Ry

     iteration # 15     ecut=    40.00 Ry     beta=0.60
     Davidson diagonalization with overlap
     ethr =  1.05E-08,  avg # of iterations =  3.7

     total cpu time spent up to now is     1656.7 secs

     total energy              =    -702.38754056 Ry
     Harris-Foulkes estimate   =    -702.38754124 Ry
     estimated scf accuracy    <       0.00002029 Ry

     iteration # 16     ecut=    40.00 Ry     beta=0.60
     Davidson diagonalization with overlap
     ethr =  1.05E-08,  avg # of iterations =  1.9

     total cpu time spent up to now is     1729.0 secs

     total energy              =    -702.38754082 Ry
     Harris-Foulkes estimate   =    -702.38754108 Ry
     estimated scf accuracy    <       0.00000447 Ry

     iteration # 17     ecut=    40.00 Ry     beta=0.60
     Davidson diagonalization with overlap
     ethr =  6.04E-09,  avg # of iterations =  1.8

     total cpu time spent up to now is     1800.7 secs

     total energy              =    -702.38754084 Ry
     Harris-Foulkes estimate   =    -702.38754096 Ry
     estimated scf accuracy    <       0.00000091 Ry

     iteration # 18     ecut=    40.00 Ry     beta=0.60
     Davidson diagonalization with overlap
     ethr =  1.23E-09,  avg # of iterations =  4.8

     total cpu time spent up to now is     1903.0 secs

     total energy              =    -702.38754103 Ry
     Harris-Foulkes estimate   =    -702.38754108 Ry
     estimated scf accuracy    <       0.00000056 Ry

     iteration # 19     ecut=    40.00 Ry     beta=0.60
     Davidson diagonalization with overlap
     ethr =  7.60E-10,  avg # of iterations =  1.0

     total cpu time spent up to now is     1973.3 secs

     total energy              =    -702.38754104 Ry
     Harris-Foulkes estimate   =    -702.38754105 Ry
     estimated scf accuracy    <       0.00000009 Ry

     iteration # 20     ecut=    40.00 Ry     beta=0.60
     Davidson diagonalization with overlap
     ethr =  1.23E-10,  avg # of iterations =  4.4

     total cpu time spent up to now is     2068.9 secs

     total energy              =    -702.38754105 Ry
     Harris-Foulkes estimate   =    -702.38754106 Ry
     estimated scf accuracy    <       0.00000003 Ry

     iteration # 21     ecut=    40.00 Ry     beta=0.60
     Davidson diagonalization with overlap
     ethr =  4.11E-11,  avg # of iterations =  2.0

     total cpu time spent up to now is     2140.9 secs

     total energy              =    -702.38754106 Ry
     Harris-Foulkes estimate   =    -702.38754106 Ry
     estimated scf accuracy    <          9.2E-10 Ry

     iteration # 22     ecut=    40.00 Ry     beta=0.60
     Davidson diagonalization with overlap
     ethr =  1.24E-12,  avg # of iterations =  5.9

     total cpu time spent up to now is     2271.6 secs

     total energy              =    -702.38754106 Ry
     Harris-Foulkes estimate   =    -702.38754106 Ry
     estimated scf accuracy    <          4.1E-09 Ry

     iteration # 23     ecut=    40.00 Ry     beta=0.60
     Davidson diagonalization with overlap
     ethr =  1.24E-12,  avg # of iterations =  4.2

     total cpu time spent up to now is     2364.4 secs

     End of self-consistent calculation

     Number of k-points >= 100: set verbosity='high' to print the bands.

     the Fermi energy is    12.9827 ev

!    total energy              =    -702.38754106 Ry
     Harris-Foulkes estimate   =    -702.38754106 Ry
     estimated scf accuracy    <          2.6E-11 Ry

     The total energy is the sum of the following terms:

     one-electron contribution =    -231.73363267 Ry
     hartree contribution      =     137.93323785 Ry
     xc contribution           =     -94.33811560 Ry
     ewald contribution        =    -514.24490115 Ry
     smearing contrib. (-TS)   =      -0.00412949 Ry

     convergence has been achieved in  23 iterations

     Forces acting on atoms (Ry/au):

     atom    1 type  1   force =     0.00000000    0.00000000    0.00000000
     atom    2 type  2   force =     0.00000000    0.00000000   -0.00776227
     atom    3 type  2   force =     0.00000000   -0.00000000   -0.00776067
     atom    4 type  2   force =     0.00000000    0.00000000    0.00776227
     atom    5 type  2   force =     0.00000000    0.00000000    0.00776067
     atom    6 type  1   force =    -0.00000000    0.00000000    0.00000000

     Total force =     0.015523     Total SCF correction =     0.000024


     entering subroutine stress ...

          total   stress  (Ry/bohr**3)                   (kbar)     P= -129.06
  -0.00090073  -0.00000000   0.00000000       -132.50     -0.00      0.00
  -0.00000000  -0.00090073   0.00000000         -0.00   -132.50      0.00
   0.00000000   0.00000000  -0.00083044          0.00      0.00   -122.16


     BFGS Geometry Optimization

     number of scf cycles    =   1
     number of bfgs steps    =   0

     enthalpy new            =    -702.3875410589 Ry

     new trust radius        =       0.1280453675 bohr
     new conv_thr            =            1.0E-10 Ry

     new unit-cell volume =    756.31280 a.u.^3 (   112.07399 Ang^3 )

CELL_PARAMETERS (alat=  1.88972599)
  -1.488217803  -2.577669033  -0.000000000
   2.976435606  -0.000000000  -0.000000000
   0.000000000   0.000000000  14.607681738

ATOMIC_POSITIONS (angstrom)
Nb       1.488217803  -2.577669033   4.869227246
Ti       0.000001489  -1.718446881   2.430591285
Ti       1.488217803  -2.577669033   9.734432985
Ti       0.000001489  -1.718446881   7.307863207
Ti       1.488217803  -2.577669033  14.611703246
Nb       0.000001489  -1.718446881  12.173068115


     NEW-OLD atomic charge density approx. for the potential
     extrapolated charge   69.18479, renormalised to   74.00000

     total cpu time spent up to now is     2435.0 secs

     per-process dynamical memory:   352.0 Mb

     Self-consistent Calculation

     iteration #  1     ecut=    40.00 Ry     beta=0.60
     Davidson diagonalization with overlap
     c_bands:  1 eigenvalues not converged
     c_bands:  2 eigenvalues not converged
     c_bands:  3 eigenvalues not converged
     c_bands:  2 eigenvalues not converged
     c_bands:  3 eigenvalues not converged
     c_bands:  2 eigenvalues not converged
     c_bands:  2 eigenvalues not converged
     c_bands:  1 eigenvalues not converged
     c_bands:  3 eigenvalues not converged
     c_bands:  2 eigenvalues not converged
     c_bands:  3 eigenvalues not converged
     c_bands:  2 eigenvalues not converged
     c_bands:  2 eigenvalues not converged
     c_bands:  2 eigenvalues not converged
     c_bands:  1 eigenvalues not converged
     c_bands:  1 eigenvalues not converged
     c_bands:  2 eigenvalues not converged
     c_bands:  2 eigenvalues not converged
     c_bands:  1 eigenvalues not converged
     c_bands:  2 eigenvalues not converged
     c_bands:  1 eigenvalues not converged
     c_bands:  2 eigenvalues not converged
     c_bands:  2 eigenvalues not converged
     c_bands:  1 eigenvalues not converged
     c_bands:  1 eigenvalues not converged
     c_bands:  2 eigenvalues not converged
     ethr =  1.00E-06,  avg # of iterations = 15.6

     total cpu time spent up to now is     2767.1 secs

     total energy              =    -698.57834651 Ry
     Harris-Foulkes estimate   =    -712.92363994 Ry
     estimated scf accuracy    <       3.64352664 Ry

     iteration #  2     ecut=    40.00 Ry     beta=0.60
     Davidson diagonalization with overlap
     ethr =  4.92E-03,  avg # of iterations =  6.7

     total cpu time spent up to now is     2950.6 secs

     total energy              =    -699.11081456 Ry
     Harris-Foulkes estimate   =    -708.46242200 Ry
     estimated scf accuracy    <      51.07911791 Ry

     iteration #  3     ecut=    40.00 Ry     beta=0.60
     Davidson diagonalization with overlap
     ethr =  4.92E-03,  avg # of iterations =  5.8

     total cpu time spent up to now is     3074.2 secs

     total energy              =    -701.97717867 Ry
     Harris-Foulkes estimate   =    -704.05624639 Ry
     estimated scf accuracy    <       8.18617210 Ry

     iteration #  4     ecut=    40.00 Ry     beta=0.60
     Davidson diagonalization with overlap
     ethr =  4.92E-03,  avg # of iterations =  3.0

     total cpu time spent up to now is     3157.0 secs

     total energy              =    -702.59941248 Ry
     Harris-Foulkes estimate   =    -702.81073420 Ry
     estimated scf accuracy    <       2.05692337 Ry

     iteration #  5     ecut=    40.00 Ry     beta=0.60
     Davidson diagonalization with overlap
     ethr =  2.78E-03,  avg # of iterations =  1.7

     total cpu time spent up to now is     3228.6 secs

     total energy              =    -702.53310705 Ry
     Harris-Foulkes estimate   =    -702.72982352 Ry
     estimated scf accuracy    <       4.46280501 Ry

     iteration #  6     ecut=    40.00 Ry     beta=0.60
     Davidson diagonalization with overlap
     ethr =  2.78E-03,  avg # of iterations =  1.0

     total cpu time spent up to now is     3299.2 secs

     total energy              =    -702.59127734 Ry
     Harris-Foulkes estimate   =    -702.61664708 Ry
     estimated scf accuracy    <       1.25799120 Ry

     iteration #  7     ecut=    40.00 Ry     beta=0.60
     Davidson diagonalization with overlap
     ethr =  1.70E-03,  avg # of iterations =  1.0

     total cpu time spent up to now is     3369.7 secs

     total energy              =    -702.59564762 Ry
     Harris-Foulkes estimate   =    -702.59867087 Ry
     estimated scf accuracy    <       1.13843231 Ry

     iteration #  8     ecut=    40.00 Ry     beta=0.60
     Davidson diagonalization with overlap
     ethr =  1.54E-03,  avg # of iterations =  1.0

     total cpu time spent up to now is     3439.8 secs

     total energy              =    -702.56780277 Ry
     Harris-Foulkes estimate   =    -702.59922741 Ry
     estimated scf accuracy    <       1.13268810 Ry

     iteration #  9     ecut=    40.00 Ry     beta=0.60
     Davidson diagonalization with overlap
     ethr =  1.53E-03,  avg # of iterations =  1.0

     total cpu time spent up to now is     3510.3 secs

     total energy              =    -702.54768385 Ry
     Harris-Foulkes estimate   =    -702.57099070 Ry
     estimated scf accuracy    <       0.92927099 Ry

     iteration # 10     ecut=    40.00 Ry     beta=0.60
     Davidson diagonalization with overlap
     ethr =  1.26E-03,  avg # of iterations =  1.0

     total cpu time spent up to now is     3580.6 secs

     total energy              =    -702.31148348 Ry
     Harris-Foulkes estimate   =    -702.55069168 Ry
     estimated scf accuracy    <       0.72050095 Ry

     iteration # 11     ecut=    40.00 Ry     beta=0.60
     Davidson diagonalization with overlap
     ethr =  9.74E-04,  avg # of iterations =  3.6

     total cpu time spent up to now is     3668.2 secs

     total energy              =    -702.42866279 Ry
     Harris-Foulkes estimate   =    -702.45110486 Ry
     estimated scf accuracy    <       0.59722977 Ry

     iteration # 12     ecut=    40.00 Ry     beta=0.60
     Davidson diagonalization with overlap
     ethr =  8.07E-04,  avg # of iterations =  1.3

     total cpu time spent up to now is     3739.2 secs

     total energy              =    -702.43539234 Ry
     Harris-Foulkes estimate   =    -702.43706035 Ry
     estimated scf accuracy    <       0.27450645 Ry

     iteration # 13     ecut=    40.00 Ry     beta=0.60
     Davidson diagonalization with overlap
     ethr =  3.71E-04,  avg # of iterations =  1.2

     total cpu time spent up to now is     3810.3 secs

     total energy              =    -702.42212818 Ry
     Harris-Foulkes estimate   =    -702.43765611 Ry
     estimated scf accuracy    <       0.25126470 Ry

     iteration # 14     ecut=    40.00 Ry     beta=0.60
     Davidson diagonalization with overlap
     ethr =  3.40E-04,  avg # of iterations =  1.0

     total cpu time spent up to now is     3880.4 secs

     total energy              =    -702.42031199 Ry
     Harris-Foulkes estimate   =    -702.42593711 Ry
     estimated scf accuracy    <       0.07905943 Ry

     iteration # 15     ecut=    40.00 Ry     beta=0.60
     Davidson diagonalization with overlap
     ethr =  1.07E-04,  avg # of iterations =  2.9

     total cpu time spent up to now is     3955.3 secs

     total energy              =    -702.41917415 Ry
     Harris-Foulkes estimate   =    -702.42332276 Ry
     estimated scf accuracy    <       0.01798813 Ry

     iteration # 16     ecut=    40.00 Ry     beta=0.60
     Davidson diagonalization with overlap
     c_bands:  2 eigenvalues not converged
     ethr =  2.43E-05,  avg # of iterations =  7.2

     total cpu time spent up to now is     4067.1 secs

     total energy              =    -702.42263078 Ry
     Harris-Foulkes estimate   =    -702.42271357 Ry
     estimated scf accuracy    <       0.00131138 Ry

     iteration # 17     ecut=    40.00 Ry     beta=0.60
     Davidson diagonalization with overlap
     c_bands:  3 eigenvalues not converged
     c_bands:  2 eigenvalues not converged
     c_bands:  2 eigenvalues not converged
     c_bands:  1 eigenvalues not converged
     ethr =  1.77E-06,  avg # of iterations =  7.1

     total cpu time spent up to now is     4164.2 secs

     total energy              =    -702.42267609 Ry
     Harris-Foulkes estimate   =    -702.42276484 Ry
     estimated scf accuracy    <       0.00059359 Ry

     iteration # 18     ecut=    40.00 Ry     beta=0.60
     Davidson diagonalization with overlap
     c_bands:  1 eigenvalues not converged
     c_bands:  1 eigenvalues not converged
     ethr =  8.02E-07,  avg # of iterations =  2.8

     total cpu time spent up to now is     4238.3 secs

     total energy              =    -702.42270951 Ry
     Harris-Foulkes estimate   =    -702.42272527 Ry
     estimated scf accuracy    <       0.00015476 Ry

     iteration # 19     ecut=    40.00 Ry     beta=0.60
     Davidson diagonalization with overlap
     ethr =  2.09E-07,  avg # of iterations =  4.2

     total cpu time spent up to now is     4329.3 secs

     total energy              =    -702.42271072 Ry
     Harris-Foulkes estimate   =    -702.42273619 Ry
     estimated scf accuracy    <       0.00022181 Ry

     iteration # 20     ecut=    40.00 Ry     beta=0.60
     Davidson diagonalization with overlap
     ethr =  2.09E-07,  avg # of iterations =  2.0

     total cpu time spent up to now is     4401.6 secs

     total energy              =    -702.42271545 Ry
     Harris-Foulkes estimate   =    -702.42272071 Ry
     estimated scf accuracy    <       0.00002643 Ry

     iteration # 21     ecut=    40.00 Ry     beta=0.60
     Davidson diagonalization with overlap
     ethr =  3.57E-08,  avg # of iterations =  4.8

     total cpu time spent up to now is     4502.0 secs

     total energy              =    -702.42271994 Ry
     Harris-Foulkes estimate   =    -702.42272210 Ry
     estimated scf accuracy    <       0.00001642 Ry

     iteration # 22     ecut=    40.00 Ry     beta=0.60
     Davidson diagonalization with overlap
     ethr =  2.22E-08,  avg # of iterations =  1.4

     total cpu time spent up to now is     4572.6 secs

     total energy              =    -702.42272066 Ry
     Harris-Foulkes estimate   =    -702.42272078 Ry
     estimated scf accuracy    <       0.00000081 Ry

     iteration # 23     ecut=    40.00 Ry     beta=0.60
     Davidson diagonalization with overlap
     c_bands:  1 eigenvalues not converged
     ethr =  1.09E-09,  avg # of iterations =  5.5

     total cpu time spent up to now is     4685.8 secs

     total energy              =    -702.42272104 Ry
     Harris-Foulkes estimate   =    -702.42272117 Ry
     estimated scf accuracy    <       0.00000176 Ry

     iteration # 24     ecut=    40.00 Ry     beta=0.60
     Davidson diagonalization with overlap
     ethr =  1.09E-09,  avg # of iterations =  1.0

     total cpu time spent up to now is     4756.1 secs

     total energy              =    -702.42272100 Ry
     Harris-Foulkes estimate   =    -702.42272107 Ry
     estimated scf accuracy    <       0.00000050 Ry

     iteration # 25     ecut=    40.00 Ry     beta=0.60
     Davidson diagonalization with overlap
     ethr =  6.81E-10,  avg # of iterations =  3.9

     total cpu time spent up to now is     4844.1 secs

     total energy              =    -702.42272106 Ry
     Harris-Foulkes estimate   =    -702.42272108 Ry
     estimated scf accuracy    <       0.00000018 Ry

     iteration # 26     ecut=    40.00 Ry     beta=0.60
     Davidson diagonalization with overlap
     ethr =  2.37E-10,  avg # of iterations =  1.2

     total cpu time spent up to now is     4914.7 secs

     total energy              =    -702.42272106 Ry
     Harris-Foulkes estimate   =    -702.42272107 Ry
     estimated scf accuracy    <       0.00000005 Ry

     iteration # 27     ecut=    40.00 Ry     beta=0.60
     Davidson diagonalization with overlap
     ethr =  6.91E-11,  avg # of iterations =  3.3

     total cpu time spent up to now is     4993.7 secs

     total energy              =    -702.42272107 Ry
     Harris-Foulkes estimate   =    -702.42272107 Ry
     estimated scf accuracy    <          7.5E-09 Ry

     iteration # 28     ecut=    40.00 Ry     beta=0.60
     Davidson diagonalization with overlap
     ethr =  1.01E-11,  avg # of iterations =  4.4

     total cpu time spent up to now is     5082.6 secs

     total energy              =    -702.42272107 Ry
     Harris-Foulkes estimate   =    -702.42272107 Ry
     estimated scf accuracy    <          1.0E-09 Ry

     iteration # 29     ecut=    40.00 Ry     beta=0.60
     Davidson diagonalization with overlap
     ethr =  1.36E-12,  avg # of iterations =  4.5

     total cpu time spent up to now is     5175.4 secs

     total energy              =    -702.42272107 Ry
     Harris-Foulkes estimate   =    -702.42272107 Ry
     estimated scf accuracy    <          2.6E-09 Ry

     iteration # 30     ecut=    40.00 Ry     beta=0.60
     Davidson diagonalization with overlap
     ethr =  1.36E-12,  avg # of iterations =  2.6

     total cpu time spent up to now is     5249.4 secs

     total energy              =    -702.42272107 Ry
     Harris-Foulkes estimate   =    -702.42272107 Ry
     estimated scf accuracy    <          2.4E-10 Ry

     iteration # 31     ecut=    40.00 Ry     beta=0.60
     Davidson diagonalization with overlap
     ethr =  3.30E-13,  avg # of iterations =  4.5

     total cpu time spent up to now is     5349.4 secs

     total energy              =    -702.42272107 Ry
     Harris-Foulkes estimate   =    -702.42272107 Ry
     estimated scf accuracy    <          1.3E-10 Ry

     iteration # 32     ecut=    40.00 Ry     beta=0.60
     Davidson diagonalization with overlap
     ethr =  1.70E-13,  avg # of iterations =  1.0

     total cpu time spent up to now is     5419.6 secs

     End of self-consistent calculation

     Number of k-points >= 100: set verbosity='high' to print the bands.

     the Fermi energy is    14.0548 ev

!    total energy              =    -702.42272107 Ry
     Harris-Foulkes estimate   =    -702.42272107 Ry
     estimated scf accuracy    <          4.0E-11 Ry

     The total energy is the sum of the following terms:

     one-electron contribution =    -214.56763570 Ry
     hartree contribution      =     132.63362725 Ry
     xc contribution           =     -94.65827619 Ry
     ewald contribution        =    -525.82658418 Ry
     smearing contrib. (-TS)   =      -0.00385224 Ry

     convergence has been achieved in  32 iterations

     Forces acting on atoms (Ry/au):

     atom    1 type  1   force =     0.00000000    0.00000000   -0.00000000
     atom    2 type  2   force =     0.00000000    0.00000000   -0.01191002
     atom    3 type  2   force =    -0.00000000    0.00000000   -0.01191064
     atom    4 type  2   force =     0.00000000   -0.00000000    0.01191002
     atom    5 type  2   force =     0.00000000    0.00000000    0.01191064
     atom    6 type  1   force =    -0.00000000   -0.00000000    0.00000000

     Total force =     0.023821     Total SCF correction =     0.000015


     entering subroutine stress ...

          total   stress  (Ry/bohr**3)                   (kbar)     P=  -64.36
  -0.00046481   0.00000000  -0.00000000        -68.38      0.00     -0.00
  -0.00000000  -0.00046481  -0.00000000         -0.00    -68.38     -0.00
   0.00000000   0.00000000  -0.00038294          0.00      0.00    -56.33


     number of scf cycles    =   2
     number of bfgs steps    =   1

     enthalpy old            =    -702.3875410589 Ry
     enthalpy new            =    -702.4227210670 Ry

     CASE: enthalpy_new < enthalpy_old

     new trust radius        =       0.1239506496 bohr
     new conv_thr            =            1.0E-10 Ry

     new unit-cell volume =    709.20418 a.u.^3 (   105.09322 Ang^3 )

CELL_PARAMETERS (alat=  1.88972599)
  -1.454680002  -2.519579862  -0.000000000
   2.909360004  -0.000000000  -0.000000000
  -0.000000000  -0.000000000  14.336699599

ATOMIC_POSITIONS (angstrom)
Nb       1.454680002  -2.519579862   4.778899866
Ti       0.000001455  -1.679720748   2.373935030
Ti       1.454680002  -2.519579862   9.542285067
Ti       0.000001455  -1.679720748   7.183864703
Ti       1.454680002  -2.519579862  14.352214264
Nb       0.000001455  -1.679720748  11.947249665


     NEW-OLD atomic charge density approx. for the potential
     extrapolated charge   69.35065, renormalised to   74.00000

     total cpu time spent up to now is     5490.2 secs

     per-process dynamical memory:   352.0 Mb

     Self-consistent Calculation

     iteration #  1     ecut=    40.00 Ry     beta=0.60
     Davidson diagonalization with overlap
     c_bands:  2 eigenvalues not converged
     c_bands:  2 eigenvalues not converged
     c_bands:  2 eigenvalues not converged
     c_bands:  1 eigenvalues not converged
     c_bands:  2 eigenvalues not converged
     c_bands:  2 eigenvalues not converged
     c_bands:  1 eigenvalues not converged
     c_bands:  2 eigenvalues not converged
     c_bands:  2 eigenvalues not converged
     c_bands:  1 eigenvalues not converged
     c_bands:  2 eigenvalues not converged
     c_bands:  1 eigenvalues not converged
     c_bands:  2 eigenvalues not converged
     c_bands:  1 eigenvalues not converged
     c_bands:  1 eigenvalues not converged
     c_bands:  2 eigenvalues not converged
     c_bands:  1 eigenvalues not converged
     c_bands:  1 eigenvalues not converged
     c_bands:  1 eigenvalues not converged
     c_bands:  1 eigenvalues not converged
     c_bands:  2 eigenvalues not converged
     ethr =  1.00E-06,  avg # of iterations = 15.5

     total cpu time spent up to now is     5813.3 secs

     total energy              =    -699.18178756 Ry
     Harris-Foulkes estimate   =    -711.80589133 Ry
     estimated scf accuracy    <       3.05412542 Ry

     iteration #  2     ecut=    40.00 Ry     beta=0.60
     Davidson diagonalization with overlap
     ethr =  4.13E-03,  avg # of iterations =  6.9

     total cpu time spent up to now is     5989.8 secs

     total energy              =    -699.27513805 Ry
     Harris-Foulkes estimate   =    -708.11349407 Ry
     estimated scf accuracy    <      52.12535539 Ry

     iteration #  3     ecut=    40.00 Ry     beta=0.60
     Davidson diagonalization with overlap
     ethr =  4.13E-03,  avg # of iterations =  5.6

     total cpu time spent up to now is     6109.2 secs

     total energy              =    -702.22253659 Ry
     Harris-Foulkes estimate   =    -703.63484723 Ry
     estimated scf accuracy    <       4.74399742 Ry

     iteration #  4     ecut=    40.00 Ry     beta=0.60
     Davidson diagonalization with overlap
     ethr =  4.13E-03,  avg # of iterations =  2.7

     total cpu time spent up to now is     6188.5 secs

     total energy              =    -702.53252099 Ry
     Harris-Foulkes estimate   =    -702.71966505 Ry
     estimated scf accuracy    <       1.53123472 Ry

     iteration #  5     ecut=    40.00 Ry     beta=0.60
     Davidson diagonalization with overlap
     ethr =  2.07E-03,  avg # of iterations =  1.1

     total cpu time spent up to now is     6258.9 secs

     total energy              =    -702.55287182 Ry
     Harris-Foulkes estimate   =    -702.58455092 Ry
     estimated scf accuracy    <       1.37535412 Ry

     iteration #  6     ecut=    40.00 Ry     beta=0.60
     Davidson diagonalization with overlap
     ethr =  1.86E-03,  avg # of iterations =  1.0

     total cpu time spent up to now is     6329.1 secs

     total energy              =    -702.51237988 Ry
     Harris-Foulkes estimate   =    -702.57355772 Ry
     estimated scf accuracy    <       0.91864092 Ry

     iteration #  7     ecut=    40.00 Ry     beta=0.60
     Davidson diagonalization with overlap
     ethr =  1.24E-03,  avg # of iterations =  1.0

     total cpu time spent up to now is     6399.2 secs

     total energy              =    -702.50908410 Ry
     Harris-Foulkes estimate   =    -702.52240078 Ry
     estimated scf accuracy    <       0.65149668 Ry

     iteration #  8     ecut=    40.00 Ry     beta=0.60
     Davidson diagonalization with overlap
     ethr =  8.80E-04,  avg # of iterations =  1.0

     total cpu time spent up to now is     6469.5 secs

     total energy              =    -702.46286324 Ry
     Harris-Foulkes estimate   =    -702.51359012 Ry
     estimated scf accuracy    <       0.58924540 Ry

     iteration #  9     ecut=    40.00 Ry     beta=0.60
     Davidson diagonalization with overlap
     ethr =  7.96E-04,  avg # of iterations =  1.0

     total cpu time spent up to now is     6539.9 secs

     total energy              =    -702.45173224 Ry
     Harris-Foulkes estimate   =    -702.47018654 Ry
     estimated scf accuracy    <       0.32229430 Ry

     iteration # 10     ecut=    40.00 Ry     beta=0.60
     Davidson diagonalization with overlap
     ethr =  4.36E-04,  avg # of iterations =  1.3

     total cpu time spent up to now is     6610.4 secs

     total energy              =    -702.38483763 Ry
     Harris-Foulkes estimate   =    -702.45710733 Ry
     estimated scf accuracy    <       0.20658531 Ry

     iteration # 11     ecut=    40.00 Ry     beta=0.60
     Davidson diagonalization with overlap
     ethr =  2.79E-04,  avg # of iterations =  4.4

     total cpu time spent up to now is     6707.1 secs

     total energy              =    -702.43593164 Ry
     Harris-Foulkes estimate   =    -702.43975558 Ry
     estimated scf accuracy    <       0.12255242 Ry

     iteration # 12     ecut=    40.00 Ry     beta=0.60
     Davidson diagonalization with overlap
     ethr =  1.66E-04,  avg # of iterations =  1.8

     total cpu time spent up to now is     6778.6 secs

     total energy              =    -702.43601132 Ry
     Harris-Foulkes estimate   =    -702.43732525 Ry
     estimated scf accuracy    <       0.08237250 Ry

     iteration # 13     ecut=    40.00 Ry     beta=0.60
     Davidson diagonalization with overlap
     ethr =  1.11E-04,  avg # of iterations =  1.2

     total cpu time spent up to now is     6849.2 secs

     total energy              =    -702.43115208 Ry
     Harris-Foulkes estimate   =    -702.43640368 Ry
     estimated scf accuracy    <       0.07266674 Ry

     iteration # 14     ecut=    40.00 Ry     beta=0.60
     Davidson diagonalization with overlap
     ethr =  9.82E-05,  avg # of iterations =  1.1

     total cpu time spent up to now is     6919.6 secs

     total energy              =    -702.43070182 Ry
     Harris-Foulkes estimate   =    -702.43235298 Ry
     estimated scf accuracy    <       0.02258444 Ry

     iteration # 15     ecut=    40.00 Ry     beta=0.60
     Davidson diagonalization with overlap
     ethr =  3.05E-05,  avg # of iterations =  5.4

     total cpu time spent up to now is     7007.2 secs

     total energy              =    -702.43269671 Ry
     Harris-Foulkes estimate   =    -702.43262318 Ry
     estimated scf accuracy    <       0.00602634 Ry

     iteration # 16     ecut=    40.00 Ry     beta=0.60
     Davidson diagonalization with overlap
     c_bands:  1 eigenvalues not converged
     ethr =  8.14E-06,  avg # of iterations =  6.6

     total cpu time spent up to now is     7130.6 secs

     total energy              =    -702.42694414 Ry
     Harris-Foulkes estimate   =    -702.43653256 Ry
     estimated scf accuracy    <       0.05814491 Ry

     iteration # 17     ecut=    40.00 Ry     beta=0.60
     Davidson diagonalization with overlap
     ethr =  8.14E-06,  avg # of iterations =  5.8

     total cpu time spent up to now is     7255.6 secs

     total energy              =    -702.43230632 Ry
     Harris-Foulkes estimate   =    -702.43329021 Ry
     estimated scf accuracy    <       0.00970375 Ry

     iteration # 18     ecut=    40.00 Ry     beta=0.60
     Davidson diagonalization with overlap
     ethr =  8.14E-06,  avg # of iterations =  1.0

     total cpu time spent up to now is     7326.1 secs

     total energy              =    -702.43242334 Ry
     Harris-Foulkes estimate   =    -702.43256295 Ry
     estimated scf accuracy    <       0.00165387 Ry

     iteration # 19     ecut=    40.00 Ry     beta=0.60
     Davidson diagonalization with overlap
     ethr =  2.23E-06,  avg # of iterations =  4.5

     total cpu time spent up to now is     7419.5 secs

     total energy              =    -702.43264619 Ry
     Harris-Foulkes estimate   =    -702.43265194 Ry
     estimated scf accuracy    <       0.00003693 Ry

     iteration # 20     ecut=    40.00 Ry     beta=0.60
     Davidson diagonalization with overlap
     c_bands:  1 eigenvalues not converged
     ethr =  4.99E-08,  avg # of iterations =  5.1

     total cpu time spent up to now is     7516.9 secs

     total energy              =    -702.43265673 Ry
     Harris-Foulkes estimate   =    -702.43265686 Ry
     estimated scf accuracy    <       0.00000062 Ry

     iteration # 21     ecut=    40.00 Ry     beta=0.60
     Davidson diagonalization with overlap
     ethr =  8.33E-10,  avg # of iterations =  6.2

     total cpu time spent up to now is     7647.2 secs

     total energy              =    -702.43265731 Ry
     Harris-Foulkes estimate   =    -702.43265720 Ry
     estimated scf accuracy    <       0.00000033 Ry

     iteration # 22     ecut=    40.00 Ry     beta=0.60
     Davidson diagonalization with overlap
     ethr =  4.51E-10,  avg # of iterations =  5.0

     total cpu time spent up to now is     7772.4 secs

     total energy              =    -702.43265724 Ry
     Harris-Foulkes estimate   =    -702.43265767 Ry
     estimated scf accuracy    <       0.00000749 Ry

     iteration # 23     ecut=    40.00 Ry     beta=0.60
     Davidson diagonalization with overlap
     ethr =  4.51E-10,  avg # of iterations =  4.0

     total cpu time spent up to now is     7862.2 secs

     total energy              =    -702.43265713 Ry
     Harris-Foulkes estimate   =    -702.43265733 Ry
     estimated scf accuracy    <       0.00000275 Ry

     iteration # 24     ecut=    40.00 Ry     beta=0.60
     Davidson diagonalization with overlap
     ethr =  4.51E-10,  avg # of iterations =  3.7

     total cpu time spent up to now is     7942.0 secs

     total energy              =    -702.43265712 Ry
     Harris-Foulkes estimate   =    -702.43265718 Ry
     estimated scf accuracy    <       0.00000080 Ry

     iteration # 25     ecut=    40.00 Ry     beta=0.60
     Davidson diagonalization with overlap
     ethr =  4.51E-10,  avg # of iterations =  3.5

     total cpu time spent up to now is     8022.0 secs

     total energy              =    -702.43265713 Ry
     Harris-Foulkes estimate   =    -702.43265715 Ry
     estimated scf accuracy    <       0.00000018 Ry

     iteration # 26     ecut=    40.00 Ry     beta=0.60
     Davidson diagonalization with overlap
     ethr =  2.42E-10,  avg # of iterations =  3.6

     total cpu time spent up to now is     8101.7 secs

     total energy              =    -702.43265714 Ry
     Harris-Foulkes estimate   =    -702.43265714 Ry
     estimated scf accuracy    <       0.00000004 Ry

     iteration # 27     ecut=    40.00 Ry     beta=0.60
     Davidson diagonalization with overlap
     ethr =  5.96E-11,  avg # of iterations =  3.5

     total cpu time spent up to now is     8181.1 secs

     total energy              =    -702.43265715 Ry
     Harris-Foulkes estimate   =    -702.43265715 Ry
     estimated scf accuracy    <          5.6E-10 Ry

     iteration # 28     ecut=    40.00 Ry     beta=0.60
     Davidson diagonalization with overlap
     ethr =  7.55E-13,  avg # of iterations =  6.4

     total cpu time spent up to now is     8303.6 secs

     End of self-consistent calculation

     Number of k-points >= 100: set verbosity='high' to print the bands.

     the Fermi energy is    15.1484 ev

!    total energy              =    -702.43265715 Ry
     Harris-Foulkes estimate   =    -702.43265715 Ry
     estimated scf accuracy    <          6.8E-11 Ry

     The total energy is the sum of the following terms:

     one-electron contribution =    -197.61988196 Ry
     hartree contribution      =     127.51511296 Ry
     xc contribution           =     -94.99204878 Ry
     ewald contribution        =    -537.33253723 Ry
     smearing contrib. (-TS)   =      -0.00330213 Ry

     convergence has been achieved in  28 iterations

     Forces acting on atoms (Ry/au):

     atom    1 type  1   force =     0.00000000    0.00000000    0.00000000
     atom    2 type  2   force =    -0.00000000   -0.00000000   -0.01415670
     atom    3 type  2   force =    -0.00000000    0.00000000   -0.01415848
     atom    4 type  2   force =    -0.00000000   -0.00000000    0.01415670
     atom    5 type  2   force =     0.00000000   -0.00000000    0.01415848
     atom    6 type  1   force =    -0.00000000   -0.00000000   -0.00000000

     Total force =     0.028315     Total SCF correction =     0.000040


     entering subroutine stress ...

          total   stress  (Ry/bohr**3)                   (kbar)     P=   14.46
   0.00006990  -0.00000000  -0.00000000         10.28     -0.00     -0.00
  -0.00000000   0.00006990  -0.00000000         -0.00     10.28     -0.00
  -0.00000000  -0.00000000   0.00015507         -0.00     -0.00     22.81


     number of scf cycles    =   3
     number of bfgs steps    =   2

     enthalpy old            =    -702.4227210670 Ry
     enthalpy new            =    -702.4326571480 Ry

     CASE: enthalpy_new < enthalpy_old

     new trust radius        =       0.0194389157 bohr
     new conv_thr            =            1.0E-10 Ry

     new unit-cell volume =    714.69494 a.u.^3 (   105.90686 Ang^3 )

CELL_PARAMETERS (alat=  1.88972599)
  -1.457642769  -2.524711525  -0.000000000
   2.915285539  -0.000000000  -0.000000000
  -0.000000000  -0.000000000  14.389024159

ATOMIC_POSITIONS (angstrom)
Nb       1.457642769  -2.524711525   4.796341386
Ti       0.000001458  -1.683141858   2.376937932
Ti       1.457642769  -2.524711525   9.571449524
Ti       0.000001458  -1.683141858   7.215744841
Ti       1.457642769  -2.524711525  14.410257407
Nb       0.000001458  -1.683141858  11.990853466


     NEW-OLD atomic charge density approx. for the potential
     extrapolated charge   74.53774, renormalised to   74.00000

     total cpu time spent up to now is     8373.9 secs

     per-process dynamical memory:   352.0 Mb

     Self-consistent Calculation

     iteration #  1     ecut=    40.00 Ry     beta=0.60
     Davidson diagonalization with overlap
     ethr =  1.00E-06,  avg # of iterations =  6.3

     total cpu time spent up to now is     8572.3 secs

     total energy              =    -702.40602551 Ry
     Harris-Foulkes estimate   =    -701.39892132 Ry
     estimated scf accuracy    <       0.02662256 Ry

     iteration #  2     ecut=    40.00 Ry     beta=0.60
     Davidson diagonalization with overlap
     ethr =  3.60E-05,  avg # of iterations =  5.5

     total cpu time spent up to now is     8742.3 secs

     total energy              =    -702.38822868 Ry
     Harris-Foulkes estimate   =    -702.46930552 Ry
     estimated scf accuracy    <       0.43964511 Ry

     iteration #  3     ecut=    40.00 Ry     beta=0.60
     Davidson diagonalization with overlap
     ethr =  3.60E-05,  avg # of iterations =  6.5

     total cpu time spent up to now is     8875.1 secs

     total energy              =    -702.42134063 Ry
     Harris-Foulkes estimate   =    -702.45666198 Ry
     estimated scf accuracy    <       0.35654905 Ry

     iteration #  4     ecut=    40.00 Ry     beta=0.60
     Davidson diagonalization with overlap
     ethr =  3.60E-05,  avg # of iterations =  6.2

     total cpu time spent up to now is     8988.7 secs

     total energy              =    -702.42858256 Ry
     Harris-Foulkes estimate   =    -702.44233395 Ry
     estimated scf accuracy    <       0.49145512 Ry

     iteration #  5     ecut=    40.00 Ry     beta=0.60
     Davidson diagonalization with overlap
     ethr =  3.60E-05,  avg # of iterations =  3.1

     total cpu time spent up to now is     9062.5 secs

     total energy              =    -702.43429038 Ry
     Harris-Foulkes estimate   =    -702.43497665 Ry
     estimated scf accuracy    <       0.01148276 Ry

     iteration #  6     ecut=    40.00 Ry     beta=0.60
     Davidson diagonalization with overlap
     ethr =  1.55E-05,  avg # of iterations =  4.5

     total cpu time spent up to now is     9141.4 secs

     total energy              =    -702.43441934 Ry
     Harris-Foulkes estimate   =    -702.43460193 Ry
     estimated scf accuracy    <       0.00721634 Ry

     iteration #  7     ecut=    40.00 Ry     beta=0.60
     Davidson diagonalization with overlap
     ethr =  9.75E-06,  avg # of iterations =  2.8

     total cpu time spent up to now is     9215.2 secs

     total energy              =    -702.43373654 Ry
     Harris-Foulkes estimate   =    -702.43451552 Ry
     estimated scf accuracy    <       0.00612929 Ry

     iteration #  8     ecut=    40.00 Ry     beta=0.60
     Davidson diagonalization with overlap
     ethr =  8.28E-06,  avg # of iterations =  2.3

     total cpu time spent up to now is     9288.1 secs

     total energy              =    -702.43332789 Ry
     Harris-Foulkes estimate   =    -702.43387912 Ry
     estimated scf accuracy    <       0.00311940 Ry

     iteration #  9     ecut=    40.00 Ry     beta=0.60
     Davidson diagonalization with overlap
     ethr =  4.22E-06,  avg # of iterations =  5.2

     total cpu time spent up to now is     9378.6 secs

     total energy              =    -702.43358431 Ry
     Harris-Foulkes estimate   =    -702.43362107 Ry
     estimated scf accuracy    <       0.00033039 Ry

     iteration # 10     ecut=    40.00 Ry     beta=0.60
     Davidson diagonalization with overlap
     c_bands:  1 eigenvalues not converged
     ethr =  4.46E-07,  avg # of iterations =  5.1

     total cpu time spent up to now is     9468.9 secs

     total energy              =    -702.43358476 Ry
     Harris-Foulkes estimate   =    -702.43361849 Ry
     estimated scf accuracy    <       0.00007218 Ry

     iteration # 11     ecut=    40.00 Ry     beta=0.60
     Davidson diagonalization with overlap
     ethr =  9.75E-08,  avg # of iterations =  4.4

     total cpu time spent up to now is     9581.3 secs

     total energy              =    -702.43360917 Ry
     Harris-Foulkes estimate   =    -702.43361332 Ry
     estimated scf accuracy    <       0.00001499 Ry

     iteration # 12     ecut=    40.00 Ry     beta=0.60
     Davidson diagonalization with overlap
     ethr =  2.03E-08,  avg # of iterations =  3.2

     total cpu time spent up to now is     9663.8 secs

     total energy              =    -702.43361007 Ry
     Harris-Foulkes estimate   =    -702.43361058 Ry
     estimated scf accuracy    <       0.00000396 Ry

     iteration # 13     ecut=    40.00 Ry     beta=0.60
     Davidson diagonalization with overlap
     ethr =  5.36E-09,  avg # of iterations =  3.5

     total cpu time spent up to now is     9743.6 secs

     total energy              =    -702.43361030 Ry
     Harris-Foulkes estimate   =    -702.43361038 Ry
     estimated scf accuracy    <       0.00000098 Ry

     iteration # 14     ecut=    40.00 Ry     beta=0.60
     Davidson diagonalization with overlap
     ethr =  1.32E-09,  avg # of iterations =  4.1

     total cpu time spent up to now is     9837.3 secs

     total energy              =    -702.43361042 Ry
     Harris-Foulkes estimate   =    -702.43361043 Ry
     estimated scf accuracy    <       0.00000035 Ry

     iteration # 15     ecut=    40.00 Ry     beta=0.60
     Davidson diagonalization with overlap
     ethr =  4.74E-10,  avg # of iterations =  2.3

     total cpu time spent up to now is     9913.9 secs

     total energy              =    -702.43361042 Ry
     Harris-Foulkes estimate   =    -702.43361043 Ry
     estimated scf accuracy    <       0.00000025 Ry

     iteration # 16     ecut=    40.00 Ry     beta=0.60
     Davidson diagonalization with overlap
     ethr =  3.34E-10,  avg # of iterations =  1.0

     total cpu time spent up to now is     9987.5 secs

     total energy              =    -702.43361041 Ry
     Harris-Foulkes estimate   =    -702.43361042 Ry
     estimated scf accuracy    <       0.00000007 Ry

     iteration # 17     ecut=    40.00 Ry     beta=0.60
     Davidson diagonalization with overlap
     ethr =  8.92E-11,  avg # of iterations =  4.3

     total cpu time spent up to now is    10083.2 secs

     total energy              =    -702.43361042 Ry
     Harris-Foulkes estimate   =    -702.43361042 Ry
     estimated scf accuracy    <       0.00000001 Ry

     iteration # 18     ecut=    40.00 Ry     beta=0.60
     Davidson diagonalization with overlap
     ethr =  1.55E-11,  avg # of iterations =  3.6

     total cpu time spent up to now is    10173.6 secs

     total energy              =    -702.43361042 Ry
     Harris-Foulkes estimate   =    -702.43361042 Ry
     estimated scf accuracy    <          6.6E-09 Ry

     iteration # 19     ecut=    40.00 Ry     beta=0.60
     Davidson diagonalization with overlap
     ethr =  8.86E-12,  avg # of iterations =  2.9

     total cpu time spent up to now is    10260.9 secs

     total energy              =    -702.43361042 Ry
     Harris-Foulkes estimate   =    -702.43361042 Ry
     estimated scf accuracy    <          6.0E-10 Ry

     iteration # 20     ecut=    40.00 Ry     beta=0.60
     Davidson diagonalization with overlap
     ethr =  8.09E-13,  avg # of iterations =  4.7

     total cpu time spent up to now is    10363.6 secs

     End of self-consistent calculation

     Number of k-points >= 100: set verbosity='high' to print the bands.

     the Fermi energy is    15.0109 ev

!    total energy              =    -702.43361042 Ry
     Harris-Foulkes estimate   =    -702.43361042 Ry
     estimated scf accuracy    <          2.8E-11 Ry

     The total energy is the sum of the following terms:

     one-electron contribution =    -199.57479896 Ry
     hartree contribution      =     128.08145488 Ry
     xc contribution           =     -94.94980532 Ry
     ewald contribution        =    -535.98723419 Ry
     smearing contrib. (-TS)   =      -0.00322683 Ry

     convergence has been achieved in  20 iterations

     Forces acting on atoms (Ry/au):

     atom    1 type  1   force =    -0.00000000   -0.00000000   -0.00000000
     atom    2 type  2   force =    -0.00000000    0.00000000   -0.01217813
     atom    3 type  2   force =     0.00000000    0.00000000   -0.01218026
     atom    4 type  2   force =    -0.00000000    0.00000000    0.01217813
     atom    5 type  2   force =    -0.00000000   -0.00000000    0.01218026
     atom    6 type  1   force =    -0.00000000   -0.00000000   -0.00000000

     Total force =     0.024358     Total SCF correction =     0.000030


     entering subroutine stress ...

          total   stress  (Ry/bohr**3)                   (kbar)     P=    3.30
  -0.00000217   0.00000000   0.00000000         -0.32      0.00      0.00
  -0.00000000  -0.00000217  -0.00000000         -0.00     -0.32     -0.00
   0.00000000  -0.00000000   0.00007163          0.00     -0.00     10.54


     number of scf cycles    =   4
     number of bfgs steps    =   3

     enthalpy old            =    -702.4326571480 Ry
     enthalpy new            =    -702.4336104237 Ry

     CASE: enthalpy_new < enthalpy_old

     new trust radius        =       0.0213873648 bohr
     new conv_thr            =            1.0E-10 Ry

     new unit-cell volume =    717.24020 a.u.^3 (   106.28403 Ang^3 )

CELL_PARAMETERS (alat=  1.88972599)
  -1.457761638  -2.524917412  -0.000000000
   2.915523276  -0.000000000  -0.000000000
   0.000000000  -0.000000000  14.437913126

ATOMIC_POSITIONS (angstrom)
Nb       1.457761638  -2.524917412   4.812637709
Ti       0.000001458  -1.683279116   2.373659556
Ti       1.457761638  -2.524917412   9.592613866
Ti       0.000001458  -1.683279116   7.251615862
Ti       1.457761638  -2.524917412  14.470574677
Nb       0.000001458  -1.683279116  12.031594272


     NEW-OLD atomic charge density approx. for the potential
     extrapolated charge   74.24839, renormalised to   74.00000

     total cpu time spent up to now is    10436.4 secs

     per-process dynamical memory:   352.0 Mb

     Self-consistent Calculation

     iteration #  1     ecut=    40.00 Ry     beta=0.60
     Davidson diagonalization with overlap
     ethr =  1.00E-06,  avg # of iterations =  9.5

     total cpu time spent up to now is    10660.0 secs

     total energy              =    -702.40334726 Ry
     Harris-Foulkes estimate   =    -701.95608062 Ry
     estimated scf accuracy    <       0.04115013 Ry

     iteration #  2     ecut=    40.00 Ry     beta=0.60
     Davidson diagonalization with overlap
     ethr =  5.56E-05,  avg # of iterations =  6.3

     total cpu time spent up to now is    10822.0 secs

     total energy              =    -702.25378270 Ry
     Harris-Foulkes estimate   =    -702.60429133 Ry
     estimated scf accuracy    <       3.16692188 Ry

     iteration #  3     ecut=    40.00 Ry     beta=0.60
     Davidson diagonalization with overlap
     ethr =  5.56E-05,  avg # of iterations =  7.0

     total cpu time spent up to now is    10986.9 secs

     total energy              =    -702.43340501 Ry
     Harris-Foulkes estimate   =    -702.43788866 Ry
     estimated scf accuracy    <       0.02792685 Ry

     iteration #  4     ecut=    40.00 Ry     beta=0.60
     Davidson diagonalization with overlap
     ethr =  3.77E-05,  avg # of iterations =  1.9

     total cpu time spent up to now is    11061.3 secs

     total energy              =    -702.43110444 Ry
     Harris-Foulkes estimate   =    -702.43813704 Ry
     estimated scf accuracy    <       0.23249133 Ry

     iteration #  5     ecut=    40.00 Ry     beta=0.60
     Davidson diagonalization with overlap
     ethr =  3.77E-05,  avg # of iterations =  1.2

     total cpu time spent up to now is    11132.4 secs

     total energy              =    -702.43501416 Ry
     Harris-Foulkes estimate   =    -702.43472169 Ry
     estimated scf accuracy    <       0.00454313 Ry

     iteration #  6     ecut=    40.00 Ry     beta=0.60
     Davidson diagonalization with overlap
     ethr =  6.14E-06,  avg # of iterations =  3.0

     total cpu time spent up to now is    11206.5 secs

     total energy              =    -702.43500393 Ry
     Harris-Foulkes estimate   =    -702.43510935 Ry
     estimated scf accuracy    <       0.00523589 Ry

     iteration #  7     ecut=    40.00 Ry     beta=0.60
     Davidson diagonalization with overlap
     ethr =  6.14E-06,  avg # of iterations =  1.0

     total cpu time spent up to now is    11277.1 secs

     total energy              =    -702.43429798 Ry
     Harris-Foulkes estimate   =    -702.43504176 Ry
     estimated scf accuracy    <       0.00439332 Ry

     iteration #  8     ecut=    40.00 Ry     beta=0.60
     Davidson diagonalization with overlap
     ethr =  5.94E-06,  avg # of iterations =  2.5

     total cpu time spent up to now is    11352.5 secs

     total energy              =    -702.43428771 Ry
     Harris-Foulkes estimate   =    -702.43449489 Ry
     estimated scf accuracy    <       0.00089688 Ry

     iteration #  9     ecut=    40.00 Ry     beta=0.60
     Davidson diagonalization with overlap
     ethr =  1.21E-06,  avg # of iterations =  5.6

     total cpu time spent up to now is    11475.1 secs

     total energy              =    -702.43470071 Ry
     Harris-Foulkes estimate   =    -702.43470841 Ry
     estimated scf accuracy    <       0.00067637 Ry

     iteration # 10     ecut=    40.00 Ry     beta=0.60
     Davidson diagonalization with overlap
     ethr =  9.14E-07,  avg # of iterations =  1.0

     total cpu time spent up to now is    11549.0 secs

     total energy              =    -702.43475854 Ry
     Harris-Foulkes estimate   =    -702.43470418 Ry
     estimated scf accuracy    <       0.00062705 Ry

     iteration # 11     ecut=    40.00 Ry     beta=0.60
     Davidson diagonalization with overlap
     ethr =  8.47E-07,  avg # of iterations =  1.0

     total cpu time spent up to now is    11621.6 secs

     total energy              =    -702.43476102 Ry
     Harris-Foulkes estimate   =    -702.43476346 Ry
     estimated scf accuracy    <       0.00093018 Ry

     iteration # 12     ecut=    40.00 Ry     beta=0.60
     Davidson diagonalization with overlap
     ethr =  8.47E-07,  avg # of iterations =  1.0

     total cpu time spent up to now is    11695.2 secs

     total energy              =    -702.43462942 Ry
     Harris-Foulkes estimate   =    -702.43476370 Ry
     estimated scf accuracy    <       0.00099077 Ry

     iteration # 13     ecut=    40.00 Ry     beta=0.60
     Davidson diagonalization with overlap
     ethr =  8.47E-07,  avg # of iterations =  1.0

     total cpu time spent up to now is    11769.5 secs

     total energy              =    -702.43460633 Ry
     Harris-Foulkes estimate   =    -702.43464843 Ry
     estimated scf accuracy    <       0.00045361 Ry

     iteration # 14     ecut=    40.00 Ry     beta=0.60
     Davidson diagonalization with overlap
     ethr =  6.13E-07,  avg # of iterations =  2.1

     total cpu time spent up to now is    11851.0 secs

     total energy              =    -702.43463495 Ry
     Harris-Foulkes estimate   =    -702.43463514 Ry
     estimated scf accuracy    <       0.00028005 Ry

     iteration # 15     ecut=    40.00 Ry     beta=0.60
     Davidson diagonalization with overlap
     ethr =  3.78E-07,  avg # of iterations =  1.0

     total cpu time spent up to now is    11924.0 secs

     total energy              =    -702.43464109 Ry
     Harris-Foulkes estimate   =    -702.43464067 Ry
     estimated scf accuracy    <       0.00020926 Ry

     iteration # 16     ecut=    40.00 Ry     beta=0.60
     Davidson diagonalization with overlap
     ethr =  2.83E-07,  avg # of iterations =  1.0

     total cpu time spent up to now is    11998.3 secs

     total energy              =    -702.43465174 Ry
     Harris-Foulkes estimate   =    -702.43464251 Ry
     estimated scf accuracy    <       0.00019780 Ry

     iteration # 17     ecut=    40.00 Ry     beta=0.60
     Davidson diagonalization with overlap
     ethr =  2.67E-07,  avg # of iterations =  1.0

     total cpu time spent up to now is    12070.6 secs

     total energy              =    -702.43459358 Ry
     Harris-Foulkes estimate   =    -702.43465241 Ry
     estimated scf accuracy    <       0.00025713 Ry

     iteration # 18     ecut=    40.00 Ry     beta=0.60
     Davidson diagonalization with overlap
     ethr =  2.67E-07,  avg # of iterations =  3.9

     total cpu time spent up to now is    12161.6 secs

     total energy              =    -702.43461256 Ry
     Harris-Foulkes estimate   =    -702.43463706 Ry
     estimated scf accuracy    <       0.00013679 Ry

     iteration # 19     ecut=    40.00 Ry     beta=0.60
     Davidson diagonalization with overlap
     ethr =  1.85E-07,  avg # of iterations =  1.8

     total cpu time spent up to now is    12234.7 secs

     total energy              =    -702.43461994 Ry
     Harris-Foulkes estimate   =    -702.43462013 Ry
     estimated scf accuracy    <       0.00000793 Ry

     iteration # 20     ecut=    40.00 Ry     beta=0.60
     Davidson diagonalization with overlap
     ethr =  1.07E-08,  avg # of iterations =  4.8

     total cpu time spent up to now is    12340.7 secs

     total energy              =    -702.43462167 Ry
     Harris-Foulkes estimate   =    -702.43462250 Ry
     estimated scf accuracy    <       0.00000406 Ry

     iteration # 21     ecut=    40.00 Ry     beta=0.60
     Davidson diagonalization with overlap
     ethr =  5.49E-09,  avg # of iterations =  1.2

     total cpu time spent up to now is    12413.5 secs

     total energy              =    -702.43462153 Ry
     Harris-Foulkes estimate   =    -702.43462184 Ry
     estimated scf accuracy    <       0.00000106 Ry

     iteration # 22     ecut=    40.00 Ry     beta=0.60
     Davidson diagonalization with overlap
     ethr =  1.44E-09,  avg # of iterations =  4.4

     total cpu time spent up to now is    12514.8 secs

     total energy              =    -702.43462167 Ry
     Harris-Foulkes estimate   =    -702.43462187 Ry
     estimated scf accuracy    <       0.00000195 Ry

     iteration # 23     ecut=    40.00 Ry     beta=0.60
     Davidson diagonalization with overlap
     ethr =  1.44E-09,  avg # of iterations =  1.5

     total cpu time spent up to now is    12587.5 secs

     total energy              =    -702.43462170 Ry
     Harris-Foulkes estimate   =    -702.43462173 Ry
     estimated scf accuracy    <       0.00000033 Ry

     iteration # 24     ecut=    40.00 Ry     beta=0.60
     Davidson diagonalization with overlap
     ethr =  4.47E-10,  avg # of iterations =  4.2

     total cpu time spent up to now is    12677.4 secs

     total energy              =    -702.43462172 Ry
     Harris-Foulkes estimate   =    -702.43462174 Ry
     estimated scf accuracy    <       0.00000019 Ry

     iteration # 25     ecut=    40.00 Ry     beta=0.60
     Davidson diagonalization with overlap
     ethr =  2.62E-10,  avg # of iterations =  1.3

     total cpu time spent up to now is    12750.5 secs

     total energy              =    -702.43462173 Ry
     Harris-Foulkes estimate   =    -702.43462173 Ry
     estimated scf accuracy    <       0.00000005 Ry

     iteration # 26     ecut=    40.00 Ry     beta=0.60
     Davidson diagonalization with overlap
     ethr =  6.79E-11,  avg # of iterations =  4.1

     total cpu time spent up to now is    12846.7 secs

     total energy              =    -702.43462173 Ry
     Harris-Foulkes estimate   =    -702.43462174 Ry
     estimated scf accuracy    <       0.00000016 Ry

     iteration # 27     ecut=    40.00 Ry     beta=0.60
     Davidson diagonalization with overlap
     ethr =  6.79E-11,  avg # of iterations =  1.6

     total cpu time spent up to now is    12920.1 secs

     total energy              =    -702.43462173 Ry
     Harris-Foulkes estimate   =    -702.43462173 Ry
     estimated scf accuracy    <       0.00000004 Ry

     iteration # 28     ecut=    40.00 Ry     beta=0.60
     Davidson diagonalization with overlap
     ethr =  5.15E-11,  avg # of iterations =  2.5

     total cpu time spent up to now is    12994.9 secs

     total energy              =    -702.43462173 Ry
     Harris-Foulkes estimate   =    -702.43462173 Ry
     estimated scf accuracy    <       0.00000001 Ry

     iteration # 29     ecut=    40.00 Ry     beta=0.60
     Davidson diagonalization with overlap
     ethr =  1.41E-11,  avg # of iterations =  4.4

     total cpu time spent up to now is    13094.2 secs

     total energy              =    -702.43462173 Ry
     Harris-Foulkes estimate   =    -702.43462173 Ry
     estimated scf accuracy    <          3.3E-09 Ry

     iteration # 30     ecut=    40.00 Ry     beta=0.60
     Davidson diagonalization with overlap
     ethr =  4.46E-12,  avg # of iterations =  1.6

     total cpu time spent up to now is    13165.3 secs

     total energy              =    -702.43462173 Ry
     Harris-Foulkes estimate   =    -702.43462173 Ry
     estimated scf accuracy    <          5.7E-10 Ry

     iteration # 31     ecut=    40.00 Ry     beta=0.60
     Davidson diagonalization with overlap
     ethr =  7.71E-13,  avg # of iterations =  4.0

     total cpu time spent up to now is    13259.3 secs

     total energy              =    -702.43462173 Ry
     Harris-Foulkes estimate   =    -702.43462173 Ry
     estimated scf accuracy    <          1.3E-10 Ry

     iteration # 32     ecut=    40.00 Ry     beta=0.60
     Davidson diagonalization with overlap
     ethr =  1.73E-13,  avg # of iterations =  4.5

     total cpu time spent up to now is    13359.7 secs

     total energy              =    -702.43462173 Ry
     Harris-Foulkes estimate   =    -702.43462173 Ry
     estimated scf accuracy    <          1.3E-10 Ry

     iteration # 33     ecut=    40.00 Ry     beta=0.60
     Davidson diagonalization with overlap
     ethr =  1.73E-13,  avg # of iterations =  1.1

     total cpu time spent up to now is    13433.0 secs

     End of self-consistent calculation

     Number of k-points >= 100: set verbosity='high' to print the bands.

     the Fermi energy is    14.9445 ev

!    total energy              =    -702.43462173 Ry
     Harris-Foulkes estimate   =    -702.43462173 Ry
     estimated scf accuracy    <          6.6E-12 Ry

     The total energy is the sum of the following terms:

     one-electron contribution =    -200.45591955 Ry
     hartree contribution      =     128.33430014 Ry
     xc contribution           =     -94.93004469 Ry
     ewald contribution        =    -535.37990978 Ry
     smearing contrib. (-TS)   =      -0.00304784 Ry

     convergence has been achieved in  33 iterations

     Forces acting on atoms (Ry/au):

     atom    1 type  1   force =     0.00000000    0.00000000    0.00000000
     atom    2 type  2   force =    -0.00000000    0.00000000   -0.00887361
     atom    3 type  2   force =    -0.00000000   -0.00000000   -0.00887398
     atom    4 type  2   force =     0.00000000   -0.00000000    0.00887361
     atom    5 type  2   force =    -0.00000000    0.00000000    0.00887398
     atom    6 type  1   force =    -0.00000000    0.00000000    0.00000000

     Total force =     0.017748     Total SCF correction =     0.000011


     entering subroutine stress ...

          total   stress  (Ry/bohr**3)                   (kbar)     P=   -2.40
  -0.00003402  -0.00000000   0.00000000         -5.01     -0.00      0.00
   0.00000000  -0.00003402   0.00000000          0.00     -5.01      0.00
  -0.00000000  -0.00000000   0.00001912         -0.00     -0.00      2.81


     number of scf cycles    =   5
     number of bfgs steps    =   4

     enthalpy old            =    -702.4336104237 Ry
     enthalpy new            =    -702.4346217298 Ry

     CASE: enthalpy_new < enthalpy_old

     new trust radius        =       0.0321900476 bohr
     new conv_thr            =            1.0E-10 Ry

     new unit-cell volume =    717.61212 a.u.^3 (   106.33914 Ang^3 )

CELL_PARAMETERS (alat=  1.88972599)
  -1.455603842  -2.521179999  -0.000000000
   2.911207684  -0.000000000  -0.000000000
   0.000000000  -0.000000000  14.488259390

ATOMIC_POSITIONS (angstrom)
Nb       1.455603842  -2.521179999   4.829419797
Ti       0.000001456  -1.680787507   2.364844529
Ti       1.455603842  -2.521179999   9.608970509
Ti       0.000001456  -1.680787507   7.293995065
Ti       1.455603842  -2.521179999  14.538128474
Nb       0.000001456  -1.680787507  12.073549492


     NEW-OLD atomic charge density approx. for the potential
     extrapolated charge   74.03628, renormalised to   74.00000

     total cpu time spent up to now is    13510.6 secs

     per-process dynamical memory:   352.0 Mb

     Self-consistent Calculation

     iteration #  1     ecut=    40.00 Ry     beta=0.60
     Davidson diagonalization with overlap
     c_bands:  1 eigenvalues not converged
     c_bands:  1 eigenvalues not converged
     c_bands:  1 eigenvalues not converged
     c_bands:  1 eigenvalues not converged
     ethr =  1.00E-06,  avg # of iterations = 11.9

     total cpu time spent up to now is    13786.5 secs

     total energy              =    -702.36420896 Ry
     Harris-Foulkes estimate   =    -702.37071020 Ry
     estimated scf accuracy    <       0.09533793 Ry

     iteration #  2     ecut=    40.00 Ry     beta=0.60
     Davidson diagonalization with overlap
     ethr =  1.29E-04,  avg # of iterations =  6.4

     total cpu time spent up to now is    13968.1 secs

     total energy              =    -701.94231651 Ry
     Harris-Foulkes estimate   =    -702.91801017 Ry
     estimated scf accuracy    <       9.61286406 Ry

     iteration #  3     ecut=    40.00 Ry     beta=0.60
     Davidson diagonalization with overlap
     ethr =  1.29E-04,  avg # of iterations =  6.9

     total cpu time spent up to now is    14123.0 secs

     total energy              =    -702.43505984 Ry
     Harris-Foulkes estimate   =    -702.43566128 Ry
     estimated scf accuracy    <       0.00179485 Ry

     iteration #  4     ecut=    40.00 Ry     beta=0.60
     Davidson diagonalization with overlap
     ethr =  2.43E-06,  avg # of iterations =  8.3

     total cpu time spent up to now is    14263.6 secs

     total energy              =    -702.43379272 Ry
     Harris-Foulkes estimate   =    -702.43724713 Ry
     estimated scf accuracy    <       0.12312995 Ry

     iteration #  5     ecut=    40.00 Ry     beta=0.60
     Davidson diagonalization with overlap
     c_bands:  1 eigenvalues not converged
     c_bands:  1 eigenvalues not converged
     ethr =  2.43E-06,  avg # of iterations =  7.5

     total cpu time spent up to now is    14373.3 secs

     total energy              =    -702.43550713 Ry
     Harris-Foulkes estimate   =    -702.43551627 Ry
     estimated scf accuracy    <       0.00006374 Ry

     iteration #  6     ecut=    40.00 Ry     beta=0.60
     Davidson diagonalization with overlap
     ethr =  8.61E-08,  avg # of iterations =  3.9

     total cpu time spent up to now is    14458.5 secs

     total energy              =    -702.43550780 Ry
     Harris-Foulkes estimate   =    -702.43551599 Ry
     estimated scf accuracy    <       0.00003338 Ry

     iteration #  7     ecut=    40.00 Ry     beta=0.60
     Davidson diagonalization with overlap
     ethr =  4.51E-08,  avg # of iterations =  4.7

     total cpu time spent up to now is    14561.3 secs

     total energy              =    -702.43549380 Ry
     Harris-Foulkes estimate   =    -702.43553366 Ry
     estimated scf accuracy    <       0.00030358 Ry

     iteration #  8     ecut=    40.00 Ry     beta=0.60
     Davidson diagonalization with overlap
     ethr =  4.51E-08,  avg # of iterations =  4.5

     total cpu time spent up to now is    14661.0 secs

     total energy              =    -702.43551410 Ry
     Harris-Foulkes estimate   =    -702.43551430 Ry
     estimated scf accuracy    <       0.00000211 Ry

     iteration #  9     ecut=    40.00 Ry     beta=0.60
     Davidson diagonalization with overlap
     ethr =  2.86E-09,  avg # of iterations =  3.1

     total cpu time spent up to now is    14738.8 secs

     total energy              =    -702.43551429 Ry
     Harris-Foulkes estimate   =    -702.43551430 Ry
     estimated scf accuracy    <       0.00000013 Ry

     iteration # 10     ecut=    40.00 Ry     beta=0.60
     Davidson diagonalization with overlap
     ethr =  1.81E-10,  avg # of iterations =  5.1

     total cpu time spent up to now is    14854.9 secs

     total energy              =    -702.43551434 Ry
     Harris-Foulkes estimate   =    -702.43551435 Ry
     estimated scf accuracy    <       0.00000008 Ry

     iteration # 11     ecut=    40.00 Ry     beta=0.60
     Davidson diagonalization with overlap
     ethr =  1.05E-10,  avg # of iterations =  1.0

     total cpu time spent up to now is    14923.6 secs

     total energy              =    -702.43551434 Ry
     Harris-Foulkes estimate   =    -702.43551435 Ry
     estimated scf accuracy    <       0.00000001 Ry

     iteration # 12     ecut=    40.00 Ry     beta=0.60
     Davidson diagonalization with overlap
     ethr =  1.57E-11,  avg # of iterations =  4.3

     total cpu time spent up to now is    15020.7 secs

     total energy              =    -702.43551435 Ry
     Harris-Foulkes estimate   =    -702.43551435 Ry
     estimated scf accuracy    <          8.1E-09 Ry

     iteration # 13     ecut=    40.00 Ry     beta=0.60
     Davidson diagonalization with overlap
     ethr =  1.09E-11,  avg # of iterations =  1.0

     total cpu time spent up to now is    15089.5 secs

     total energy              =    -702.43551435 Ry
     Harris-Foulkes estimate   =    -702.43551435 Ry
     estimated scf accuracy    <          3.6E-09 Ry

     iteration # 14     ecut=    40.00 Ry     beta=0.60
     Davidson diagonalization with overlap
     ethr =  4.92E-12,  avg # of iterations =  3.1

     total cpu time spent up to now is    15168.2 secs

     total energy              =    -702.43551435 Ry
     Harris-Foulkes estimate   =    -702.43551435 Ry
     estimated scf accuracy    <          7.8E-10 Ry

     iteration # 15     ecut=    40.00 Ry     beta=0.60
     Davidson diagonalization with overlap
     ethr =  1.06E-12,  avg # of iterations =  2.2

     total cpu time spent up to now is    15239.4 secs

     End of self-consistent calculation

     Number of k-points >= 100: set verbosity='high' to print the bands.

     the Fermi energy is    14.9301 ev

!    total energy              =    -702.43551435 Ry
     Harris-Foulkes estimate   =    -702.43551435 Ry
     estimated scf accuracy    <          6.9E-11 Ry

     The total energy is the sum of the following terms:

     one-electron contribution =    -200.72132080 Ry
     hartree contribution      =     128.44125657 Ry
     xc contribution           =     -94.92765781 Ry
     ewald contribution        =    -535.22491333 Ry
     smearing contrib. (-TS)   =      -0.00287898 Ry

     convergence has been achieved in  15 iterations

     Forces acting on atoms (Ry/au):

     atom    1 type  1   force =     0.00000000    0.00000000    0.00000000
     atom    2 type  2   force =    -0.00000000    0.00000000   -0.00363436
     atom    3 type  2   force =    -0.00000000    0.00000000   -0.00363251
     atom    4 type  2   force =     0.00000000    0.00000000    0.00363436
     atom    5 type  2   force =     0.00000000    0.00000000    0.00363251
     atom    6 type  1   force =     0.00000000   -0.00000000    0.00000000

     Total force =     0.007267     Total SCF correction =     0.000043


     entering subroutine stress ...

          total   stress  (Ry/bohr**3)                   (kbar)     P=   -3.94
  -0.00003341   0.00000000  -0.00000000         -4.91      0.00     -0.00
   0.00000000  -0.00003341  -0.00000000          0.00     -4.91     -0.00
  -0.00000000  -0.00000000  -0.00001346         -0.00     -0.00     -1.98


     number of scf cycles    =   6
     number of bfgs steps    =   5

     enthalpy old            =    -702.4346217298 Ry
     enthalpy new            =    -702.4355143468 Ry

     CASE: enthalpy_new < enthalpy_old

     new trust radius        =       0.0224753502 bohr
     new conv_thr            =            1.0E-10 Ry

     new unit-cell volume =    716.14029 a.u.^3 (   106.12104 Ang^3 )

CELL_PARAMETERS (alat=  1.88972599)
  -1.452956900  -2.516595362   0.000000000
   2.905913800  -0.000000000  -0.000000000
  -0.000000000  -0.000000000  14.511271880

ATOMIC_POSITIONS (angstrom)
Nb       1.452956900  -2.516595362   4.837090627
Ti       0.000001453  -1.677731080   2.356688406
Ti       1.452956900  -2.516595362   9.612321279
Ti       0.000001453  -1.677731080   7.317492847
Ti       1.452956900  -2.516595362  14.573131855
Nb       0.000001453  -1.677731080  12.092726567


     NEW-OLD atomic charge density approx. for the potential
     extrapolated charge   73.85615, renormalised to   74.00000

     total cpu time spent up to now is    15308.8 secs

     per-process dynamical memory:   352.0 Mb

     Self-consistent Calculation

     iteration #  1     ecut=    40.00 Ry     beta=0.60
     Davidson diagonalization with overlap
     c_bands:  1 eigenvalues not converged
     c_bands:  1 eigenvalues not converged
     c_bands:  1 eigenvalues not converged
     c_bands:  1 eigenvalues not converged
     ethr =  1.00E-06,  avg # of iterations = 11.2

     total cpu time spent up to now is    15531.5 secs

     total energy              =    -702.39231410 Ry
     Harris-Foulkes estimate   =    -702.71837559 Ry
     estimated scf accuracy    <       0.05511715 Ry

     iteration #  2     ecut=    40.00 Ry     beta=0.60
     Davidson diagonalization with overlap
     ethr =  7.45E-05,  avg # of iterations =  6.8

     total cpu time spent up to now is    65278.6 secs

     total energy              =    -702.16880288 Ry
     Harris-Foulkes estimate   =    -702.72202263 Ry
     estimated scf accuracy    <       5.40900897 Ry

     iteration #  3     ecut=    40.00 Ry     beta=0.60
     Davidson diagonalization with overlap
     ethr =  7.45E-05,  avg # of iterations =  7.0

[...]
     atom    6 type  1   force =     0.00000000    0.00000000    0.00000000

     Total force =     0.000002     Total SCF correction =     0.000002
     SCF correction compared to forces is large: reduce conv_thr to get better values


     entering subroutine stress ...

          total   stress  (Ry/bohr**3)                   (kbar)     P=   -0.00
   0.00000000  -0.00000000  -0.00000000          0.00     -0.00     -0.00
   0.00000000   0.00000000   0.00000000          0.00      0.00      0.00
  -0.00000000  -0.00000000  -0.00000000         -0.00     -0.00     -0.00


     bfgs converged in  13 scf cycles and  12 bfgs steps
     (criteria: energy <  1.0E-10, force <  1.0E-05, cell <  1.0E-03)

     End of BFGS Geometry Optimization

     Final enthalpy =    -702.4357089297 Ry
Begin final coordinates
     new unit-cell volume =    715.41068 a.u.^3 (   106.01292 Ang^3 )

CELL_PARAMETERS (alat=  1.88972599)
  -1.452720770  -2.516186372   0.000000000
   2.905441539  -0.000000000  -0.000000000
   0.000000000  -0.000000000  14.501200821

ATOMIC_POSITIONS (angstrom)
Nb       1.452720770  -2.516186372   4.833733607
Ti       0.000001453  -1.677458420   2.356124265
Ti       1.452720770  -2.516186372   9.606721123
Ti       0.000001453  -1.677458420   7.311342949
Ti       1.452720770  -2.516186372  14.561946912
Nb       0.000001453  -1.677458420  12.084334017
End final coordinates



     A final scf calculation at the relaxed structure.
     The G-vectors are recalculated for the final unit cell
     Results may differ from those at the preceding step.

   Info: using nr1, nr2, nr3 values from input

   Info: using nr1, nr2, nr3 values from input

     G-vector sticks info
     --------------------
     sticks:   dense  smooth     PW     G-vecs:    dense   smooth      PW
     Sum         847     337    109                96769    24315    4249



     bravais-lattice index     =            0
     lattice parameter (alat)  =       1.8897  a.u.
     unit-cell volume          =     715.4107 (a.u.)^3
     number of atoms/cell      =            6
     number of atomic types    =            2
     number of electrons       =        74.00
     number of Kohn-Sham states=           44
     kinetic-energy cutoff     =      40.0000  Ry
     charge density cutoff     =     400.0000  Ry
     convergence threshold     =      1.0E-12
     mixing beta               =       0.6000
     number of iterations used =            8  plain     mixing
     Exchange-correlation      = SLA  PW   PBE  PBE ( 1  4  3  4 0 0)

     celldm(1)=   1.889726  celldm(2)=   0.000000  celldm(3)=   0.000000
     celldm(4)=   0.000000  celldm(5)=   0.000000  celldm(6)=   0.000000

     crystal axes: (cart. coord. in units of alat)
               a(1) = (  -1.452721  -2.516186   0.000000 )  
               a(2) = (   2.905442  -0.000000  -0.000000 )  
               a(3) = (   0.000000  -0.000000  14.501201 )  

     reciprocal axes: (cart. coord. in units 2 pi/alat)
               b(1) = ( -0.000000 -0.397427 -0.000000 )  
               b(2) = (  0.344182 -0.198713 -0.000000 )  
               b(3) = (  0.000000  0.000000  0.068960 )  


     PseudoPot. # 1 for Nb read from file:
     ./Nb.pbe-nsp-van.UPF
     MD5 check sum: 0a22fc7fb0ba19a08ca5db297a5d2854
     Pseudo is Ultrasoft + core correction, Zval = 13.0
     Generated by new atomic code, or converted to UPF format
     Using radial grid of  887 points,  6 beta functions with: 
                l(1) =   0
                l(2) =   0
                l(3) =   1
                l(4) =   1
                l(5) =   2
                l(6) =   2
     Q(r) pseudized with  6 coefficients,  rinner =    1.000   1.000   1.000
                                                       1.000   1.000

     PseudoPot. # 2 for Ti read from file:
     ./Ti.pbe-sp-van_ak.UPF
     MD5 check sum: f98fea3e8887528921fefa5636a534ca
     Pseudo is Ultrasoft, Zval = 12.0
     Generated by new atomic code, or converted to UPF format
     Using radial grid of  851 points,  6 beta functions with: 
                l(1) =   0
                l(2) =   0
                l(3) =   1
                l(4) =   1
                l(5) =   2
                l(6) =   2
     Q(r) pseudized with  8 coefficients,  rinner =    1.000   1.000   1.000
                                                       1.000   1.000

     atomic species   valence    mass     pseudopotential
        Nb            13.00    92.90638     Nb( 1.00)
        Ti            12.00    47.86700     Ti( 1.00)

     12 Sym. Ops. (no inversion) found ( 6 have fractional translation)
          (note: 12 additional sym.ops. were found but ignored
           their fractional translations are incommensurate with FFT grid)


   Cartesian axes

     site n.     atom                  positions (alat units)
         1           Nb  tau(   1) = (   1.4527209  -2.5161866   4.8337340  )
         2           Ti  tau(   2) = (   0.0000015  -1.6774585   2.3561244  )
         3           Ti  tau(   3) = (   1.4527209  -2.5161866   9.6067219  )
         4           Ti  tau(   4) = (   0.0000015  -1.6774585   7.3113435  )
         5           Ti  tau(   5) = (   1.4527209  -2.5161866  14.5619480  )
         6           Nb  tau(   6) = (   0.0000015  -1.6774585  12.0843349  )

     number of k points=   120  Marzari-Vanderbilt smearing, width (Ry)=  0.0200

     Number of k-points >= 100: set verbosity='high' to print them.

     Dense  grid:    96769 G-vectors     FFT dimensions: (  40,  40, 180)

     Smooth grid:    24315 G-vectors     FFT dimensions: (  24,  24, 120)

     Estimated max dynamical RAM per process >     330.19Mb

     Initial potential from superposition of free atoms

     starting charge   69.99436, renormalised to   74.00000
     Starting wfc are   66 randomized atomic wfcs

     total cpu time spent up to now is    75533.1 secs

     per-process dynamical memory:   318.6 Mb

     Self-consistent Calculation

     iteration #  1     ecut=    40.00 Ry     beta=0.60
     Davidson diagonalization with overlap
     c_bands:  2 eigenvalues not converged
     c_bands:  2 eigenvalues not converged
     c_bands:  1 eigenvalues not converged
     c_bands:  1 eigenvalues not converged
     c_bands:  2 eigenvalues not converged
     c_bands:  2 eigenvalues not converged
     c_bands:  1 eigenvalues not converged
     c_bands:  1 eigenvalues not converged
     c_bands:  2 eigenvalues not converged
     c_bands:  2 eigenvalues not converged
     c_bands:  2 eigenvalues not converged
     ethr =  1.00E-06,  avg # of iterations = 13.2

     total cpu time spent up to now is    75823.4 secs

     total energy              =    -667.60253055 Ry
     Harris-Foulkes estimate   =    -709.35270396 Ry
     estimated scf accuracy    <      51.52962410 Ry

     iteration #  2     ecut=    40.00 Ry     beta=0.60
     Davidson diagonalization with overlap
     ethr =  1.00E-02,  avg # of iterations =  8.3

     total cpu time spent up to now is    76040.2 secs

     total energy              =    -647.07966871 Ry
     Harris-Foulkes estimate   =    -784.43620486 Ry
     estimated scf accuracy    <     549.18573128 Ry

     iteration #  3     ecut=    40.00 Ry     beta=0.60
     Davidson diagonalization with overlap
     ethr =  1.00E-02,  avg # of iterations =  5.6

     total cpu time spent up to now is    76192.1 secs

     total energy              =    -700.28955713 Ry
     Harris-Foulkes estimate   =    -704.70493100 Ry
     estimated scf accuracy    <      32.34927785 Ry

     iteration #  4     ecut=    40.00 Ry     beta=0.60
     Davidson diagonalization with overlap
     ethr =  1.00E-02,  avg # of iterations =  4.5

     total cpu time spent up to now is    76274.1 secs

     total energy              =    -702.22035085 Ry
     Harris-Foulkes estimate   =    -702.43589824 Ry
     estimated scf accuracy    <       0.56085195 Ry

     iteration #  5     ecut=    40.00 Ry     beta=0.60
     Davidson diagonalization with overlap
     ethr =  7.58E-04,  avg # of iterations =  5.8

     total cpu time spent up to now is    76377.3 secs

     total energy              =    -702.06014974 Ry
     Harris-Foulkes estimate   =    -702.57862720 Ry
     estimated scf accuracy    <       2.70686375 Ry

     iteration #  6     ecut=    40.00 Ry     beta=0.60
     Davidson diagonalization with overlap
     ethr =  7.58E-04,  avg # of iterations =  6.2

     total cpu time spent up to now is    76479.1 secs

     total energy              =    -702.49056055 Ry
     Harris-Foulkes estimate   =    -702.56612439 Ry
     estimated scf accuracy    <       3.52855659 Ry

     iteration #  7     ecut=    40.00 Ry     beta=0.60
     Davidson diagonalization with overlap
     ethr =  7.58E-04,  avg # of iterations =  1.3

     total cpu time spent up to now is    76541.7 secs

     total energy              =    -702.37513893 Ry
     Harris-Foulkes estimate   =    -702.55053134 Ry
     estimated scf accuracy    <       3.27965322 Ry

     iteration #  8     ecut=    40.00 Ry     beta=0.60
     Davidson diagonalization with overlap
     ethr =  7.58E-04,  avg # of iterations =  3.0

     total cpu time spent up to now is    76609.8 secs

     total energy              =    -702.38890519 Ry
     Harris-Foulkes estimate   =    -702.45362559 Ry
     estimated scf accuracy    <       0.49659745 Ry

     iteration #  9     ecut=    40.00 Ry     beta=0.60
     Davidson diagonalization with overlap
     ethr =  6.71E-04,  avg # of iterations =  2.8

     total cpu time spent up to now is    76675.6 secs

     total energy              =    -702.42440545 Ry
     Harris-Foulkes estimate   =    -702.42821471 Ry
     estimated scf accuracy    <       0.01989592 Ry

     iteration # 10     ecut=    40.00 Ry     beta=0.60
     Davidson diagonalization with overlap
     ethr =  2.69E-05,  avg # of iterations =  7.3

     total cpu time spent up to now is    76787.0 secs

     total energy              =    -702.42926000 Ry
     Harris-Foulkes estimate   =    -702.43163181 Ry
     estimated scf accuracy    <       0.00983057 Ry

     iteration # 11     ecut=    40.00 Ry     beta=0.60
     Davidson diagonalization with overlap
     ethr =  1.33E-05,  avg # of iterations =  4.6

     total cpu time spent up to now is    76865.9 secs

     total energy              =    -702.43023940 Ry
     Harris-Foulkes estimate   =    -702.43170272 Ry
     estimated scf accuracy    <       0.01508766 Ry

     iteration # 12     ecut=    40.00 Ry     beta=0.60
     Davidson diagonalization with overlap
     ethr =  1.33E-05,  avg # of iterations =  1.3

     total cpu time spent up to now is    76928.6 secs

     total energy              =    -702.43074210 Ry
     Harris-Foulkes estimate   =    -702.43082317 Ry
     estimated scf accuracy    <       0.00090242 Ry

     iteration # 13     ecut=    40.00 Ry     beta=0.60
     Davidson diagonalization with overlap
     c_bands:  1 eigenvalues not converged
     ethr =  1.22E-06,  avg # of iterations =  6.0

     total cpu time spent up to now is    77017.5 secs

     total energy              =    -702.43090824 Ry
     Harris-Foulkes estimate   =    -702.43091364 Ry
     estimated scf accuracy    <       0.00011362 Ry

     iteration # 14     ecut=    40.00 Ry     beta=0.60
     Davidson diagonalization with overlap
     ethr =  1.54E-07,  avg # of iterations =  2.1

     total cpu time spent up to now is    77082.1 secs

     total energy              =    -702.43090674 Ry
     Harris-Foulkes estimate   =    -702.43091157 Ry
     estimated scf accuracy    <       0.00006736 Ry

     iteration # 15     ecut=    40.00 Ry     beta=0.60
     Davidson diagonalization with overlap
     ethr =  9.10E-08,  avg # of iterations =  1.5

     total cpu time spent up to now is    77145.0 secs

     total energy              =    -702.43090722 Ry
     Harris-Foulkes estimate   =    -702.43090856 Ry
     estimated scf accuracy    <       0.00001568 Ry

     iteration # 16     ecut=    40.00 Ry     beta=0.60
     Davidson diagonalization with overlap
     ethr =  2.12E-08,  avg # of iterations =  4.3

     total cpu time spent up to now is    77221.7 secs

     total energy              =    -702.43090895 Ry
     Harris-Foulkes estimate   =    -702.43090896 Ry
     estimated scf accuracy    <       0.00000007 Ry

     iteration # 17     ecut=    40.00 Ry     beta=0.60
     Davidson diagonalization with overlap
     ethr =  9.96E-11,  avg # of iterations =  6.4

     total cpu time spent up to now is    77366.3 secs

     total energy              =    -702.43090915 Ry
     Harris-Foulkes estimate   =    -702.43090918 Ry
     estimated scf accuracy    <       0.00000013 Ry

     iteration # 18     ecut=    40.00 Ry     beta=0.60
     Davidson diagonalization with overlap
     ethr =  9.96E-11,  avg # of iterations =  4.3

     total cpu time spent up to now is    77450.8 secs

     total energy              =    -702.43090915 Ry
     Harris-Foulkes estimate   =    -702.43090920 Ry
     estimated scf accuracy    <       0.00000108 Ry

     iteration # 19     ecut=    40.00 Ry     beta=0.60
     Davidson diagonalization with overlap
     ethr =  9.96E-11,  avg # of iterations =  3.5

     total cpu time spent up to now is    77520.5 secs

     total energy              =    -702.43090917 Ry
     Harris-Foulkes estimate   =    -702.43090917 Ry
     estimated scf accuracy    <          2.3E-09 Ry

     iteration # 20     ecut=    40.00 Ry     beta=0.60
     Davidson diagonalization with overlap
     ethr =  3.16E-12,  avg # of iterations =  5.5

     total cpu time spent up to now is    77624.3 secs

     total energy              =    -702.43090918 Ry
     Harris-Foulkes estimate   =    -702.43090918 Ry
     estimated scf accuracy    <          7.6E-09 Ry

     iteration # 21     ecut=    40.00 Ry     beta=0.60
     Davidson diagonalization with overlap
     ethr =  3.16E-12,  avg # of iterations =  1.5

     total cpu time spent up to now is    77687.1 secs

     total energy              =    -702.43090918 Ry
     Harris-Foulkes estimate   =    -702.43090918 Ry
     estimated scf accuracy    <          2.2E-09 Ry

     iteration # 22     ecut=    40.00 Ry     beta=0.60
     Davidson diagonalization with overlap
     ethr =  2.98E-12,  avg # of iterations =  2.5

     total cpu time spent up to now is    77752.4 secs

     total energy              =    -702.43090918 Ry
     Harris-Foulkes estimate   =    -702.43090918 Ry
     estimated scf accuracy    <          4.0E-10 Ry

     iteration # 23     ecut=    40.00 Ry     beta=0.60
     Davidson diagonalization with overlap
     ethr =  5.40E-13,  avg # of iterations =  4.5

     total cpu time spent up to now is    77836.3 secs

     total energy              =    -702.43090918 Ry
     Harris-Foulkes estimate   =    -702.43090918 Ry
     estimated scf accuracy    <          6.7E-11 Ry

     iteration # 24     ecut=    40.00 Ry     beta=0.60
     Davidson diagonalization with overlap
     ethr =  1.00E-13,  avg # of iterations =  2.0

     total cpu time spent up to now is    77901.0 secs

     total energy              =    -702.43090918 Ry
     Harris-Foulkes estimate   =    -702.43090918 Ry
     estimated scf accuracy    <          1.6E-11 Ry

     iteration # 25     ecut=    40.00 Ry     beta=0.60
     Davidson diagonalization with overlap
     ethr =  1.00E-13,  avg # of iterations =  1.7

     total cpu time spent up to now is    77965.0 secs

     total energy              =    -702.43090918 Ry
     Harris-Foulkes estimate   =    -702.43090918 Ry
     estimated scf accuracy    <          1.7E-12 Ry

     iteration # 26     ecut=    40.00 Ry     beta=0.60
     Davidson diagonalization with overlap
     ethr =  1.00E-13,  avg # of iterations =  1.0

     total cpu time spent up to now is    78027.0 secs

     End of self-consistent calculation

     Number of k-points >= 100: set verbosity='high' to print the bands.

     the Fermi energy is    14.9825 ev

!    total energy              =    -702.43090918 Ry
     Harris-Foulkes estimate   =    -702.43090918 Ry
     estimated scf accuracy    <          3.9E-13 Ry

     The total energy is the sum of the following terms:

     one-electron contribution =    -200.11646345 Ry
     hartree contribution      =     128.29896618 Ry
     xc contribution           =     -94.94128976 Ry
     ewald contribution        =    -535.66926677 Ry
     smearing contrib. (-TS)   =      -0.00285538 Ry

     convergence has been achieved in  26 iterations

     Forces acting on atoms (Ry/au):

     atom    1 type  1   force =    -0.00000000   -0.00000000   -0.00000000
     atom    2 type  2   force =     0.00000000    0.00000000    0.00007538
     atom    3 type  2   force =     0.00000000    0.00000000    0.00007557
     atom    4 type  2   force =    -0.00000000   -0.00000000   -0.00007538
     atom    5 type  2   force =    -0.00000000    0.00000000   -0.00007557
     atom    6 type  1   force =     0.00000000    0.00000000    0.00000000

     Total force =     0.000151     Total SCF correction =     0.000002


     entering subroutine stress ...

          total   stress  (Ry/bohr**3)                   (kbar)     P=   -4.81
  -0.00003449  -0.00000000   0.00000000         -5.07     -0.00      0.00
  -0.00000000  -0.00003449   0.00000000         -0.00     -5.07      0.00
   0.00000000  -0.00000000  -0.00002902          0.00     -0.00     -4.27


     init_run     :     90.67s CPU     91.35s WALL (       2 calls)
     electrons    :  27285.63s CPU  77022.80s WALL (      14 calls)
     update_pot   :    103.17s CPU    103.36s WALL (      12 calls)
     forces       :    318.94s CPU    321.57s WALL (      14 calls)
     stress       :    510.26s CPU    518.90s WALL (      14 calls)

     Called by init_run:
     wfcinit      :     80.89s CPU     81.17s WALL (       2 calls)
     potinit      :      3.12s CPU      3.16s WALL (       2 calls)

     Called by electrons:
     c_bands      :  24119.56s CPU  73750.34s WALL (     288 calls)
     sum_band     :   2908.73s CPU   2965.96s WALL (     288 calls)
     v_of_rho     :     55.66s CPU     57.18s WALL (     297 calls)
     newd         :    205.78s CPU    255.78s WALL (     297 calls)
     mix_rho      :      5.41s CPU      5.43s WALL (     288 calls)

     Called by c_bands:
     init_us_2    :    150.22s CPU    150.76s WALL (   72720 calls)
     cegterg      :  23635.79s CPU  73265.65s WALL (   34560 calls)

     Called by sum_band:
     sum_band:bec :      6.86s CPU      6.88s WALL (   34560 calls)
     addusdens    :    211.14s CPU    259.67s WALL (     288 calls)

     Called by *egterg:
     h_psi        :  12313.41s CPU  12351.18s WALL (  158675 calls)
     s_psi        :   2781.06s CPU  52365.24s WALL (  158675 calls)
     g_psi        :     33.77s CPU     33.89s WALL (  123875 calls)
     cdiaghg      :   1027.42s CPU   1028.35s WALL (  156395 calls)

     Called by h_psi:
     h_psi:pot    :  12270.63s CPU  12308.09s WALL (  158675 calls)
     h_psi:calbec :   3018.70s CPU   3021.20s WALL (  158675 calls)
     vloc_psi     :   6493.47s CPU   6526.96s WALL (  158675 calls)
     add_vuspsi   :   2757.11s CPU   2759.05s WALL (  158675 calls)

     General routines
     calbec       :   4479.74s CPU   4483.61s WALL (  201635 calls)
     fft          :     31.03s CPU     31.46s WALL (    5078 calls)
     ffts         :      0.55s CPU      0.55s WALL (     585 calls)
     fftw         :   6374.26s CPU   6402.65s WALL ( 9345214 calls)
     interpolate  :      4.50s CPU      4.51s WALL (     585 calls)

     Parallel routines
     fft_scatter  :    562.37s CPU    564.66s WALL ( 9350877 calls)

     PWSCF        :     7h51m CPU       21h41m WALL


   This run was terminated on:  13: 1:46   4Mar2020            

=------------------------------------------------------------------------------=
   JOB DONE.
=------------------------------------------------------------------------------=
