
     Program PWSCF v.6.3MaX starts on 25Jan2020 at 11:57: 7 

     This program is part of the open-source Quantum ESPRESSO suite
     for quantum simulation of materials; please cite
         "P. Giannozzi et al., J. Phys.:Condens. Matter 21 395502 (2009);
         "P. Giannozzi et al., J. Phys.:Condens. Matter 29 465901 (2017);
          URL http://www.quantum-espresso.org", 
     in publications or presentations arising from this work. More details at
     http://www.quantum-espresso.org/quote

     Parallel version (MPI), running on     4 processors

     MPI processes distributed on     1 nodes
     R & G space division:  proc/nbgrp/npool/nimage =       4
     Waiting for input...
     Reading input from standard input

     Current dimensions of program PWSCF are:
     Max number of different atomic species (ntypx) = 10
     Max number of k-points (npk) =  40000
     Max angular momentum in pseudopotentials (lmaxx) =  3
     Message from routine iosys:
     minimal I/O required, wf_collect reset to FALSE

     Subspace diagonalization in iterative solution of the eigenvalue problem:
     a serial algorithm will be used

 
     Parallelization info
     --------------------
     sticks:   dense  smooth     PW     G-vecs:    dense   smooth      PW
     Min         538     213     65                41532    10511    1712
     Max         539     214     66                41537    10516    1713
     Sum        2155     855    261               166137    42059    6851
 


     bravais-lattice index     =            0
     lattice parameter (alat)  =       1.8897  a.u.
     unit-cell volume          =     880.0102 (a.u.)^3
     number of atoms/cell      =            6
     number of atomic types    =            2
     number of electrons       =        77.00
     number of Kohn-Sham states=           47
     kinetic-energy cutoff     =      50.0000  Ry
     charge density cutoff     =     500.0000  Ry
     convergence threshold     =      1.0E-10
     mixing beta               =       0.6000
     number of iterations used =            8  plain     mixing
     Exchange-correlation      = SLA PW PBE PBE ( 1  4  3  4 0 0)
     nstep                     =           50


     celldm(1)=   1.889726  celldm(2)=   0.000000  celldm(3)=   0.000000
     celldm(4)=   0.000000  celldm(5)=   0.000000  celldm(6)=   0.000000

     crystal axes: (cart. coord. in units of alat)
               a(1) = (  -1.758031  -1.758031   1.758031 )  
               a(2) = (   3.516063  -3.516063   0.000000 )  
               a(3) = (   3.516063   3.516063   7.032126 )  

     reciprocal axes: (cart. coord. in units 2 pi/alat)
               b(1) = ( -0.189606 -0.189606  0.189606 )  
               b(2) = (  0.142205 -0.142205  0.000000 )  
               b(3) = (  0.047402  0.047402  0.094803 )  


     PseudoPot. # 1 for Nb read from file:
     ./Nb.pbe-nsp-van.UPF
     MD5 check sum: 0a22fc7fb0ba19a08ca5db297a5d2854
     Pseudo is Ultrasoft + core correction, Zval = 13.0
     Generated by new atomic code, or converted to UPF format
     Using radial grid of  887 points,  6 beta functions with: 
                l(1) =   0
                l(2) =   0
                l(3) =   1
                l(4) =   1
                l(5) =   2
                l(6) =   2
     Q(r) pseudized with  6 coefficients,  rinner =    1.000   1.000   1.000
                                                       1.000   1.000

     PseudoPot. # 2 for Ti read from file:
     ./Ti.pbe-sp-van_ak.UPF
     MD5 check sum: f98fea3e8887528921fefa5636a534ca
     Pseudo is Ultrasoft, Zval = 12.0
     Generated by new atomic code, or converted to UPF format
     Using radial grid of  851 points,  6 beta functions with: 
                l(1) =   0
                l(2) =   0
                l(3) =   1
                l(4) =   1
                l(5) =   2
                l(6) =   2
     Q(r) pseudized with  8 coefficients,  rinner =    1.000   1.000   1.000
                                                       1.000   1.000

     atomic species   valence    mass     pseudopotential
        Nb            13.00    92.90638     Nb( 1.00)
        Ti            12.00    47.86700     Ti( 1.00)

      4 Sym. Ops., with inversion, found ( 2 have fractional translation)



   Cartesian axes

     site n.     atom                  positions (alat units)
         1           Ti  tau(   1) = (   3.5160633  -3.5160633   3.5160633  )
         2           Nb  tau(   2) = (   1.7580316  -1.7580316   5.2740949  )
         3           Nb  tau(   3) = (   5.2740949  -1.7580316   5.2740949  )
         4           Nb  tau(   4) = (   3.5160633   0.0000000   7.0321265  )
         5           Nb  tau(   5) = (   5.2740949  -1.7580316   8.7901582  )
         6           Nb  tau(   6) = (   1.7580316  -1.7580316   1.7580316  )

     number of k points=   384  Marzari-Vanderbilt smearing, width (Ry)=  0.0200

     Number of k-points >= 100: set verbosity='high' to print them.

     Dense  grid:   166137 G-vectors     FFT dimensions: (  45,  72, 120)

     Smooth grid:    42059 G-vectors     FFT dimensions: (  25,  45,  75)

     Estimated max dynamical RAM per process >     520.21 MB

     Estimated total dynamical RAM >       2.03 GB

     Initial potential from superposition of free atoms

     starting charge   75.98629, renormalised to   77.00000
     Starting wfcs are   75 randomized atomic wfcs

     total cpu time spent up to now is       29.6 secs

     Self-consistent Calculation

     iteration #  1     ecut=    50.00 Ry     beta= 0.60
     Davidson diagonalization with overlap
     ethr =  1.00E-02,  avg # of iterations =  2.6

     total cpu time spent up to now is       82.3 secs

     total energy              =    -648.16803224 Ry
     Harris-Foulkes estimate   =    -711.19235792 Ry
     estimated scf accuracy    <      77.23631247 Ry

     iteration #  2     ecut=    50.00 Ry     beta= 0.60
     Davidson diagonalization with overlap
     ethr =  1.00E-02,  avg # of iterations =  8.5

     total cpu time spent up to now is      208.5 secs

     total energy              =    -656.58887242 Ry
     Harris-Foulkes estimate   =    -850.84579573 Ry
     estimated scf accuracy    <     773.90086121 Ry

     iteration #  3     ecut=    50.00 Ry     beta= 0.60
     Davidson diagonalization with overlap
     ethr =  1.00E-02,  avg # of iterations =  7.2

     total cpu time spent up to now is      819.2 secs

     total energy              =    -698.39776281 Ry
     Harris-Foulkes estimate   =    -722.04865367 Ry
     estimated scf accuracy    <     106.65043141 Ry

     iteration #  4     ecut=    50.00 Ry     beta= 0.60
     Davidson diagonalization with overlap
     ethr =  1.00E-02,  avg # of iterations =  4.8

     total cpu time spent up to now is     1017.3 secs

     total energy              =    -708.61000900 Ry
     Harris-Foulkes estimate   =    -712.04147853 Ry
     estimated scf accuracy    <      55.46316209 Ry

     iteration #  5     ecut=    50.00 Ry     beta= 0.60
     Davidson diagonalization with overlap
     ethr =  1.00E-02,  avg # of iterations =  1.5

     total cpu time spent up to now is     1073.4 secs

     total energy              =    -708.20959536 Ry
     Harris-Foulkes estimate   =    -709.15300066 Ry
     estimated scf accuracy    <      27.58232407 Ry

     iteration #  6     ecut=    50.00 Ry     beta= 0.60
     Davidson diagonalization with overlap
     ethr =  1.00E-02,  avg # of iterations =  1.1

     total cpu time spent up to now is     1119.2 secs

     total energy              =    -708.07121212 Ry
     Harris-Foulkes estimate   =    -708.35969855 Ry
     estimated scf accuracy    <      16.51610559 Ry

     iteration #  7     ecut=    50.00 Ry     beta= 0.60
     Davidson diagonalization with overlap
     ethr =  1.00E-02,  avg # of iterations =  1.0

     total cpu time spent up to now is     1163.5 secs

     total energy              =    -706.84267611 Ry
     Harris-Foulkes estimate   =    -708.09929843 Ry
     estimated scf accuracy    <      14.28570437 Ry

     iteration #  8     ecut=    50.00 Ry     beta= 0.60
     Davidson diagonalization with overlap
     ethr =  1.00E-02,  avg # of iterations =  1.1

     total cpu time spent up to now is     1206.7 secs

     total energy              =    -706.45391213 Ry
     Harris-Foulkes estimate   =    -706.96045293 Ry
     estimated scf accuracy    <       8.23070666 Ry

     iteration #  9     ecut=    50.00 Ry     beta= 0.60
     Davidson diagonalization with overlap
     ethr =  1.00E-02,  avg # of iterations =  1.0

     total cpu time spent up to now is     1251.6 secs

     total energy              =    -705.74302261 Ry
     Harris-Foulkes estimate   =    -706.51240218 Ry
     estimated scf accuracy    <       5.80375292 Ry

     iteration # 10     ecut=    50.00 Ry     beta= 0.60
     Davidson diagonalization with overlap
     ethr =  7.54E-03,  avg # of iterations =  3.1

     total cpu time spent up to now is     1301.2 secs

     total energy              =    -705.95687858 Ry
     Harris-Foulkes estimate   =    -706.06608778 Ry
     estimated scf accuracy    <       0.17352303 Ry

     iteration # 11     ecut=    50.00 Ry     beta= 0.60
     Davidson diagonalization with overlap
     ethr =  2.25E-04,  avg # of iterations =  5.1

     total cpu time spent up to now is     1395.3 secs

     total energy              =    -704.23069412 Ry
     Harris-Foulkes estimate   =    -709.11237782 Ry
     estimated scf accuracy    <      52.81242144 Ry

     iteration # 12     ecut=    50.00 Ry     beta= 0.60
     Davidson diagonalization with overlap
     ethr =  2.25E-04,  avg # of iterations =  6.0

     total cpu time spent up to now is     1507.7 secs

     total energy              =    -706.24769851 Ry
     Harris-Foulkes estimate   =    -706.21715546 Ry
     estimated scf accuracy    <       0.12038270 Ry

     iteration # 13     ecut=    50.00 Ry     beta= 0.60
     Davidson diagonalization with overlap
     ethr =  1.56E-04,  avg # of iterations =  6.2

     total cpu time spent up to now is     1581.3 secs

     total energy              =    -706.33845766 Ry
     Harris-Foulkes estimate   =    -706.28800243 Ry
     estimated scf accuracy    <       0.87045234 Ry

     iteration # 14     ecut=    50.00 Ry     beta= 0.60
     Davidson diagonalization with overlap
     ethr =  1.56E-04,  avg # of iterations =  1.4

     total cpu time spent up to now is     1626.6 secs

     total energy              =    -706.30945639 Ry
     Harris-Foulkes estimate   =    -706.34366496 Ry
     estimated scf accuracy    <       1.25412299 Ry

     iteration # 15     ecut=    50.00 Ry     beta= 0.60
     Davidson diagonalization with overlap
     ethr =  1.56E-04,  avg # of iterations =  1.0

     total cpu time spent up to now is     1669.4 secs

     total energy              =    -706.31670349 Ry
     Harris-Foulkes estimate   =    -706.31078267 Ry
     estimated scf accuracy    <       1.06534567 Ry

     iteration # 16     ecut=    50.00 Ry     beta= 0.60
     Davidson diagonalization with overlap
     ethr =  1.56E-04,  avg # of iterations =  1.0

     total cpu time spent up to now is     1734.2 secs

     total energy              =    -706.27778879 Ry
     Harris-Foulkes estimate   =    -706.31718789 Ry
     estimated scf accuracy    <       1.15783218 Ry

     iteration # 17     ecut=    50.00 Ry     beta= 0.60
     Davidson diagonalization with overlap
     ethr =  1.56E-04,  avg # of iterations =  1.0

     total cpu time spent up to now is     1779.9 secs

     total energy              =    -706.28399643 Ry
     Harris-Foulkes estimate   =    -706.27974978 Ry
     estimated scf accuracy    <       0.90219729 Ry

     iteration # 18     ecut=    50.00 Ry     beta= 0.60
     Davidson diagonalization with overlap
     ethr =  1.56E-04,  avg # of iterations =  1.0

     total cpu time spent up to now is     1826.3 secs

     total energy              =    -706.20523493 Ry
     Harris-Foulkes estimate   =    -706.28415777 Ry
     estimated scf accuracy    <       0.92994629 Ry

     iteration # 19     ecut=    50.00 Ry     beta= 0.60
     Davidson diagonalization with overlap
     ethr =  1.56E-04,  avg # of iterations =  4.5

     total cpu time spent up to now is     1889.1 secs

     total energy              =    -706.20732362 Ry
     Harris-Foulkes estimate   =    -706.22714760 Ry
     estimated scf accuracy    <       0.60948383 Ry

     iteration # 20     ecut=    50.00 Ry     beta= 0.60
     Davidson diagonalization with overlap
     ethr =  1.56E-04,  avg # of iterations =  2.0

     total cpu time spent up to now is     1939.3 secs

     total energy              =    -706.09015864 Ry
     Harris-Foulkes estimate   =    -706.21843071 Ry
     estimated scf accuracy    <       0.34143049 Ry

     iteration # 21     ecut=    50.00 Ry     beta= 0.60
     Davidson diagonalization with overlap
     ethr =  1.56E-04,  avg # of iterations =  5.1

     total cpu time spent up to now is     2049.8 secs

     total energy              =    -705.81341094 Ry
     Harris-Foulkes estimate   =    -706.32024369 Ry
     estimated scf accuracy    <       4.29559851 Ry

     iteration # 22     ecut=    50.00 Ry     beta= 0.60
     Davidson diagonalization with overlap
     ethr =  1.56E-04,  avg # of iterations =  8.0

     total cpu time spent up to now is     2146.1 secs

     total energy              =    -706.15521312 Ry
     Harris-Foulkes estimate   =    -706.24305627 Ry
     estimated scf accuracy    <       0.72387504 Ry

     iteration # 23     ecut=    50.00 Ry     beta= 0.60
     Davidson diagonalization with overlap
     ethr =  1.56E-04,  avg # of iterations =  5.8

     total cpu time spent up to now is     2218.5 secs

     total energy              =    -706.18367380 Ry
     Harris-Foulkes estimate   =    -706.18391569 Ry
     estimated scf accuracy    <       0.02189831 Ry

     iteration # 24     ecut=    50.00 Ry     beta= 0.60
     Davidson diagonalization with overlap
     ethr =  2.84E-05,  avg # of iterations =  2.1

     total cpu time spent up to now is     2275.0 secs

     total energy              =    -706.18170554 Ry
     Harris-Foulkes estimate   =    -706.18382274 Ry
     estimated scf accuracy    <       0.02186862 Ry

     iteration # 25     ecut=    50.00 Ry     beta= 0.60
     Davidson diagonalization with overlap
     ethr =  2.84E-05,  avg # of iterations =  1.6

     total cpu time spent up to now is     2320.4 secs

     total energy              =    -706.18243781 Ry
     Harris-Foulkes estimate   =    -706.18254751 Ry
     estimated scf accuracy    <       0.00041214 Ry

     iteration # 26     ecut=    50.00 Ry     beta= 0.60
     Davidson diagonalization with overlap
     ethr =  5.35E-07,  avg # of iterations =  6.2

     total cpu time spent up to now is     2406.0 secs

     total energy              =    -706.18266942 Ry
     Harris-Foulkes estimate   =    -706.18289384 Ry
     estimated scf accuracy    <       0.00327432 Ry

     iteration # 27     ecut=    50.00 Ry     beta= 0.60
     Davidson diagonalization with overlap
     ethr =  5.35E-07,  avg # of iterations =  3.5

     total cpu time spent up to now is     2455.2 secs

     total energy              =    -706.18271506 Ry
     Harris-Foulkes estimate   =    -706.18274098 Ry
     estimated scf accuracy    <       0.00033248 Ry

     iteration # 28     ecut=    50.00 Ry     beta= 0.60
     Davidson diagonalization with overlap
     ethr =  4.32E-07,  avg # of iterations =  2.8

     total cpu time spent up to now is     2503.0 secs

     total energy              =    -706.18273509 Ry
     Harris-Foulkes estimate   =    -706.18273497 Ry
     estimated scf accuracy    <       0.00000370 Ry

     iteration # 29     ecut=    50.00 Ry     beta= 0.60
     Davidson diagonalization with overlap
     ethr =  4.81E-09,  avg # of iterations =  5.1

     total cpu time spent up to now is     2570.8 secs

     total energy              =    -706.18273735 Ry
     Harris-Foulkes estimate   =    -706.18273749 Ry
     estimated scf accuracy    <       0.00000199 Ry

     iteration # 30     ecut=    50.00 Ry     beta= 0.60
     Davidson diagonalization with overlap
     ethr =  2.59E-09,  avg # of iterations =  1.0

     total cpu time spent up to now is     2612.0 secs

     total energy              =    -706.18273732 Ry
     Harris-Foulkes estimate   =    -706.18273739 Ry
     estimated scf accuracy    <       0.00000059 Ry

     iteration # 31     ecut=    50.00 Ry     beta= 0.60
     Davidson diagonalization with overlap
     ethr =  7.63E-10,  avg # of iterations =  3.6

     total cpu time spent up to now is     2663.2 secs

     total energy              =    -706.18273739 Ry
     Harris-Foulkes estimate   =    -706.18273740 Ry
     estimated scf accuracy    <       0.00000033 Ry

     iteration # 32     ecut=    50.00 Ry     beta= 0.60
     Davidson diagonalization with overlap
     ethr =  4.32E-10,  avg # of iterations =  1.0

     total cpu time spent up to now is     2704.3 secs

     total energy              =    -706.18273739 Ry
     Harris-Foulkes estimate   =    -706.18273739 Ry
     estimated scf accuracy    <       0.00000010 Ry

     iteration # 33     ecut=    50.00 Ry     beta= 0.60
     Davidson diagonalization with overlap
     ethr =  1.32E-10,  avg # of iterations =  1.9

     total cpu time spent up to now is     2747.5 secs

     total energy              =    -706.18273739 Ry
     Harris-Foulkes estimate   =    -706.18273739 Ry
     estimated scf accuracy    <       0.00000004 Ry

     iteration # 34     ecut=    50.00 Ry     beta= 0.60
     Davidson diagonalization with overlap
     ethr =  5.61E-11,  avg # of iterations =  2.2

     total cpu time spent up to now is     2791.6 secs

     total energy              =    -706.18273739 Ry
     Harris-Foulkes estimate   =    -706.18273739 Ry
     estimated scf accuracy    <          3.2E-09 Ry

     iteration # 35     ecut=    50.00 Ry     beta= 0.60
     Davidson diagonalization with overlap
     ethr =  4.18E-12,  avg # of iterations =  4.1

     total cpu time spent up to now is     2847.6 secs

     total energy              =    -706.18273739 Ry
     Harris-Foulkes estimate   =    -706.18273739 Ry
     estimated scf accuracy    <          1.7E-10 Ry

     iteration # 36     ecut=    50.00 Ry     beta= 0.60
     Davidson diagonalization with overlap
     ethr =  2.24E-13,  avg # of iterations =  3.3

     total cpu time spent up to now is     2898.2 secs

     End of self-consistent calculation

     Number of k-points >= 100: set verbosity='high' to print the bands.

     the Fermi energy is    13.6500 ev

!    total energy              =    -706.18273739 Ry
     Harris-Foulkes estimate   =    -706.18273739 Ry
     estimated scf accuracy    <          9.5E-12 Ry

     The total energy is the sum of the following terms:

     one-electron contribution =    -173.17545211 Ry
     hartree contribution      =     113.95179973 Ry
     xc contribution           =    -105.62436225 Ry
     ewald contribution        =    -541.33555629 Ry
     smearing contrib. (-TS)   =       0.00083353 Ry

     convergence has been achieved in  36 iterations

     Forces acting on atoms (cartesian axes, Ry/au):

     atom    1 type  2   force =     0.00000000    0.00000000    0.00000000
     atom    2 type  1   force =    -0.00368686   -0.00368686    0.00949052
     atom    3 type  1   force =     0.00476040    0.00476040    0.00038266
     atom    4 type  1   force =     0.00000000    0.00000000    0.00000000
     atom    5 type  1   force =    -0.00476040   -0.00476040   -0.00038266
     atom    6 type  1   force =     0.00368686    0.00368686   -0.00949052

     Total force =     0.018040     Total SCF correction =     0.000005


     Computing stress (Cartesian axis) and pressure

          total   stress  (Ry/bohr**3)                   (kbar)     P= -214.99
  -0.00145938  -0.00000671   0.00001362       -214.68     -0.99      2.00
  -0.00000671  -0.00145938   0.00001362         -0.99   -214.68      2.00
   0.00001362   0.00001362  -0.00146559          2.00      2.00   -215.60


     BFGS Geometry Optimization

     number of scf cycles    =   1
     number of bfgs steps    =   0

     enthalpy new            =    -706.1827373900 Ry

     new trust radius        =       0.2174021404 bohr
     new conv_thr            =            1.0E-10 Ry

     new unit-cell volume =    787.03422 a.u.^3 (   116.62644 Ang^3 )
     density =      7.29559 g/cm^3

CELL_PARAMETERS (alat=  1.88972599)
  -1.692996592  -1.692996592   1.692420211
   3.388370953  -3.388370953   0.000000000
   3.389585569   3.389585569   6.776865613

ATOMIC_POSITIONS (angstrom)
Ti       3.389568414  -3.387173492   3.387235345
Nb       1.694103886  -1.694267067   5.085689844
Nb       5.086189300  -1.690552607   5.082247271
Nb       3.390175722   0.001804769   6.775668152
Nb       5.082533098  -1.694208808   8.469089033
Nb       1.696661990  -1.691708963   1.688780847


     NEW-OLD atomic charge density approx. for the potential
     extrapolated charge   68.02339, renormalised to   77.00000

     total cpu time spent up to now is     2925.5 secs

     Self-consistent Calculation

     iteration #  1     ecut=    50.00 Ry     beta= 0.60
     Davidson diagonalization with overlap
     c_bands:  1 eigenvalues not converged
     c_bands:  1 eigenvalues not converged
     c_bands:  1 eigenvalues not converged
     c_bands:  1 eigenvalues not converged
     c_bands:  1 eigenvalues not converged
     c_bands:  1 eigenvalues not converged
     c_bands:  1 eigenvalues not converged
     c_bands:  1 eigenvalues not converged
     c_bands:  1 eigenvalues not converged
     c_bands:  2 eigenvalues not converged
     c_bands:  2 eigenvalues not converged
     c_bands:  1 eigenvalues not converged
     c_bands:  1 eigenvalues not converged
     c_bands:  1 eigenvalues not converged
     c_bands:  1 eigenvalues not converged
     c_bands:  1 eigenvalues not converged
     c_bands:  1 eigenvalues not converged
     c_bands:  1 eigenvalues not converged
     c_bands:  1 eigenvalues not converged
     c_bands:  1 eigenvalues not converged
     c_bands:  1 eigenvalues not converged
     c_bands:  1 eigenvalues not converged
     c_bands:  1 eigenvalues not converged
     c_bands:  1 eigenvalues not converged
     c_bands:  2 eigenvalues not converged
     c_bands:  1 eigenvalues not converged
     c_bands:  1 eigenvalues not converged
     c_bands:  1 eigenvalues not converged
     c_bands:  1 eigenvalues not converged
     c_bands:  1 eigenvalues not converged
     c_bands:  1 eigenvalues not converged
     c_bands:  1 eigenvalues not converged
     c_bands:  1 eigenvalues not converged
     c_bands:  1 eigenvalues not converged
     c_bands:  1 eigenvalues not converged
     c_bands:  1 eigenvalues not converged
     c_bands:  1 eigenvalues not converged
     c_bands:  1 eigenvalues not converged
     c_bands:  1 eigenvalues not converged
     c_bands:  1 eigenvalues not converged
     c_bands:  1 eigenvalues not converged
     c_bands:  1 eigenvalues not converged
     c_bands:  1 eigenvalues not converged
     c_bands:  1 eigenvalues not converged
     c_bands:  1 eigenvalues not converged
     ethr =  1.00E-06,  avg # of iterations = 14.7

     total cpu time spent up to now is     3099.3 secs

     total energy              =    -683.97464032 Ry
     Harris-Foulkes estimate   =    -719.08356469 Ry
     estimated scf accuracy    <      24.60292990 Ry

     iteration #  2     ecut=    50.00 Ry     beta= 0.60
     Davidson diagonalization with overlap
     ethr =  1.00E-02,  avg # of iterations =  5.0

     total cpu time spent up to now is     3189.3 secs

     total energy              =    -696.68243519 Ry
     Harris-Foulkes estimate   =    -736.52177280 Ry
     estimated scf accuracy    <     128.23386320 Ry

     iteration #  3     ecut=    50.00 Ry     beta= 0.60
     Davidson diagonalization with overlap
     ethr =  1.00E-02,  avg # of iterations =  5.0

     total cpu time spent up to now is     3266.0 secs

     total energy              =    -707.46054023 Ry
     Harris-Foulkes estimate   =    -710.38567204 Ry
     estimated scf accuracy    <      12.74956410 Ry

     iteration #  4     ecut=    50.00 Ry     beta= 0.60
     Davidson diagonalization with overlap
     ethr =  1.00E-02,  avg # of iterations =  3.1

     total cpu time spent up to now is     3319.6 secs

     total energy              =    -707.36849828 Ry
     Harris-Foulkes estimate   =    -709.30905671 Ry
     estimated scf accuracy    <      16.28982787 Ry

     iteration #  5     ecut=    50.00 Ry     beta= 0.60
     Davidson diagonalization with overlap
     ethr =  1.00E-02,  avg # of iterations =  1.8

     total cpu time spent up to now is     3363.3 secs

     total energy              =    -707.36640473 Ry
     Harris-Foulkes estimate   =    -708.14264935 Ry
     estimated scf accuracy    <       6.66692406 Ry

     iteration #  6     ecut=    50.00 Ry     beta= 0.60
     Davidson diagonalization with overlap
     ethr =  8.66E-03,  avg # of iterations =  1.0

     total cpu time spent up to now is     3404.7 secs

     total energy              =    -706.53805039 Ry
     Harris-Foulkes estimate   =    -707.52833094 Ry
     estimated scf accuracy    <       4.57022642 Ry

     iteration #  7     ecut=    50.00 Ry     beta= 0.60
     Davidson diagonalization with overlap
     ethr =  5.94E-03,  avg # of iterations =  1.2

     total cpu time spent up to now is     3446.6 secs

     total energy              =    -706.34103901 Ry
     Harris-Foulkes estimate   =    -706.62934066 Ry
     estimated scf accuracy    <       2.31325406 Ry

     iteration #  8     ecut=    50.00 Ry     beta= 0.60
     Davidson diagonalization with overlap
     ethr =  3.00E-03,  avg # of iterations =  2.5

     total cpu time spent up to now is     3492.3 secs

     total energy              =    -706.63597049 Ry
     Harris-Foulkes estimate   =    -706.42316671 Ry
     estimated scf accuracy    <       1.03457112 Ry

     iteration #  9     ecut=    50.00 Ry     beta= 0.60
     Davidson diagonalization with overlap
     ethr =  1.34E-03,  avg # of iterations =  2.0

     total cpu time spent up to now is     3536.4 secs

     total energy              =    -706.50657869 Ry
     Harris-Foulkes estimate   =    -706.68367948 Ry
     estimated scf accuracy    <       2.02637773 Ry

     iteration # 10     ecut=    50.00 Ry     beta= 0.60
     Davidson diagonalization with overlap
     ethr =  1.34E-03,  avg # of iterations =  1.0

     total cpu time spent up to now is     3578.1 secs

     total energy              =    -705.90898567 Ry
     Harris-Foulkes estimate   =    -706.51571261 Ry
     estimated scf accuracy    <       1.55797571 Ry

     iteration # 11     ecut=    50.00 Ry     beta= 0.60
     Davidson diagonalization with overlap
     ethr =  1.34E-03,  avg # of iterations =  4.7

     total cpu time spent up to now is     3653.2 secs

     total energy              =    -706.39276837 Ry
     Harris-Foulkes estimate   =    -706.66915743 Ry
     estimated scf accuracy    <       9.92459424 Ry

     iteration # 12     ecut=    50.00 Ry     beta= 0.60
     Davidson diagonalization with overlap
     ethr =  1.34E-03,  avg # of iterations =  1.0

     total cpu time spent up to now is     3694.6 secs

     total energy              =    -706.44273000 Ry
     Harris-Foulkes estimate   =    -706.43960637 Ry
     estimated scf accuracy    <       4.25236125 Ry

     iteration # 13     ecut=    50.00 Ry     beta= 0.60
     Davidson diagonalization with overlap
     ethr =  1.34E-03,  avg # of iterations =  1.0

     total cpu time spent up to now is     3736.0 secs

     total energy              =    -706.49236920 Ry
     Harris-Foulkes estimate   =    -706.44429786 Ry
     estimated scf accuracy    <       4.31661258 Ry

     iteration # 14     ecut=    50.00 Ry     beta= 0.60
     Davidson diagonalization with overlap
     ethr =  1.34E-03,  avg # of iterations =  1.0

     total cpu time spent up to now is     3777.6 secs

     total energy              =    -706.51897862 Ry
     Harris-Foulkes estimate   =    -706.49573421 Ry
     estimated scf accuracy    <       5.43887835 Ry

     iteration # 15     ecut=    50.00 Ry     beta= 0.60
     Davidson diagonalization with overlap
     ethr =  1.34E-03,  avg # of iterations =  1.0

     total cpu time spent up to now is     3819.0 secs

     total energy              =    -706.56662194 Ry
     Harris-Foulkes estimate   =    -706.51982892 Ry
     estimated scf accuracy    <       5.96323693 Ry

     iteration # 16     ecut=    50.00 Ry     beta= 0.60
     Davidson diagonalization with overlap
     ethr =  1.34E-03,  avg # of iterations =  1.0

     total cpu time spent up to now is     3860.5 secs

     total energy              =    -705.98134553 Ry
     Harris-Foulkes estimate   =    -706.56913444 Ry
     estimated scf accuracy    <       6.99819588 Ry

     iteration # 17     ecut=    50.00 Ry     beta= 0.60
     Davidson diagonalization with overlap
     ethr =  1.34E-03,  avg # of iterations =  2.8

     total cpu time spent up to now is     3906.9 secs

     total energy              =    -706.28017174 Ry
     Harris-Foulkes estimate   =    -706.28124162 Ry
     estimated scf accuracy    <       0.00992455 Ry

     iteration # 18     ecut=    50.00 Ry     beta= 0.60
     Davidson diagonalization with overlap
     ethr =  1.29E-05,  avg # of iterations =  6.6

     total cpu time spent up to now is     3994.9 secs

     total energy              =    -706.28461811 Ry
     Harris-Foulkes estimate   =    -706.29251633 Ry
     estimated scf accuracy    <       0.07433837 Ry

     iteration # 19     ecut=    50.00 Ry     beta= 0.60
     Davidson diagonalization with overlap
     ethr =  1.29E-05,  avg # of iterations =  5.5

     total cpu time spent up to now is     4058.7 secs

     total energy              =    -706.28873610 Ry
     Harris-Foulkes estimate   =    -706.29021694 Ry
     estimated scf accuracy    <       0.01049903 Ry

     iteration # 20     ecut=    50.00 Ry     beta= 0.60
     Davidson diagonalization with overlap
     ethr =  1.29E-05,  avg # of iterations =  1.0

     total cpu time spent up to now is     4100.2 secs

     total energy              =    -706.28930762 Ry
     Harris-Foulkes estimate   =    -706.28939167 Ry
     estimated scf accuracy    <       0.00104878 Ry

     iteration # 21     ecut=    50.00 Ry     beta= 0.60
     Davidson diagonalization with overlap
     ethr =  1.36E-06,  avg # of iterations =  4.9

     total cpu time spent up to now is     4164.3 secs

     total energy              =    -706.28947481 Ry
     Harris-Foulkes estimate   =    -706.28949420 Ry
     estimated scf accuracy    <       0.00043722 Ry

     iteration # 22     ecut=    50.00 Ry     beta= 0.60
     Davidson diagonalization with overlap
     ethr =  5.68E-07,  avg # of iterations =  1.0

     total cpu time spent up to now is     4205.8 secs

     total energy              =    -706.28947793 Ry
     Harris-Foulkes estimate   =    -706.28948975 Ry
     estimated scf accuracy    <       0.00025810 Ry

     iteration # 23     ecut=    50.00 Ry     beta= 0.60
     Davidson diagonalization with overlap
     ethr =  3.35E-07,  avg # of iterations =  1.2

     total cpu time spent up to now is     4247.6 secs

     total energy              =    -706.28945612 Ry
     Harris-Foulkes estimate   =    -706.28948249 Ry
     estimated scf accuracy    <       0.00021560 Ry

     iteration # 24     ecut=    50.00 Ry     beta= 0.60
     Davidson diagonalization with overlap
     ethr =  2.80E-07,  avg # of iterations =  1.0

     total cpu time spent up to now is     4289.0 secs

     total energy              =    -706.28945127 Ry
     Harris-Foulkes estimate   =    -706.28946167 Ry
     estimated scf accuracy    <       0.00008420 Ry

     iteration # 25     ecut=    50.00 Ry     beta= 0.60
     Davidson diagonalization with overlap
     ethr =  1.09E-07,  avg # of iterations =  2.7

     total cpu time spent up to now is     4336.1 secs

     total energy              =    -706.28945557 Ry
     Harris-Foulkes estimate   =    -706.28945653 Ry
     estimated scf accuracy    <       0.00000559 Ry

     iteration # 26     ecut=    50.00 Ry     beta= 0.60
     Davidson diagonalization with overlap
     ethr =  7.26E-09,  avg # of iterations =  3.8

     total cpu time spent up to now is     4394.6 secs

     total energy              =    -706.28945654 Ry
     Harris-Foulkes estimate   =    -706.28945668 Ry
     estimated scf accuracy    <       0.00000071 Ry

     iteration # 27     ecut=    50.00 Ry     beta= 0.60
     Davidson diagonalization with overlap
     ethr =  9.23E-10,  avg # of iterations =  2.5

     total cpu time spent up to now is     4443.6 secs

     total energy              =    -706.28945660 Ry
     Harris-Foulkes estimate   =    -706.28945662 Ry
     estimated scf accuracy    <       0.00000015 Ry

     iteration # 28     ecut=    50.00 Ry     beta= 0.60
     Davidson diagonalization with overlap
     ethr =  1.93E-10,  avg # of iterations =  2.2

     total cpu time spent up to now is     4491.2 secs

     total energy              =    -706.28945661 Ry
     Harris-Foulkes estimate   =    -706.28945662 Ry
     estimated scf accuracy    <       0.00000001 Ry

     iteration # 29     ecut=    50.00 Ry     beta= 0.60
     Davidson diagonalization with overlap
     ethr =  1.56E-11,  avg # of iterations =  4.0

     total cpu time spent up to now is     4551.6 secs

     total energy              =    -706.28945662 Ry
     Harris-Foulkes estimate   =    -706.28945662 Ry
     estimated scf accuracy    <       0.00000001 Ry

     iteration # 30     ecut=    50.00 Ry     beta= 0.60
     Davidson diagonalization with overlap
     ethr =  1.36E-11,  avg # of iterations =  1.9

     total cpu time spent up to now is     4595.1 secs

     total energy              =    -706.28945662 Ry
     Harris-Foulkes estimate   =    -706.28945662 Ry
     estimated scf accuracy    <          4.9E-10 Ry

     iteration # 31     ecut=    50.00 Ry     beta= 0.60
     Davidson diagonalization with overlap
     ethr =  6.39E-13,  avg # of iterations =  4.0

     total cpu time spent up to now is     4656.1 secs

     total energy              =    -706.28945662 Ry
     Harris-Foulkes estimate   =    -706.28945662 Ry
     estimated scf accuracy    <          3.2E-10 Ry

     iteration # 32     ecut=    50.00 Ry     beta= 0.60
     Davidson diagonalization with overlap
     ethr =  4.11E-13,  avg # of iterations =  1.0

     total cpu time spent up to now is     4697.6 secs

     End of self-consistent calculation

     Number of k-points >= 100: set verbosity='high' to print the bands.

     the Fermi energy is    15.6115 ev

!    total energy              =    -706.28945662 Ry
     Harris-Foulkes estimate   =    -706.28945662 Ry
     estimated scf accuracy    <          3.0E-11 Ry

     The total energy is the sum of the following terms:

     one-electron contribution =    -143.58196317 Ry
     hartree contribution      =     105.37094723 Ry
     xc contribution           =    -106.23892582 Ry
     ewald contribution        =    -561.83994924 Ry
     smearing contrib. (-TS)   =       0.00043438 Ry

     convergence has been achieved in  32 iterations

     Forces acting on atoms (cartesian axes, Ry/au):

     atom    1 type  2   force =     0.00000000    0.00000000    0.00000000
     atom    2 type  1   force =    -0.00565230   -0.00565230    0.00577466
     atom    3 type  1   force =     0.00230931    0.00230931   -0.00346307
     atom    4 type  1   force =     0.00000000    0.00000000    0.00000000
     atom    5 type  1   force =    -0.00230931   -0.00230931    0.00346307
     atom    6 type  1   force =     0.00565230    0.00565230   -0.00577466

     Total force =     0.015486     Total SCF correction =     0.000023


     Computing stress (Cartesian axis) and pressure

          total   stress  (Ry/bohr**3)                   (kbar)     P= -111.09
  -0.00075245  -0.00000206   0.00001244       -110.69     -0.30      1.83
  -0.00000206  -0.00075245   0.00001244         -0.30   -110.69      1.83
   0.00001244   0.00001244  -0.00076071          1.83      1.83   -111.90


     number of scf cycles    =   2
     number of bfgs steps    =   1

     enthalpy old            =    -706.1827373900 Ry
     enthalpy new            =    -706.2894566164 Ry

     CASE: enthalpy_new < enthalpy_old

     new trust radius        =       0.1983615863 bohr
     new conv_thr            =            1.0E-10 Ry

     new unit-cell volume =    707.07799 a.u.^3 (   104.77815 Ang^3 )
     density =      8.12057 g/cm^3

CELL_PARAMETERS (alat=  1.88972599)
  -1.632626940  -1.632626940   1.630565249
   3.270319922  -3.270319922   0.000000000
   3.274839099   3.274839099   6.541433656

ATOMIC_POSITIONS (angstrom)
Ti       3.273514995  -3.267124849   3.267521385
Nb       1.632993392  -1.637326530   4.911205500
Nb       4.913785195  -1.626854648   4.901519889
Nb       3.275774584   0.005454662   6.538238212
Nb       4.908083894  -1.632555950   8.174956536
Nb       1.643716676  -1.626603246   1.623837269


     NEW-OLD atomic charge density approx. for the potential
     extrapolated charge   68.40749, renormalised to   77.00000

     total cpu time spent up to now is     4726.0 secs

     Self-consistent Calculation

     iteration #  1     ecut=    50.00 Ry     beta= 0.60
     Davidson diagonalization with overlap
     c_bands:  1 eigenvalues not converged
     c_bands:  1 eigenvalues not converged
     c_bands:  1 eigenvalues not converged
     c_bands:  2 eigenvalues not converged
     c_bands:  2 eigenvalues not converged
     c_bands:  2 eigenvalues not converged
     c_bands:  2 eigenvalues not converged
     c_bands:  1 eigenvalues not converged
     c_bands:  1 eigenvalues not converged
     c_bands:  1 eigenvalues not converged
     c_bands:  2 eigenvalues not converged
     c_bands:  2 eigenvalues not converged
     c_bands:  1 eigenvalues not converged
     c_bands:  1 eigenvalues not converged
     c_bands:  2 eigenvalues not converged
     c_bands:  2 eigenvalues not converged
     c_bands:  1 eigenvalues not converged
     c_bands:  2 eigenvalues not converged
     c_bands:  1 eigenvalues not converged
     c_bands:  2 eigenvalues not converged
     c_bands:  1 eigenvalues not converged
     c_bands:  1 eigenvalues not converged
     c_bands:  1 eigenvalues not converged
     c_bands:  1 eigenvalues not converged
     c_bands:  1 eigenvalues not converged
     c_bands:  1 eigenvalues not converged
     c_bands:  1 eigenvalues not converged
     c_bands:  1 eigenvalues not converged
     c_bands:  1 eigenvalues not converged
     c_bands:  1 eigenvalues not converged
     c_bands:  1 eigenvalues not converged
     c_bands:  1 eigenvalues not converged
     c_bands:  1 eigenvalues not converged
     c_bands:  1 eigenvalues not converged
     c_bands:  1 eigenvalues not converged
     c_bands:  1 eigenvalues not converged
     c_bands:  1 eigenvalues not converged
     c_bands:  1 eigenvalues not converged
     c_bands:  1 eigenvalues not converged
     c_bands:  1 eigenvalues not converged
     c_bands:  1 eigenvalues not converged
     c_bands:  1 eigenvalues not converged
     c_bands:  1 eigenvalues not converged
     c_bands:  1 eigenvalues not converged
     c_bands:  1 eigenvalues not converged
     c_bands:  1 eigenvalues not converged
     c_bands:  1 eigenvalues not converged
     c_bands:  1 eigenvalues not converged
     c_bands:  1 eigenvalues not converged
     c_bands:  1 eigenvalues not converged
     c_bands:  1 eigenvalues not converged
     c_bands:  1 eigenvalues not converged
     c_bands:  1 eigenvalues not converged
     c_bands:  1 eigenvalues not converged
     c_bands:  1 eigenvalues not converged
     c_bands:  1 eigenvalues not converged
     c_bands:  1 eigenvalues not converged
     c_bands:  1 eigenvalues not converged
     c_bands:  1 eigenvalues not converged
     c_bands:  1 eigenvalues not converged
     c_bands:  1 eigenvalues not converged
     c_bands:  1 eigenvalues not converged
     c_bands:  1 eigenvalues not converged
     c_bands:  1 eigenvalues not converged
     c_bands:  1 eigenvalues not converged
     c_bands:  1 eigenvalues not converged
     c_bands:  1 eigenvalues not converged
     c_bands:  1 eigenvalues not converged
     c_bands:  1 eigenvalues not converged
     c_bands:  1 eigenvalues not converged
     c_bands:  1 eigenvalues not converged
     c_bands:  1 eigenvalues not converged
     c_bands:  1 eigenvalues not converged
     c_bands:  1 eigenvalues not converged
     c_bands:  1 eigenvalues not converged
     c_bands:  1 eigenvalues not converged
     ethr =  1.00E-06,  avg # of iterations = 15.1

     total cpu time spent up to now is     4896.7 secs

     total energy              =    -692.89847992 Ry
     Harris-Foulkes estimate   =    -716.27022223 Ry
     estimated scf accuracy    <      14.35185912 Ry

     iteration #  2     ecut=    50.00 Ry     beta= 0.60
     Davidson diagonalization with overlap
     ethr =  1.00E-02,  avg # of iterations =  5.0

     total cpu time spent up to now is     4981.8 secs

     total energy              =    -696.87371739 Ry
     Harris-Foulkes estimate   =    -722.63856513 Ry
     estimated scf accuracy    <      88.09265947 Ry

     iteration #  3     ecut=    50.00 Ry     beta= 0.60
     Davidson diagonalization with overlap
     ethr =  1.00E-02,  avg # of iterations =  4.1

     total cpu time spent up to now is     5047.3 secs

     total energy              =    -706.67038126 Ry
     Harris-Foulkes estimate   =    -708.65974977 Ry
     estimated scf accuracy    <       8.74995610 Ry

     iteration #  4     ecut=    50.00 Ry     beta= 0.60
     Davidson diagonalization with overlap
     ethr =  1.00E-02,  avg # of iterations =  2.6

     total cpu time spent up to now is     5097.4 secs

     total energy              =    -706.70218561 Ry
     Harris-Foulkes estimate   =    -708.19657053 Ry
     estimated scf accuracy    <      12.47921976 Ry

     iteration #  5     ecut=    50.00 Ry     beta= 0.60
     Davidson diagonalization with overlap
     ethr =  1.00E-02,  avg # of iterations =  1.3

     total cpu time spent up to now is     5139.6 secs

     total energy              =    -706.79542077 Ry
     Harris-Foulkes estimate   =    -707.27165876 Ry
     estimated scf accuracy    <       4.25655497 Ry

     iteration #  6     ecut=    50.00 Ry     beta= 0.60
     Davidson diagonalization with overlap
     ethr =  5.53E-03,  avg # of iterations =  1.0

     total cpu time spent up to now is     5181.1 secs

     total energy              =    -706.27965606 Ry
     Harris-Foulkes estimate   =    -706.90602441 Ry
     estimated scf accuracy    <       2.85800158 Ry

     iteration #  7     ecut=    50.00 Ry     beta= 0.60
     Davidson diagonalization with overlap
     ethr =  3.71E-03,  avg # of iterations =  2.3

     total cpu time spent up to now is     5226.5 secs

     total energy              =    -706.33494937 Ry
     Harris-Foulkes estimate   =    -706.38259535 Ry
     estimated scf accuracy    <       0.89561663 Ry

     iteration #  8     ecut=    50.00 Ry     beta= 0.60
     Davidson diagonalization with overlap
     ethr =  1.16E-03,  avg # of iterations =  4.1

     total cpu time spent up to now is     5279.6 secs

     total energy              =    -706.50050734 Ry
     Harris-Foulkes estimate   =    -706.39156648 Ry
     estimated scf accuracy    <       0.38944478 Ry

     iteration #  9     ecut=    50.00 Ry     beta= 0.60
     Davidson diagonalization with overlap
     ethr =  5.06E-04,  avg # of iterations =  4.0

     total cpu time spent up to now is     5331.3 secs

     total energy              =    -706.44632342 Ry
     Harris-Foulkes estimate   =    -706.56220787 Ry
     estimated scf accuracy    <       1.42825217 Ry

     iteration # 10     ecut=    50.00 Ry     beta= 0.60
     Davidson diagonalization with overlap
     ethr =  5.06E-04,  avg # of iterations =  1.0

     total cpu time spent up to now is     5373.1 secs

     total energy              =    -706.16032233 Ry
     Harris-Foulkes estimate   =    -706.45218461 Ry
     estimated scf accuracy    <       1.06745956 Ry

     iteration # 11     ecut=    50.00 Ry     beta= 0.60
     Davidson diagonalization with overlap
     ethr =  5.06E-04,  avg # of iterations =  5.3

     total cpu time spent up to now is     5454.8 secs

     total energy              =    -706.30574289 Ry
     Harris-Foulkes estimate   =    -706.33400381 Ry
     estimated scf accuracy    <       0.34547016 Ry

     iteration # 12     ecut=    50.00 Ry     beta= 0.60
     Davidson diagonalization with overlap
     ethr =  4.49E-04,  avg # of iterations =  1.0

     total cpu time spent up to now is     5593.4 secs

     total energy              =    -706.31434108 Ry
     Harris-Foulkes estimate   =    -706.31457784 Ry
     estimated scf accuracy    <       0.04590523 Ry

     iteration # 13     ecut=    50.00 Ry     beta= 0.60
     Davidson diagonalization with overlap
     ethr =  5.96E-05,  avg # of iterations =  2.4

     total cpu time spent up to now is     5726.4 secs

     total energy              =    -706.30991331 Ry
     Harris-Foulkes estimate   =    -706.31622179 Ry
     estimated scf accuracy    <       0.07184312 Ry

     iteration # 14     ecut=    50.00 Ry     beta= 0.60
     Davidson diagonalization with overlap
     ethr =  5.96E-05,  avg # of iterations =  1.3

     total cpu time spent up to now is     5768.8 secs

     total energy              =    -706.31159202 Ry
     Harris-Foulkes estimate   =    -706.31159883 Ry
     estimated scf accuracy    <       0.01945646 Ry

     iteration # 15     ecut=    50.00 Ry     beta= 0.60
     Davidson diagonalization with overlap
     ethr =  2.53E-05,  avg # of iterations =  4.0

     total cpu time spent up to now is     5818.2 secs

     total energy              =    -706.31105202 Ry
     Harris-Foulkes estimate   =    -706.31207825 Ry
     estimated scf accuracy    <       0.01802181 Ry

     iteration # 16     ecut=    50.00 Ry     beta= 0.60
     Davidson diagonalization with overlap
     ethr =  2.34E-05,  avg # of iterations =  2.0

     total cpu time spent up to now is     5862.4 secs

     total energy              =    -706.31127808 Ry
     Harris-Foulkes estimate   =    -706.31145456 Ry
     estimated scf accuracy    <       0.00494251 Ry

     iteration # 17     ecut=    50.00 Ry     beta= 0.60
     Davidson diagonalization with overlap
     ethr =  6.42E-06,  avg # of iterations =  6.1

     total cpu time spent up to now is     6777.6 secs

     total energy              =    -706.31152001 Ry
     Harris-Foulkes estimate   =    -706.31157243 Ry
     estimated scf accuracy    <       0.00089060 Ry

     iteration # 18     ecut=    50.00 Ry     beta= 0.60
     Davidson diagonalization with overlap
     ethr =  1.16E-06,  avg # of iterations =  2.5

     total cpu time spent up to now is     6823.2 secs

     total energy              =    -706.31153190 Ry
     Harris-Foulkes estimate   =    -706.31154273 Ry
     estimated scf accuracy    <       0.00011629 Ry

     iteration # 19     ecut=    50.00 Ry     beta= 0.60
     Davidson diagonalization with overlap
     ethr =  1.51E-07,  avg # of iterations =  3.3

     total cpu time spent up to now is     6872.5 secs

     total energy              =    -706.31154370 Ry
     Harris-Foulkes estimate   =    -706.31154343 Ry
     estimated scf accuracy    <       0.00001596 Ry

     iteration # 20     ecut=    50.00 Ry     beta= 0.60
     Davidson diagonalization with overlap
     ethr =  2.07E-08,  avg # of iterations =  2.1

     total cpu time spent up to now is     6917.1 secs

     total energy              =    -706.31154290 Ry
     Harris-Foulkes estimate   =    -706.31154415 Ry
     estimated scf accuracy    <       0.00001859 Ry

     iteration # 21     ecut=    50.00 Ry     beta= 0.60
     Davidson diagonalization with overlap
     ethr =  2.07E-08,  avg # of iterations =  1.0

     total cpu time spent up to now is     6958.5 secs

     total energy              =    -706.31154219 Ry
     Harris-Foulkes estimate   =    -706.31154311 Ry
     estimated scf accuracy    <       0.00000883 Ry

     iteration # 22     ecut=    50.00 Ry     beta= 0.60
     Davidson diagonalization with overlap
     ethr =  1.15E-08,  avg # of iterations =  1.5

     total cpu time spent up to now is     7001.1 secs

     total energy              =    -706.31154186 Ry
     Harris-Foulkes estimate   =    -706.31154241 Ry
     estimated scf accuracy    <       0.00000263 Ry

     iteration # 23     ecut=    50.00 Ry     beta= 0.60
     Davidson diagonalization with overlap
     ethr =  3.41E-09,  avg # of iterations =  3.2

     total cpu time spent up to now is     7209.1 secs

     total energy              =    -706.31154222 Ry
     Harris-Foulkes estimate   =    -706.31154223 Ry
     estimated scf accuracy    <       0.00000006 Ry

     iteration # 24     ecut=    50.00 Ry     beta= 0.60
     Davidson diagonalization with overlap
     ethr =  7.78E-11,  avg # of iterations =  3.4

     total cpu time spent up to now is     7303.5 secs

     total energy              =    -706.31154223 Ry
     Harris-Foulkes estimate   =    -706.31154223 Ry
     estimated scf accuracy    <       0.00000002 Ry

     iteration # 25     ecut=    50.00 Ry     beta= 0.60
     Davidson diagonalization with overlap
     ethr =  3.09E-11,  avg # of iterations =  3.3

     total cpu time spent up to now is     7356.0 secs

     total energy              =    -706.31154223 Ry
     Harris-Foulkes estimate   =    -706.31154223 Ry
     estimated scf accuracy    <          7.6E-09 Ry

     iteration # 26     ecut=    50.00 Ry     beta= 0.60
     Davidson diagonalization with overlap
     ethr =  9.88E-12,  avg # of iterations =  2.9

     total cpu time spent up to now is     7402.3 secs

     total energy              =    -706.31154223 Ry
     Harris-Foulkes estimate   =    -706.31154223 Ry
     estimated scf accuracy    <          1.1E-10 Ry

     iteration # 27     ecut=    50.00 Ry     beta= 0.60
     Davidson diagonalization with overlap
     ethr =  1.46E-13,  avg # of iterations =  4.7

     total cpu time spent up to now is     7470.5 secs

     total energy              =    -706.31154223 Ry
     Harris-Foulkes estimate   =    -706.31154223 Ry
     estimated scf accuracy    <          1.4E-10 Ry

     iteration # 28     ecut=    50.00 Ry     beta= 0.60
     Davidson diagonalization with overlap
     ethr =  1.46E-13,  avg # of iterations =  1.0

     total cpu time spent up to now is     7512.2 secs

     End of self-consistent calculation

     Number of k-points >= 100: set verbosity='high' to print the bands.

     the Fermi energy is    17.6963 ev

!    total energy              =    -706.31154223 Ry
     Harris-Foulkes estimate   =    -706.31154223 Ry
     estimated scf accuracy    <          1.1E-11 Ry

     The total energy is the sum of the following terms:

     one-electron contribution =    -114.49189986 Ry
     hartree contribution      =      97.35780659 Ry
     xc contribution           =    -106.91206980 Ry
     ewald contribution        =    -582.26564680 Ry
     smearing contrib. (-TS)   =       0.00026764 Ry

     convergence has been achieved in  28 iterations

     Forces acting on atoms (cartesian axes, Ry/au):

     atom    1 type  2   force =     0.00000000    0.00000000    0.00000000
     atom    2 type  1   force =    -0.00798596   -0.00798596    0.00032428
     atom    3 type  1   force =    -0.00080359   -0.00080359   -0.00791068
     atom    4 type  1   force =     0.00000000    0.00000000    0.00000000
     atom    5 type  1   force =     0.00080359    0.00080359    0.00791068
     atom    6 type  1   force =     0.00798596    0.00798596   -0.00032428

     Total force =     0.019572     Total SCF correction =     0.000008


     Computing stress (Cartesian axis) and pressure

          total   stress  (Ry/bohr**3)                   (kbar)     P=   44.54
   0.00030484   0.00000638   0.00001109         44.84      0.94      1.63
   0.00000638   0.00030484   0.00001109          0.94     44.84      1.63
   0.00001109   0.00001109   0.00029875          1.63      1.63     43.95


     number of scf cycles    =   3
     number of bfgs steps    =   2

     enthalpy old            =    -706.2894566164 Ry
     enthalpy new            =    -706.3115422329 Ry

     CASE: enthalpy_new < enthalpy_old

     new trust radius        =       0.0514894116 bohr
     new conv_thr            =            1.0E-10 Ry

     new unit-cell volume =    727.77930 a.u.^3 (   107.84576 Ang^3 )
     density =      7.88958 g/cm^3

CELL_PARAMETERS (alat=  1.88972599)
  -1.648476587  -1.648476587   1.645954898
   3.301567328  -3.301567328   0.000000000
   3.307594094   3.307594094   6.605106405

ATOMIC_POSITIONS (angstrom)
Ti       3.305114302  -3.298020355   3.299005400
Nb       1.647025753  -1.654541575   4.957964436
Nb       4.961088372  -1.642046285   4.946794204
Nb       3.308127684   0.006560356   6.601558603
Nb       4.956734325  -1.646400332   8.256323001
Nb       1.661635522  -1.639931806   1.640046365


     NEW-OLD atomic charge density approx. for the potential
     extrapolated charge   79.16139, renormalised to   77.00000

     total cpu time spent up to now is     7540.3 secs

     Self-consistent Calculation

     iteration #  1     ecut=    50.00 Ry     beta= 0.60
     Davidson diagonalization with overlap
     c_bands:  1 eigenvalues not converged
     c_bands:  1 eigenvalues not converged
     c_bands:  1 eigenvalues not converged
     c_bands:  1 eigenvalues not converged
     c_bands:  1 eigenvalues not converged
     c_bands:  1 eigenvalues not converged
     c_bands:  1 eigenvalues not converged
     c_bands:  2 eigenvalues not converged
     c_bands:  1 eigenvalues not converged
     ethr =  1.00E-06,  avg # of iterations = 12.9

     total cpu time spent up to now is     7687.8 secs

     total energy              =    -706.09690950 Ry
     Harris-Foulkes estimate   =    -703.91771141 Ry
     estimated scf accuracy    <       0.18243207 Ry

     iteration #  2     ecut=    50.00 Ry     beta= 0.60
     Davidson diagonalization with overlap
     ethr =  2.37E-04,  avg # of iterations =  5.4

     total cpu time spent up to now is     7791.4 secs

     total energy              =    -705.96858915 Ry
     Harris-Foulkes estimate   =    -706.68246470 Ry
     estimated scf accuracy    <       4.63320329 Ry

     iteration #  3     ecut=    50.00 Ry     beta= 0.60
     Davidson diagonalization with overlap
     ethr =  2.37E-04,  avg # of iterations =  4.9

     total cpu time spent up to now is     7872.5 secs

     total energy              =    -706.21933917 Ry
     Harris-Foulkes estimate   =    -706.40498539 Ry
     estimated scf accuracy    <       1.58903843 Ry

     iteration #  4     ecut=    50.00 Ry     beta= 0.60
     Davidson diagonalization with overlap
     ethr =  2.37E-04,  avg # of iterations =  5.8

     total cpu time spent up to now is     7944.9 secs

     total energy              =    -706.28236122 Ry
     Harris-Foulkes estimate   =    -706.37310353 Ry
     estimated scf accuracy    <       0.65268612 Ry

     iteration #  5     ecut=    50.00 Ry     beta= 0.60
     Davidson diagonalization with overlap
     ethr =  2.37E-04,  avg # of iterations =  4.7

     total cpu time spent up to now is     8009.6 secs

     total energy              =    -706.31954730 Ry
     Harris-Foulkes estimate   =    -706.32360017 Ry
     estimated scf accuracy    <       0.04053750 Ry

     iteration #  6     ecut=    50.00 Ry     beta= 0.60
     Davidson diagonalization with overlap
     ethr =  5.26E-05,  avg # of iterations =  3.7

     total cpu time spent up to now is     8059.8 secs

     total energy              =    -706.31840237 Ry
     Harris-Foulkes estimate   =    -706.32131773 Ry
     estimated scf accuracy    <       0.02866413 Ry

     iteration #  7     ecut=    50.00 Ry     beta= 0.60
     Davidson diagonalization with overlap
     ethr =  3.72E-05,  avg # of iterations =  1.0

     total cpu time spent up to now is     8104.3 secs

     total energy              =    -706.31451901 Ry
     Harris-Foulkes estimate   =    -706.31875412 Ry
     estimated scf accuracy    <       0.02130355 Ry

     iteration #  8     ecut=    50.00 Ry     beta= 0.60
     Davidson diagonalization with overlap
     ethr =  2.77E-05,  avg # of iterations =  1.1

     total cpu time spent up to now is     8165.9 secs

     total energy              =    -706.31403711 Ry
     Harris-Foulkes estimate   =    -706.31526693 Ry
     estimated scf accuracy    <       0.00738773 Ry

     iteration #  9     ecut=    50.00 Ry     beta= 0.60
     Davidson diagonalization with overlap
     c_bands:  1 eigenvalues not converged
     ethr =  9.59E-06,  avg # of iterations =  3.7

     total cpu time spent up to now is     8229.6 secs

     total energy              =    -706.31445470 Ry
     Harris-Foulkes estimate   =    -706.31457715 Ry
     estimated scf accuracy    <       0.00135395 Ry

     iteration # 10     ecut=    50.00 Ry     beta= 0.60
     Davidson diagonalization with overlap
     ethr =  1.76E-06,  avg # of iterations =  5.9

     total cpu time spent up to now is     8294.2 secs

     total energy              =    -706.31448186 Ry
     Harris-Foulkes estimate   =    -706.31452094 Ry
     estimated scf accuracy    <       0.00036605 Ry

     iteration # 11     ecut=    50.00 Ry     beta= 0.60
     Davidson diagonalization with overlap
     ethr =  4.75E-07,  avg # of iterations =  3.0

     total cpu time spent up to now is     8699.4 secs

     total energy              =    -706.31450197 Ry
     Harris-Foulkes estimate   =    -706.31451100 Ry
     estimated scf accuracy    <       0.00010677 Ry

     iteration # 12     ecut=    50.00 Ry     beta= 0.60
     Davidson diagonalization with overlap
     ethr =  1.39E-07,  avg # of iterations =  2.5

     total cpu time spent up to now is     8752.0 secs

     total energy              =    -706.31450838 Ry
     Harris-Foulkes estimate   =    -706.31450881 Ry
     estimated scf accuracy    <       0.00000280 Ry

     iteration # 13     ecut=    50.00 Ry     beta= 0.60
     Davidson diagonalization with overlap
     ethr =  3.64E-09,  avg # of iterations =  4.5

     total cpu time spent up to now is     8824.5 secs

     total energy              =    -706.31450950 Ry
     Harris-Foulkes estimate   =    -706.31450986 Ry
     estimated scf accuracy    <       0.00000215 Ry

     iteration # 14     ecut=    50.00 Ry     beta= 0.60
     Davidson diagonalization with overlap
     ethr =  2.79E-09,  avg # of iterations =  1.0

     total cpu time spent up to now is     8868.9 secs

     total energy              =    -706.31450928 Ry
     Harris-Foulkes estimate   =    -706.31450956 Ry
     estimated scf accuracy    <       0.00000073 Ry

     iteration # 15     ecut=    50.00 Ry     beta= 0.60
     Davidson diagonalization with overlap
     ethr =  9.52E-10,  avg # of iterations =  3.4

     total cpu time spent up to now is     8928.2 secs

     total energy              =    -706.31450942 Ry
     Harris-Foulkes estimate   =    -706.31450944 Ry
     estimated scf accuracy    <       0.00000021 Ry

     iteration # 16     ecut=    50.00 Ry     beta= 0.60
     Davidson diagonalization with overlap
     ethr =  2.79E-10,  avg # of iterations =  1.0

     total cpu time spent up to now is     9126.7 secs

     total energy              =    -706.31450941 Ry
     Harris-Foulkes estimate   =    -706.31450943 Ry
     estimated scf accuracy    <       0.00000016 Ry

     iteration # 17     ecut=    50.00 Ry     beta= 0.60
     Davidson diagonalization with overlap
     ethr =  2.12E-10,  avg # of iterations =  2.1

     total cpu time spent up to now is     9261.2 secs

     total energy              =    -706.31450942 Ry
     Harris-Foulkes estimate   =    -706.31450942 Ry
     estimated scf accuracy    <          9.1E-09 Ry

     iteration # 18     ecut=    50.00 Ry     beta= 0.60
     Davidson diagonalization with overlap
     ethr =  1.18E-11,  avg # of iterations =  3.3

     total cpu time spent up to now is     9314.6 secs

     total energy              =    -706.31450942 Ry
     Harris-Foulkes estimate   =    -706.31450942 Ry
     estimated scf accuracy    <          3.2E-09 Ry

     iteration # 19     ecut=    50.00 Ry     beta= 0.60
     Davidson diagonalization with overlap
     ethr =  4.13E-12,  avg # of iterations =  2.7

     total cpu time spent up to now is     9367.8 secs

     total energy              =    -706.31450942 Ry
     Harris-Foulkes estimate   =    -706.31450942 Ry
     estimated scf accuracy    <          3.5E-10 Ry

     iteration # 20     ecut=    50.00 Ry     beta= 0.60
     Davidson diagonalization with overlap
     ethr =  4.60E-13,  avg # of iterations =  3.0

     total cpu time spent up to now is     9418.6 secs

     total energy              =    -706.31450942 Ry
     Harris-Foulkes estimate   =    -706.31450942 Ry
     estimated scf accuracy    <          1.2E-10 Ry

     iteration # 21     ecut=    50.00 Ry     beta= 0.60
     Davidson diagonalization with overlap
     ethr =  1.52E-13,  avg # of iterations =  1.6

     total cpu time spent up to now is     9461.6 secs

     End of self-consistent calculation

     Number of k-points >= 100: set verbosity='high' to print the bands.

     the Fermi energy is    17.1129 ev

!    total energy              =    -706.31450942 Ry
     Harris-Foulkes estimate   =    -706.31450942 Ry
     estimated scf accuracy    <          1.4E-11 Ry

     The total energy is the sum of the following terms:

     one-electron contribution =    -122.35125188 Ry
     hartree contribution      =      99.47183029 Ry
     xc contribution           =    -106.72221668 Ry
     ewald contribution        =    -576.71318855 Ry
     smearing contrib. (-TS)   =       0.00031740 Ry

     convergence has been achieved in  21 iterations

     Forces acting on atoms (cartesian axes, Ry/au):

     atom    1 type  2   force =     0.00000000    0.00000000    0.00000000
     atom    2 type  1   force =    -0.00678538   -0.00678538    0.00214838
     atom    3 type  1   force =     0.00027018    0.00027018   -0.00579096
     atom    4 type  1   force =     0.00000000    0.00000000    0.00000000
     atom    5 type  1   force =    -0.00027018   -0.00027018    0.00579096
     atom    6 type  1   force =     0.00678538    0.00678538   -0.00214838

     Total force =     0.016148     Total SCF correction =     0.000009


     Computing stress (Cartesian axis) and pressure

          total   stress  (Ry/bohr**3)                   (kbar)     P=   -3.80
  -0.00002366   0.00000533   0.00001150         -3.48      0.78      1.69
   0.00000533  -0.00002366   0.00001150          0.78     -3.48      1.69
   0.00001150   0.00001150  -0.00003012          1.69      1.69     -4.43


     number of scf cycles    =   4
     number of bfgs steps    =   3

     enthalpy old            =    -706.3115422329 Ry
     enthalpy new            =    -706.3145094197 Ry

     CASE: enthalpy_new < enthalpy_old

     new trust radius        =       0.0088726464 bohr
     new conv_thr            =            1.0E-10 Ry

     new unit-cell volume =    726.45870 a.u.^3 (   107.65007 Ang^3 )
     density =      7.90393 g/cm^3

CELL_PARAMETERS (alat=  1.88972599)
  -1.647314919  -1.647314919   1.643875429
   3.299331129  -3.299331129   0.000000000
   3.308000312   3.308000312   6.602251162

ATOMIC_POSITIONS (angstrom)
Ti       3.303787954  -3.294874304   3.296667340
Nb       1.644036692  -1.655294437   4.955442613
Nb       4.959623540  -1.639038719   4.941425291
Nb       3.308122545   0.008791416   6.597792921
Nb       4.955952680  -1.642709578   8.254160551
Nb       1.664208086  -1.635123043   1.637892066


     NEW-OLD atomic charge density approx. for the potential
     extrapolated charge   76.86187, renormalised to   77.00000

     total cpu time spent up to now is     9489.8 secs

     Self-consistent Calculation

     iteration #  1     ecut=    50.00 Ry     beta= 0.60
     Davidson diagonalization with overlap
     ethr =  1.00E-06,  avg # of iterations =  4.0

     total cpu time spent up to now is     9571.7 secs

     total energy              =    -706.31375542 Ry
     Harris-Foulkes estimate   =    -706.46903286 Ry
     estimated scf accuracy    <       0.00085356 Ry

     iteration #  2     ecut=    50.00 Ry     beta= 0.60
     Davidson diagonalization with overlap
     c_bands:  1 eigenvalues not converged
     c_bands:  1 eigenvalues not converged
     c_bands:  1 eigenvalues not converged
     ethr =  1.11E-06,  avg # of iterations =  6.7

     total cpu time spent up to now is     9667.2 secs

     total energy              =    -706.31293341 Ry
     Harris-Foulkes estimate   =    -706.31691344 Ry
     estimated scf accuracy    <       0.03469574 Ry

     iteration #  3     ecut=    50.00 Ry     beta= 0.60
     Davidson diagonalization with overlap
     ethr =  1.11E-06,  avg # of iterations =  5.1

     total cpu time spent up to now is     9742.8 secs

     total energy              =    -706.31421879 Ry
     Harris-Foulkes estimate   =    -706.31529635 Ry
     estimated scf accuracy    <       0.00724576 Ry

     iteration #  4     ecut=    50.00 Ry     beta= 0.60
     Davidson diagonalization with overlap
     ethr =  1.11E-06,  avg # of iterations =  4.4

     total cpu time spent up to now is     9807.0 secs

     total energy              =    -706.31465856 Ry
     Harris-Foulkes estimate   =    -706.31502498 Ry
     estimated scf accuracy    <       0.00298118 Ry

     iteration #  5     ecut=    50.00 Ry     beta= 0.60
     Davidson diagonalization with overlap
     ethr =  1.11E-06,  avg # of iterations =  2.7

     total cpu time spent up to now is     9855.6 secs

     total energy              =    -706.31479374 Ry
     Harris-Foulkes estimate   =    -706.31481706 Ry
     estimated scf accuracy    <       0.00033209 Ry

     iteration #  6     ecut=    50.00 Ry     beta= 0.60
     Davidson diagonalization with overlap
     ethr =  4.31E-07,  avg # of iterations =  1.1

     total cpu time spent up to now is     9897.4 secs

     total energy              =    -706.31477031 Ry
     Harris-Foulkes estimate   =    -706.31480332 Ry
     estimated scf accuracy    <       0.00022416 Ry

     iteration #  7     ecut=    50.00 Ry     beta= 0.60
     Davidson diagonalization with overlap
     ethr =  2.91E-07,  avg # of iterations =  1.1

     total cpu time spent up to now is     9939.2 secs

     total energy              =    -706.31475799 Ry
     Harris-Foulkes estimate   =    -706.31477676 Ry
     estimated scf accuracy    <       0.00006640 Ry

     iteration #  8     ecut=    50.00 Ry     beta= 0.60
     Davidson diagonalization with overlap
     ethr =  8.62E-08,  avg # of iterations =  3.7

     total cpu time spent up to now is     9994.6 secs

     total energy              =    -706.31476919 Ry
     Harris-Foulkes estimate   =    -706.31476958 Ry
     estimated scf accuracy    <       0.00000514 Ry

     iteration #  9     ecut=    50.00 Ry     beta= 0.60
     Davidson diagonalization with overlap
     ethr =  6.67E-09,  avg # of iterations =  2.4

     total cpu time spent up to now is    10041.3 secs

     total energy              =    -706.31476942 Ry
     Harris-Foulkes estimate   =    -706.31476951 Ry
     estimated scf accuracy    <       0.00000108 Ry

     iteration # 10     ecut=    50.00 Ry     beta= 0.60
     Davidson diagonalization with overlap
     ethr =  1.40E-09,  avg # of iterations =  2.9

     total cpu time spent up to now is    10088.5 secs

     total energy              =    -706.31476944 Ry
     Harris-Foulkes estimate   =    -706.31476948 Ry
     estimated scf accuracy    <       0.00000020 Ry

     iteration # 11     ecut=    50.00 Ry     beta= 0.60
     Davidson diagonalization with overlap
     ethr =  2.54E-10,  avg # of iterations =  3.2

     total cpu time spent up to now is    10139.9 secs

     total energy              =    -706.31476946 Ry
     Harris-Foulkes estimate   =    -706.31476947 Ry
     estimated scf accuracy    <       0.00000002 Ry

     iteration # 12     ecut=    50.00 Ry     beta= 0.60
     Davidson diagonalization with overlap
     ethr =  2.66E-11,  avg # of iterations =  3.7

     total cpu time spent up to now is    10196.2 secs

     total energy              =    -706.31476947 Ry
     Harris-Foulkes estimate   =    -706.31476947 Ry
     estimated scf accuracy    <          3.1E-10 Ry

     iteration # 13     ecut=    50.00 Ry     beta= 0.60
     Davidson diagonalization with overlap
     ethr =  3.97E-13,  avg # of iterations =  4.1

     total cpu time spent up to now is    10572.2 secs

     total energy              =    -706.31476947 Ry
     Harris-Foulkes estimate   =    -706.31476947 Ry
     estimated scf accuracy    <          1.7E-10 Ry

     iteration # 14     ecut=    50.00 Ry     beta= 0.60
     Davidson diagonalization with overlap
     ethr =  2.19E-13,  avg # of iterations =  2.8

     total cpu time spent up to now is    10618.3 secs

     End of self-consistent calculation

     Number of k-points >= 100: set verbosity='high' to print the bands.

     the Fermi energy is    17.1486 ev

!    total energy              =    -706.31476947 Ry
     Harris-Foulkes estimate   =    -706.31476947 Ry
     estimated scf accuracy    <          1.5E-11 Ry

     The total energy is the sum of the following terms:

     one-electron contribution =    -121.82422342 Ry
     hartree contribution      =      99.32107835 Ry
     xc contribution           =    -106.73375711 Ry
     ewald contribution        =    -577.07821546 Ry
     smearing contrib. (-TS)   =       0.00034817 Ry

     convergence has been achieved in  14 iterations

     Forces acting on atoms (cartesian axes, Ry/au):

     atom    1 type  2   force =     0.00000000    0.00000000    0.00000000
     atom    2 type  1   force =    -0.00637567   -0.00637567    0.00213781
     atom    3 type  1   force =     0.00032966    0.00032966   -0.00517045
     atom    4 type  1   force =     0.00000000    0.00000000    0.00000000
     atom    5 type  1   force =    -0.00032966   -0.00032966    0.00517045
     atom    6 type  1   force =     0.00637567    0.00637567   -0.00213781

     Total force =     0.015021     Total SCF correction =     0.000019


     Computing stress (Cartesian axis) and pressure

          total   stress  (Ry/bohr**3)                   (kbar)     P=   -1.08
  -0.00000553   0.00000660   0.00001157         -0.81      0.97      1.70
   0.00000660  -0.00000553   0.00001157          0.97     -0.81      1.70
   0.00001157   0.00001157  -0.00001105          1.70      1.70     -1.63


     number of scf cycles    =   5
     number of bfgs steps    =   4

     enthalpy old            =    -706.3145094197 Ry
     enthalpy new            =    -706.3147694681 Ry

     CASE: enthalpy_new < enthalpy_old


     WARNING: bfgs curvature condition failed, Theta= 0.936
     new trust radius        =       0.0133009295 bohr
     new conv_thr            =            1.0E-10 Ry

     new unit-cell volume =    725.66768 a.u.^3 (   107.53285 Ang^3 )
     density =      7.91254 g/cm^3

CELL_PARAMETERS (alat=  1.88972599)
  -1.646502900  -1.646502900   1.641613045
   3.297623738  -3.297623738   0.000000000
   3.310647255   3.310647255   6.601749321

ATOMIC_POSITIONS (angstrom)
Ti       3.303504223  -3.291743253   3.294991804
Nb       1.640468442  -1.657155296   4.954449199
Nb       4.960152407  -1.635095069   4.936319199
Nb       3.310015981   0.012392243   6.595866465
Nb       4.957503293  -1.637744183   8.255413730
Nb       1.668916265  -1.628707473   1.635534409


     NEW-OLD atomic charge density approx. for the potential
     extrapolated charge   76.91717, renormalised to   77.00000

     total cpu time spent up to now is    10646.5 secs

     Self-consistent Calculation

     iteration #  1     ecut=    50.00 Ry     beta= 0.60
     Davidson diagonalization with overlap
     ethr =  1.00E-06,  avg # of iterations =  4.0

     total cpu time spent up to now is    10732.6 secs

     total energy              =    -706.31457089 Ry
     Harris-Foulkes estimate   =    -706.40735337 Ry
     estimated scf accuracy    <       0.00052158 Ry

     iteration #  2     ecut=    50.00 Ry     beta= 0.60
     Davidson diagonalization with overlap
     ethr =  6.77E-07,  avg # of iterations =  5.6

     total cpu time spent up to now is    10825.7 secs

     total energy              =    -706.31285430 Ry
     Harris-Foulkes estimate   =    -706.31764988 Ry
     estimated scf accuracy    <       0.05776028 Ry

     iteration #  3     ecut=    50.00 Ry     beta= 0.60
     Davidson diagonalization with overlap
     ethr =  6.77E-07,  avg # of iterations =  5.1

     total cpu time spent up to now is    10902.1 secs

     total energy              =    -706.31500283 Ry
     Harris-Foulkes estimate   =    -706.31522370 Ry
     estimated scf accuracy    <       0.00082768 Ry

     iteration #  4     ecut=    50.00 Ry     beta= 0.60
     Davidson diagonalization with overlap
     ethr =  6.77E-07,  avg # of iterations =  3.1

     total cpu time spent up to now is    10956.2 secs

     total energy              =    -706.31504776 Ry
     Harris-Foulkes estimate   =    -706.31517502 Ry
     estimated scf accuracy    <       0.00075105 Ry

     iteration #  5     ecut=    50.00 Ry     beta= 0.60
     Davidson diagonalization with overlap
     ethr =  6.77E-07,  avg # of iterations =  2.0

     total cpu time spent up to now is    11002.0 secs

     total energy              =    -706.31509162 Ry
     Harris-Foulkes estimate   =    -706.31510639 Ry
     estimated scf accuracy    <       0.00009493 Ry

     iteration #  6     ecut=    50.00 Ry     beta= 0.60
     Davidson diagonalization with overlap
     ethr =  1.23E-07,  avg # of iterations =  2.9

     total cpu time spent up to now is    13290.5 secs

     total energy              =    -706.31509333 Ry
     Harris-Foulkes estimate   =    -706.31510134 Ry
     estimated scf accuracy    <       0.00004925 Ry

     iteration #  7     ecut=    50.00 Ry     beta= 0.60
     Davidson diagonalization with overlap
     ethr =  6.40E-08,  avg # of iterations =  1.2

     total cpu time spent up to now is    13333.1 secs

     total energy              =    -706.31509325 Ry
     Harris-Foulkes estimate   =    -706.31509632 Ry
     estimated scf accuracy    <       0.00001514 Ry

     iteration #  8     ecut=    50.00 Ry     beta= 0.60
     Davidson diagonalization with overlap
     ethr =  1.97E-08,  avg # of iterations =  3.3

     total cpu time spent up to now is    13385.3 secs

     total energy              =    -706.31509494 Ry
     Harris-Foulkes estimate   =    -706.31509522 Ry
     estimated scf accuracy    <       0.00000172 Ry

     iteration #  9     ecut=    50.00 Ry     beta= 0.60
     Davidson diagonalization with overlap
     ethr =  2.23E-09,  avg # of iterations =  2.6

     total cpu time spent up to now is    13435.0 secs

     total energy              =    -706.31509513 Ry
     Harris-Foulkes estimate   =    -706.31509514 Ry
     estimated scf accuracy    <       0.00000005 Ry

     iteration # 10     ecut=    50.00 Ry     beta= 0.60
     Davidson diagonalization with overlap
     ethr =  6.59E-11,  avg # of iterations =  4.1

     total cpu time spent up to now is    13500.0 secs

     total energy              =    -706.31509515 Ry
     Harris-Foulkes estimate   =    -706.31509515 Ry
     estimated scf accuracy    <       0.00000002 Ry

     iteration # 11     ecut=    50.00 Ry     beta= 0.60
     Davidson diagonalization with overlap
     ethr =  2.53E-11,  avg # of iterations =  2.8

     total cpu time spent up to now is    13549.9 secs

     total energy              =    -706.31509515 Ry
     Harris-Foulkes estimate   =    -706.31509515 Ry
     estimated scf accuracy    <          7.3E-10 Ry

     iteration # 12     ecut=    50.00 Ry     beta= 0.60
     Davidson diagonalization with overlap
     ethr =  9.48E-13,  avg # of iterations =  4.0

     total cpu time spent up to now is    13611.2 secs

     total energy              =    -706.31509515 Ry
     Harris-Foulkes estimate   =    -706.31509515 Ry
     estimated scf accuracy    <          4.4E-10 Ry

     iteration # 13     ecut=    50.00 Ry     beta= 0.60
     Davidson diagonalization with overlap
     ethr =  5.65E-13,  avg # of iterations =  3.1

     total cpu time spent up to now is    13663.1 secs

     total energy              =    -706.31509515 Ry
     Harris-Foulkes estimate   =    -706.31509515 Ry
     estimated scf accuracy    <          6.6E-10 Ry

     iteration # 14     ecut=    50.00 Ry     beta= 0.60
     Davidson diagonalization with overlap
     ethr =  5.65E-13,  avg # of iterations =  1.1

     total cpu time spent up to now is    13704.9 secs

     End of self-consistent calculation

     Number of k-points >= 100: set verbosity='high' to print the bands.

     the Fermi energy is    17.1697 ev

!    total energy              =    -706.31509515 Ry
     Harris-Foulkes estimate   =    -706.31509515 Ry
     estimated scf accuracy    <          1.9E-11 Ry

     The total energy is the sum of the following terms:

     one-electron contribution =    -121.48912687 Ry
     hartree contribution      =      99.22099121 Ry
     xc contribution           =    -106.74061043 Ry
     ewald contribution        =    -577.30675522 Ry
     smearing contrib. (-TS)   =       0.00040617 Ry

     convergence has been achieved in  14 iterations

     Forces acting on atoms (cartesian axes, Ry/au):

     atom    1 type  2   force =     0.00000000    0.00000000    0.00000000
     atom    2 type  1   force =    -0.00570900   -0.00570900    0.00217749
     atom    3 type  1   force =     0.00043177    0.00043177   -0.00419900
     atom    4 type  1   force =     0.00000000    0.00000000    0.00000000
     atom    5 type  1   force =    -0.00043177   -0.00043177    0.00419900
     atom    6 type  1   force =     0.00570900    0.00570900   -0.00217749

     Total force =     0.013261     Total SCF correction =     0.000015


     Computing stress (Cartesian axis) and pressure

          total   stress  (Ry/bohr**3)                   (kbar)     P=    0.40
   0.00000411   0.00000830   0.00001164          0.60      1.22      1.71
   0.00000830   0.00000411   0.00001164          1.22      0.60      1.71
   0.00001164   0.00001164  -0.00000005          1.71      1.71     -0.01


     number of scf cycles    =   6
     number of bfgs steps    =   5

     enthalpy old            =    -706.3147694681 Ry
     enthalpy new            =    -706.3150951479 Ry

     CASE: enthalpy_new < enthalpy_old

     new trust radius        =       0.0199445256 bohr
     new conv_thr            =            1.0E-10 Ry

     new unit-cell volume =    725.14930 a.u.^3 (   107.45604 Ang^3 )
     density =      7.91820 g/cm^3

CELL_PARAMETERS (alat=  1.88972599)
  -1.645839423  -1.645839423   1.638627967
   3.295795795  -3.295795795   0.000000000
   3.316107430   3.316107430   6.603392760

ATOMIC_POSITIONS (angstrom)
Ti       3.303938656  -3.287652934   3.293549565
Nb       1.635693776  -1.660102019   4.954706502
Nb       4.962566336  -1.629025254   4.930693903
Nb       3.314094474   0.018298679   6.595245945
[...]
         2           Nb  tau(   2) = (   1.6105108  -1.6563787   4.9793816  )
         3           Nb  tau(   3) = (   4.9695215  -1.5642575   4.9467206  )
         4           Nb  tau(   4) = (   3.3506609   0.0837714   6.6180126  )
         5           Nb  tau(   5) = (   4.9986899  -1.5350892   8.2893045  )
         6           Nb  tau(   6) = (   1.7093082  -1.5575814   1.6120916  )

     number of k points=   384  Marzari-Vanderbilt smearing, width (Ry)=  0.0200

     Number of k-points >= 100: set verbosity='high' to print them.

     Dense  grid:   136913 G-vectors     FFT dimensions: (  40,  64, 120)

     Smooth grid:    34569 G-vectors     FFT dimensions: (  25,  40,  72)

     Estimated max dynamical RAM per process >     429.48 MB

     Estimated total dynamical RAM >       1.68 GB

     Initial potential from superposition of free atoms

     starting charge   75.98629, renormalised to   77.00000
     Starting wfcs are   75 randomized atomic wfcs

     total cpu time spent up to now is    33308.2 secs

     Self-consistent Calculation

     iteration #  1     ecut=    50.00 Ry     beta= 0.60
     Davidson diagonalization with overlap
     ethr =  1.00E-06,  avg # of iterations = 11.9

     total cpu time spent up to now is    33449.2 secs

     total energy              =    -649.94693484 Ry
     Harris-Foulkes estimate   =    -710.89165276 Ry
     estimated scf accuracy    <      74.61171071 Ry

     iteration #  2     ecut=    50.00 Ry     beta= 0.60
     Davidson diagonalization with overlap
     ethr =  1.00E-02,  avg # of iterations =  8.4

     total cpu time spent up to now is    33555.3 secs

     total energy              =    -650.45255787 Ry
     Harris-Foulkes estimate   =    -853.54373457 Ry
     estimated scf accuracy    <     842.82422751 Ry

     iteration #  3     ecut=    50.00 Ry     beta= 0.60
     Davidson diagonalization with overlap
     ethr =  1.00E-02,  avg # of iterations =  7.1

     total cpu time spent up to now is    33640.3 secs

     total energy              =    -700.23553388 Ry
     Harris-Foulkes estimate   =    -719.41907785 Ry
     estimated scf accuracy    <      81.91410499 Ry

     iteration #  4     ecut=    50.00 Ry     beta= 0.60
     Davidson diagonalization with overlap
     ethr =  1.00E-02,  avg # of iterations =  4.3

     total cpu time spent up to now is    33697.5 secs

     total energy              =    -708.34462285 Ry
     Harris-Foulkes estimate   =    -711.20490382 Ry
     estimated scf accuracy    <      48.38332499 Ry

     iteration #  5     ecut=    50.00 Ry     beta= 0.60
     Davidson diagonalization with overlap
     ethr =  1.00E-02,  avg # of iterations =  1.5

     total cpu time spent up to now is    33733.2 secs

     total energy              =    -707.85347577 Ry
     Harris-Foulkes estimate   =    -708.83838573 Ry
     estimated scf accuracy    <      20.74271022 Ry

     iteration #  6     ecut=    50.00 Ry     beta= 0.60
     Davidson diagonalization with overlap
     ethr =  1.00E-02,  avg # of iterations =  1.1

     total cpu time spent up to now is    33767.7 secs

     total energy              =    -707.31817746 Ry
     Harris-Foulkes estimate   =    -707.98439036 Ry
     estimated scf accuracy    <      12.41928036 Ry

     iteration #  7     ecut=    50.00 Ry     beta= 0.60
     Davidson diagonalization with overlap
     ethr =  1.00E-02,  avg # of iterations =  1.0

     total cpu time spent up to now is    33802.1 secs

     total energy              =    -706.32933044 Ry
     Harris-Foulkes estimate   =    -707.37997090 Ry
     estimated scf accuracy    <       8.72905460 Ry

     iteration #  8     ecut=    50.00 Ry     beta= 0.60
     Davidson diagonalization with overlap
     ethr =  1.00E-02,  avg # of iterations =  1.7

     total cpu time spent up to now is    33838.3 secs

     total energy              =    -706.57513713 Ry
     Harris-Foulkes estimate   =    -706.49667817 Ry
     estimated scf accuracy    <       3.34462786 Ry

     iteration #  9     ecut=    50.00 Ry     beta= 0.60
     Davidson diagonalization with overlap
     ethr =  4.34E-03,  avg # of iterations =  1.2

     total cpu time spent up to now is    33873.2 secs

     total energy              =    -706.02085748 Ry
     Harris-Foulkes estimate   =    -706.60719309 Ry
     estimated scf accuracy    <       3.44119915 Ry

     iteration # 10     ecut=    50.00 Ry     beta= 0.60
     Davidson diagonalization with overlap
     ethr =  4.34E-03,  avg # of iterations =  3.8

     total cpu time spent up to now is    33918.9 secs

     total energy              =    -706.49895205 Ry
     Harris-Foulkes estimate   =    -706.35689724 Ry
     estimated scf accuracy    <       0.53719327 Ry

     iteration # 11     ecut=    50.00 Ry     beta= 0.60
     Davidson diagonalization with overlap
     ethr =  6.98E-04,  avg # of iterations =  4.5

     total cpu time spent up to now is    33981.6 secs

     total energy              =    -705.66087759 Ry
     Harris-Foulkes estimate   =    -707.04093218 Ry
     estimated scf accuracy    <      19.08463604 Ry

     iteration # 12     ecut=    50.00 Ry     beta= 0.60
     Davidson diagonalization with overlap
     ethr =  6.98E-04,  avg # of iterations =  5.1

     total cpu time spent up to now is    34038.3 secs

     total energy              =    -706.32949962 Ry
     Harris-Foulkes estimate   =    -706.34314822 Ry
     estimated scf accuracy    <       0.19301863 Ry

     iteration # 13     ecut=    50.00 Ry     beta= 0.60
     Davidson diagonalization with overlap
     ethr =  2.51E-04,  avg # of iterations =  2.4

     total cpu time spent up to now is    34076.0 secs

     total energy              =    -706.32902887 Ry
     Harris-Foulkes estimate   =    -706.34508703 Ry
     estimated scf accuracy    <       0.18622203 Ry

     iteration # 14     ecut=    50.00 Ry     beta= 0.60
     Davidson diagonalization with overlap
     ethr =  2.42E-04,  avg # of iterations =  1.0

     total cpu time spent up to now is    34110.4 secs

     total energy              =    -706.32365887 Ry
     Harris-Foulkes estimate   =    -706.33140707 Ry
     estimated scf accuracy    <       0.15049757 Ry

     iteration # 15     ecut=    50.00 Ry     beta= 0.60
     Davidson diagonalization with overlap
     ethr =  1.95E-04,  avg # of iterations =  1.0

     total cpu time spent up to now is    34144.8 secs

     total energy              =    -706.27552272 Ry
     Harris-Foulkes estimate   =    -706.32508502 Ry
     estimated scf accuracy    <       0.08418139 Ry

     iteration # 16     ecut=    50.00 Ry     beta= 0.60
     Davidson diagonalization with overlap
     ethr =  1.09E-04,  avg # of iterations =  5.0

     total cpu time spent up to now is    34212.6 secs

     total energy              =    -706.36922448 Ry
     Harris-Foulkes estimate   =    -706.50911345 Ry
     estimated scf accuracy    <       4.86690527 Ry

     iteration # 17     ecut=    50.00 Ry     beta= 0.60
     Davidson diagonalization with overlap
     ethr =  1.09E-04,  avg # of iterations =  3.3

     total cpu time spent up to now is    34255.6 secs

     total energy              =    -706.11244798 Ry
     Harris-Foulkes estimate   =    -706.39632051 Ry
     estimated scf accuracy    <       2.14021281 Ry

     iteration # 18     ecut=    50.00 Ry     beta= 0.60
     Davidson diagonalization with overlap
     ethr =  1.09E-04,  avg # of iterations =  7.1

     total cpu time spent up to now is    34330.5 secs

     total energy              =    -706.31020468 Ry
     Harris-Foulkes estimate   =    -706.35621328 Ry
     estimated scf accuracy    <       0.43860632 Ry

     iteration # 19     ecut=    50.00 Ry     beta= 0.60
     Davidson diagonalization with overlap
     ethr =  1.09E-04,  avg # of iterations =  3.7

     total cpu time spent up to now is    34373.3 secs

     total energy              =    -706.31293545 Ry
     Harris-Foulkes estimate   =    -706.31968468 Ry
     estimated scf accuracy    <       0.09955252 Ry

     iteration # 20     ecut=    50.00 Ry     beta= 0.60
     Davidson diagonalization with overlap
     ethr =  1.09E-04,  avg # of iterations =  4.1

     total cpu time spent up to now is    34418.5 secs

     total energy              =    -706.31575826 Ry
     Harris-Foulkes estimate   =    -706.31659381 Ry
     estimated scf accuracy    <       0.02025334 Ry

     iteration # 21     ecut=    50.00 Ry     beta= 0.60
     Davidson diagonalization with overlap
     ethr =  2.63E-05,  avg # of iterations =  4.2

     total cpu time spent up to now is    34463.4 secs

     total energy              =    -706.31606701 Ry
     Harris-Foulkes estimate   =    -706.31623396 Ry
     estimated scf accuracy    <       0.00852602 Ry

     iteration # 22     ecut=    50.00 Ry     beta= 0.60
     Davidson diagonalization with overlap
     c_bands:  1 eigenvalues not converged
     ethr =  1.11E-05,  avg # of iterations =  2.9

     total cpu time spent up to now is    34503.4 secs

     total energy              =    -706.31537073 Ry
     Harris-Foulkes estimate   =    -706.31615898 Ry
     estimated scf accuracy    <       0.00747507 Ry

     iteration # 23     ecut=    50.00 Ry     beta= 0.60
     Davidson diagonalization with overlap
     ethr =  9.71E-06,  avg # of iterations =  2.7

     total cpu time spent up to now is    34542.5 secs

     total energy              =    -706.31567375 Ry
     Harris-Foulkes estimate   =    -706.31566735 Ry
     estimated scf accuracy    <       0.00044358 Ry

     iteration # 24     ecut=    50.00 Ry     beta= 0.60
     Davidson diagonalization with overlap
     ethr =  5.76E-07,  avg # of iterations =  6.0

     total cpu time spent up to now is    34601.1 secs

     total energy              =    -706.31576260 Ry
     Harris-Foulkes estimate   =    -706.31574148 Ry
     estimated scf accuracy    <       0.00016970 Ry

     iteration # 25     ecut=    50.00 Ry     beta= 0.60
     Davidson diagonalization with overlap
     ethr =  2.20E-07,  avg # of iterations =  1.1

     total cpu time spent up to now is    34635.8 secs

     total energy              =    -706.31571965 Ry
     Harris-Foulkes estimate   =    -706.31576959 Ry
     estimated scf accuracy    <       0.00051066 Ry

     iteration # 26     ecut=    50.00 Ry     beta= 0.60
     Davidson diagonalization with overlap
     ethr =  2.20E-07,  avg # of iterations =  1.9

     total cpu time spent up to now is    34672.4 secs

     total energy              =    -706.31573604 Ry
     Harris-Foulkes estimate   =    -706.31573329 Ry
     estimated scf accuracy    <       0.00008344 Ry

     iteration # 27     ecut=    50.00 Ry     beta= 0.60
     Davidson diagonalization with overlap
     ethr =  1.08E-07,  avg # of iterations =  1.0

     total cpu time spent up to now is    34706.8 secs

     total energy              =    -706.31573136 Ry
     Harris-Foulkes estimate   =    -706.31573680 Ry
     estimated scf accuracy    <       0.00012395 Ry

     iteration # 28     ecut=    50.00 Ry     beta= 0.60
     Davidson diagonalization with overlap
     ethr =  1.08E-07,  avg # of iterations =  1.0

     total cpu time spent up to now is    34741.3 secs

     total energy              =    -706.31573101 Ry
     Harris-Foulkes estimate   =    -706.31573228 Ry
     estimated scf accuracy    <       0.00005963 Ry

     iteration # 29     ecut=    50.00 Ry     beta= 0.60
     Davidson diagonalization with overlap
     ethr =  7.74E-08,  avg # of iterations =  1.0

     total cpu time spent up to now is    34775.8 secs

     total energy              =    -706.31572716 Ry
     Harris-Foulkes estimate   =    -706.31573135 Ry
     estimated scf accuracy    <       0.00004325 Ry

     iteration # 30     ecut=    50.00 Ry     beta= 0.60
     Davidson diagonalization with overlap
     ethr =  5.62E-08,  avg # of iterations =  1.6

     total cpu time spent up to now is    34812.0 secs

     total energy              =    -706.31572863 Ry
     Harris-Foulkes estimate   =    -706.31572874 Ry
     estimated scf accuracy    <       0.00000412 Ry

     iteration # 31     ecut=    50.00 Ry     beta= 0.60
     Davidson diagonalization with overlap
     ethr =  5.36E-09,  avg # of iterations =  4.1

     total cpu time spent up to now is    34862.4 secs

     total energy              =    -706.31572950 Ry
     Harris-Foulkes estimate   =    -706.31572961 Ry
     estimated scf accuracy    <       0.00000036 Ry

     iteration # 32     ecut=    50.00 Ry     beta= 0.60
     Davidson diagonalization with overlap
     ethr =  4.62E-10,  avg # of iterations =  4.4

     total cpu time spent up to now is    34917.8 secs

     total energy              =    -706.31572938 Ry
     Harris-Foulkes estimate   =    -706.31572987 Ry
     estimated scf accuracy    <       0.00000409 Ry

     iteration # 33     ecut=    50.00 Ry     beta= 0.60
     Davidson diagonalization with overlap
     ethr =  4.62E-10,  avg # of iterations =  4.0

     total cpu time spent up to now is    34968.2 secs

     total energy              =    -706.31572959 Ry
     Harris-Foulkes estimate   =    -706.31572959 Ry
     estimated scf accuracy    <          7.6E-09 Ry

     iteration # 34     ecut=    50.00 Ry     beta= 0.60
     Davidson diagonalization with overlap
     ethr =  9.89E-12,  avg # of iterations =  3.5

     total cpu time spent up to now is    35016.0 secs

     total energy              =    -706.31572959 Ry
     Harris-Foulkes estimate   =    -706.31572959 Ry
     estimated scf accuracy    <          2.4E-09 Ry

     iteration # 35     ecut=    50.00 Ry     beta= 0.60
     Davidson diagonalization with overlap
     ethr =  3.06E-12,  avg # of iterations =  1.5

     total cpu time spent up to now is    35051.7 secs

     total energy              =    -706.31572959 Ry
     Harris-Foulkes estimate   =    -706.31572959 Ry
     estimated scf accuracy    <          5.4E-10 Ry

     iteration # 36     ecut=    50.00 Ry     beta= 0.60
     Davidson diagonalization with overlap
     ethr =  7.00E-13,  avg # of iterations =  3.7

     total cpu time spent up to now is    35100.4 secs

     total energy              =    -706.31572959 Ry
     Harris-Foulkes estimate   =    -706.31572959 Ry
     estimated scf accuracy    <          3.1E-10 Ry

     iteration # 37     ecut=    50.00 Ry     beta= 0.60
     Davidson diagonalization with overlap
     ethr =  3.99E-13,  avg # of iterations =  1.0

     total cpu time spent up to now is    35134.9 secs

     total energy              =    -706.31572959 Ry
     Harris-Foulkes estimate   =    -706.31572959 Ry
     estimated scf accuracy    <          2.1E-10 Ry

     iteration # 38     ecut=    50.00 Ry     beta= 0.60
     Davidson diagonalization with overlap
     ethr =  2.73E-13,  avg # of iterations =  1.0

     total cpu time spent up to now is    35169.3 secs

     total energy              =    -706.31572959 Ry
     Harris-Foulkes estimate   =    -706.31572959 Ry
     estimated scf accuracy    <          4.8E-11 Ry

     iteration # 39     ecut=    50.00 Ry     beta= 0.60
     Davidson diagonalization with overlap
     ethr =  1.00E-13,  avg # of iterations =  2.2

     total cpu time spent up to now is    35207.0 secs

     total energy              =    -706.31572959 Ry
     Harris-Foulkes estimate   =    -706.31572959 Ry
     estimated scf accuracy    <          8.9E-12 Ry

     iteration # 40     ecut=    50.00 Ry     beta= 0.60
     Davidson diagonalization with overlap
     ethr =  1.00E-13,  avg # of iterations =  1.0

     total cpu time spent up to now is    35241.4 secs

     End of self-consistent calculation

     Number of k-points >= 100: set verbosity='high' to print the bands.

     the Fermi energy is    17.1757 ev

!    total energy              =    -706.31572959 Ry
     Harris-Foulkes estimate   =    -706.31572959 Ry
     estimated scf accuracy    <          7.9E-14 Ry

     The total energy is the sum of the following terms:

     one-electron contribution =    -121.49273417 Ry
     hartree contribution      =      99.24068971 Ry
     xc contribution           =    -106.74767351 Ry
     ewald contribution        =    -577.31739492 Ry
     smearing contrib. (-TS)   =       0.00138330 Ry

     convergence has been achieved in  40 iterations

     Forces acting on atoms (cartesian axes, Ry/au):

     atom    1 type  2   force =     0.00000000    0.00000000    0.00000000
     atom    2 type  1   force =    -0.00000145   -0.00000145    0.00002427
     atom    3 type  1   force =    -0.00000504   -0.00000504    0.00000357
     atom    4 type  1   force =     0.00000000    0.00000000    0.00000000
     atom    5 type  1   force =     0.00000504    0.00000504   -0.00000357
     atom    6 type  1   force =     0.00000145    0.00000145   -0.00002427

     Total force =     0.000036     Total SCF correction =     0.000001


     Computing stress (Cartesian axis) and pressure

          total   stress  (Ry/bohr**3)                   (kbar)     P=   -1.48
  -0.00001023   0.00000002   0.00000023         -1.50      0.00      0.03
   0.00000002  -0.00001023   0.00000023          0.00     -1.50      0.03
   0.00000023   0.00000023  -0.00000977          0.03      0.03     -1.44

 
     init_run     :     48.12s CPU     49.10s WALL (       2 calls)
     electrons    :  23583.55s CPU  34392.03s WALL (      26 calls)
     update_pot   :     51.26s CPU     51.62s WALL (      24 calls)
     forces       :    162.41s CPU    166.31s WALL (      26 calls)
     stress       :    497.94s CPU    508.95s WALL (      26 calls)

     Called by init_run:
     wfcinit      :     44.32s CPU     45.10s WALL (       2 calls)
     potinit      :      1.12s CPU      1.14s WALL (       2 calls)
     hinit0       :      2.05s CPU      2.08s WALL (       2 calls)

     Called by electrons:
     c_bands      :  20469.76s CPU  30608.15s WALL (     428 calls)
     sum_band     :   2967.02s CPU   3061.75s WALL (     428 calls)
     v_of_rho     :     23.24s CPU     23.45s WALL (     442 calls)
     newd         :    128.01s CPU    186.45s WALL (     442 calls)
     mix_rho      :      2.93s CPU      2.95s WALL (     428 calls)

     Called by c_bands:
     init_us_2    :    323.26s CPU    324.96s WALL (  349440 calls)
     cegterg      :  18404.82s CPU  18639.78s WALL (  164352 calls)

     Called by sum_band:
     sum_band:bec :      8.39s CPU      8.28s WALL (  164352 calls)
     addusdens    :    140.97s CPU    192.20s WALL (     428 calls)

     Called by *egterg:
     h_psi        :  11823.38s CPU  12039.00s WALL (  670485 calls)
     s_psi        :    723.10s CPU    724.26s WALL (  670485 calls)
     g_psi        :    125.70s CPU    126.79s WALL (  505365 calls)
     cdiaghg      :   2881.42s CPU   2886.41s WALL (  655893 calls)

     Called by h_psi:
     h_psi:pot    :  11760.82s CPU  11975.58s WALL (  670485 calls)
     h_psi:calbec :    808.58s CPU    811.62s WALL (  670485 calls)
     vloc_psi     :  10215.68s CPU  10423.61s WALL (  670485 calls)
     add_vuspsi   :    733.68s CPU    736.48s WALL (  670485 calls)

     General routines
     calbec       :   1188.03s CPU   1191.55s WALL (  884757 calls)
     fft          :     16.00s CPU     16.25s WALL (    6406 calls)
     ffts         :      0.44s CPU      0.45s WALL (     870 calls)
     fftw         :  11171.86s CPU  11374.90s WALL (46936176 calls)
     interpolate  :      1.24s CPU      1.25s WALL (     442 calls)
 
     Parallel routines
     fft_scatt_xy :   2156.93s CPU   2195.83s WALL (46943452 calls)
     fft_scatt_yz :   2569.54s CPU   2608.36s WALL (46943452 calls)
 
     PWSCF        :     6h45m CPU       45h 9m WALL

      47h
 
   This run was terminated on:  21:44:50  25Jan2020            

=------------------------------------------------------------------------------=
   JOB DONE.
=------------------------------------------------------------------------------=
