
     Program PWSCF v.6.3MaX starts on 21Mar2020 at 19: 0:24 

     This program is part of the open-source Quantum ESPRESSO suite
     for quantum simulation of materials; please cite
         "P. Giannozzi et al., J. Phys.:Condens. Matter 21 395502 (2009);
         "P. Giannozzi et al., J. Phys.:Condens. Matter 29 465901 (2017);
          URL http://www.quantum-espresso.org", 
     in publications or presentations arising from this work. More details at
     http://www.quantum-espresso.org/quote

     Parallel version (MPI), running on     4 processors

     MPI processes distributed on     1 nodes
     R & G space division:  proc/nbgrp/npool/nimage =       4
     Waiting for input...
     Reading input from standard input

     Current dimensions of program PWSCF are:
     Max number of different atomic species (ntypx) = 10
     Max number of k-points (npk) =  40000
     Max angular momentum in pseudopotentials (lmaxx) =  3
     Message from routine iosys:
     minimal I/O required, wf_collect reset to FALSE

     Subspace diagonalization in iterative solution of the eigenvalue problem:
     a serial algorithm will be used

 
     Parallelization info
     --------------------
     sticks:   dense  smooth     PW     G-vecs:    dense   smooth      PW
     Min        1724     689    246                36426     9226    1977
     Max        1725     691    247                36427     9227    1978
     Sum        6899    2761    985               145707    36905    7911
 


     bravais-lattice index     =            0
     lattice parameter (alat)  =       1.8897  a.u.
     unit-cell volume          =    1077.7903 (a.u.)^3
     number of atoms/cell      =            8
     number of atomic types    =            2
     number of electrons       =       100.00
     number of Kohn-Sham states=           60
     kinetic-energy cutoff     =      40.0000  Ry
     charge density cutoff     =     400.0000  Ry
     convergence threshold     =      1.0E-10
     mixing beta               =       0.6000
     number of iterations used =            8  plain     mixing
     Exchange-correlation      = SLA PW PBE PBE ( 1  4  3  4 0 0)
     nstep                     =           50


     celldm(1)=   1.889726  celldm(2)=   0.000000  celldm(3)=   0.000000
     celldm(4)=   0.000000  celldm(5)=   0.000000  celldm(6)=   0.000000

     crystal axes: (cart. coord. in units of alat)
               a(1) = (   1.522502   2.637051   9.944922 )  
               a(2) = (  -1.522502  -2.637051   9.944922 )  
               a(3) = (   3.045004   0.000000  -9.944922 )  

     reciprocal axes: (cart. coord. in units 2 pi/alat)
               b(1) = (  0.164203  0.094803  0.050277 )  
               b(2) = (  0.164203 -0.284409  0.050277 )  
               b(3) = (  0.328407 -0.189606  0.000000 )  


     PseudoPot. # 1 for Nb read from file:
     ./Nb.pbe-nsp-van.UPF
     MD5 check sum: 0a22fc7fb0ba19a08ca5db297a5d2854
     Pseudo is Ultrasoft + core correction, Zval = 13.0
     Generated by new atomic code, or converted to UPF format
     Using radial grid of  887 points,  6 beta functions with: 
                l(1) =   0
                l(2) =   0
                l(3) =   1
                l(4) =   1
                l(5) =   2
                l(6) =   2
     Q(r) pseudized with  6 coefficients,  rinner =    1.000   1.000   1.000
                                                       1.000   1.000

     PseudoPot. # 2 for Ti read from file:
     ./Ti.pbe-sp-van_ak.UPF
     MD5 check sum: f98fea3e8887528921fefa5636a534ca
     Pseudo is Ultrasoft, Zval = 12.0
     Generated by new atomic code, or converted to UPF format
     Using radial grid of  851 points,  6 beta functions with: 
                l(1) =   0
                l(2) =   0
                l(3) =   1
                l(4) =   1
                l(5) =   2
                l(6) =   2
     Q(r) pseudized with  8 coefficients,  rinner =    1.000   1.000   1.000
                                                       1.000   1.000

     atomic species   valence    mass     pseudopotential
        Nb            13.00    92.90638     Nb( 1.00)
        Ti            12.00    47.86700     Ti( 1.00)

      2 Sym. Ops. (no inversion) found



   Cartesian axes

     site n.     atom                  positions (alat units)
         1           Nb  tau(   1) = (   3.0450042   0.0000000   4.9724614  )
         2           Ti  tau(   2) = (   1.5225036   0.8790162   2.4862307  )
         3           Ti  tau(   3) = (   3.0450042   0.0000000   9.9449228  )
         4           Ti  tau(   4) = (   1.5225036   0.8790162   7.4586921  )
         5           Ti  tau(   5) = (   3.0450042   0.0000000  -4.9724614  )
         6           Nb  tau(   6) = (   1.5225036   0.8790162  12.4311534  )
         7           Nb  tau(   7) = (   3.0450042   0.0000000   0.0000000  )
         8           Nb  tau(   8) = (   0.0000015  -1.7580350   7.4586921  )

     number of k points=   282  Marzari-Vanderbilt smearing, width (Ry)=  0.0200

     Number of k-points >= 100: set verbosity='high' to print them.

     Dense  grid:   145707 G-vectors     FFT dimensions: ( 125, 125, 125)

     Smooth grid:    36905 G-vectors     FFT dimensions: (  80,  80,  80)

     Estimated max dynamical RAM per process >     468.99 MB

     Estimated total dynamical RAM >       1.83 GB

     Initial potential from superposition of free atoms

     starting charge   95.98889, renormalised to  100.00000
     Starting wfcs are   92 randomized atomic wfcs

     total cpu time spent up to now is       77.7 secs

     Self-consistent Calculation

     iteration #  1     ecut=    40.00 Ry     beta= 0.60
     Davidson diagonalization with overlap
     ethr =  1.00E-02,  avg # of iterations =  3.1

     total cpu time spent up to now is      241.9 secs

     total energy              =    -921.19297403 Ry
     Harris-Foulkes estimate   =    -941.49091421 Ry
     estimated scf accuracy    <      25.69846797 Ry

     iteration #  2     ecut=    40.00 Ry     beta= 0.60
     Davidson diagonalization with overlap
     ethr =  1.00E-02,  avg # of iterations =  5.6

     total cpu time spent up to now is      498.1 secs

     total energy              =    -934.62711907 Ry
     Harris-Foulkes estimate   =    -966.11047200 Ry
     estimated scf accuracy    <      89.22905976 Ry

     iteration #  3     ecut=    40.00 Ry     beta= 0.60
     Davidson diagonalization with overlap
     ethr =  1.00E-02,  avg # of iterations =  4.1

     total cpu time spent up to now is      686.2 secs

     total energy              =    -938.53213477 Ry
     Harris-Foulkes estimate   =    -943.05234099 Ry
     estimated scf accuracy    <      48.57399820 Ry

     iteration #  4     ecut=    40.00 Ry     beta= 0.60
     Davidson diagonalization with overlap
     ethr =  1.00E-02,  avg # of iterations =  2.1

     total cpu time spent up to now is      820.5 secs

     total energy              =    -939.79360185 Ry
     Harris-Foulkes estimate   =    -940.43270501 Ry
     estimated scf accuracy    <      13.31124240 Ry

     iteration #  5     ecut=    40.00 Ry     beta= 0.60
     Davidson diagonalization with overlap
     ethr =  1.00E-02,  avg # of iterations =  1.0

     total cpu time spent up to now is      946.9 secs

     total energy              =    -939.19384765 Ry
     Harris-Foulkes estimate   =    -939.87196116 Ry
     estimated scf accuracy    <      10.80509134 Ry

     iteration #  6     ecut=    40.00 Ry     beta= 0.60
     Davidson diagonalization with overlap
     ethr =  1.00E-02,  avg # of iterations =  1.0

     total cpu time spent up to now is     1073.2 secs

     total energy              =    -937.72739548 Ry
     Harris-Foulkes estimate   =    -939.25126732 Ry
     estimated scf accuracy    <       8.82844354 Ry

     iteration #  7     ecut=    40.00 Ry     beta= 0.60
     Davidson diagonalization with overlap
     ethr =  8.83E-03,  avg # of iterations =  2.6

     total cpu time spent up to now is     1206.1 secs

     total energy              =    -937.89054423 Ry
     Harris-Foulkes estimate   =    -938.09006020 Ry
     estimated scf accuracy    <       2.52426448 Ry

     iteration #  8     ecut=    40.00 Ry     beta= 0.60
     Davidson diagonalization with overlap
     ethr =  2.52E-03,  avg # of iterations =  5.2

     total cpu time spent up to now is     1386.1 secs

     total energy              =    -938.25409464 Ry
     Harris-Foulkes estimate   =    -938.31041675 Ry
     estimated scf accuracy    <       2.35390816 Ry

     iteration #  9     ecut=    40.00 Ry     beta= 0.60
     Davidson diagonalization with overlap
     ethr =  2.35E-03,  avg # of iterations =  1.7

     total cpu time spent up to now is     1516.4 secs

     total energy              =    -938.28869885 Ry
     Harris-Foulkes estimate   =    -938.37348585 Ry
     estimated scf accuracy    <       4.30236277 Ry

     iteration # 10     ecut=    40.00 Ry     beta= 0.60
     Davidson diagonalization with overlap
     ethr =  2.35E-03,  avg # of iterations =  1.1

     total cpu time spent up to now is     1644.5 secs

     total energy              =    -938.47341895 Ry
     Harris-Foulkes estimate   =    -938.34864671 Ry
     estimated scf accuracy    <       3.60002793 Ry

     iteration # 11     ecut=    40.00 Ry     beta= 0.60
     Davidson diagonalization with overlap
     ethr =  2.35E-03,  avg # of iterations =  2.2

     total cpu time spent up to now is     1776.2 secs

     total energy              =    -938.31195731 Ry
     Harris-Foulkes estimate   =    -938.59546820 Ry
     estimated scf accuracy    <       6.96565320 Ry

     iteration # 12     ecut=    40.00 Ry     beta= 0.60
     Davidson diagonalization with overlap
     ethr =  2.35E-03,  avg # of iterations =  1.1

     total cpu time spent up to now is     1901.8 secs

     total energy              =    -938.04631682 Ry
     Harris-Foulkes estimate   =    -938.39454289 Ry
     estimated scf accuracy    <       3.08976189 Ry

     iteration # 13     ecut=    40.00 Ry     beta= 0.60
     Davidson diagonalization with overlap
     ethr =  2.35E-03,  avg # of iterations =  1.3

     total cpu time spent up to now is     2028.1 secs

     total energy              =    -938.14944050 Ry
     Harris-Foulkes estimate   =    -938.19826810 Ry
     estimated scf accuracy    <       0.47472200 Ry

     iteration # 14     ecut=    40.00 Ry     beta= 0.60
     Davidson diagonalization with overlap
     ethr =  4.75E-04,  avg # of iterations =  5.5

     total cpu time spent up to now is     2228.7 secs

     total energy              =    -938.12191028 Ry
     Harris-Foulkes estimate   =    -938.38917358 Ry
     estimated scf accuracy    <       2.72289935 Ry

     iteration # 15     ecut=    40.00 Ry     beta= 0.60
     Davidson diagonalization with overlap
     ethr =  4.75E-04,  avg # of iterations =  4.1

     total cpu time spent up to now is     2371.7 secs

     total energy              =    -938.17345795 Ry
     Harris-Foulkes estimate   =    -938.18910583 Ry
     estimated scf accuracy    <       0.49217879 Ry

     iteration # 16     ecut=    40.00 Ry     beta= 0.60
     Davidson diagonalization with overlap
     ethr =  4.75E-04,  avg # of iterations =  2.6

     total cpu time spent up to now is     2503.3 secs

     total energy              =    -938.17040373 Ry
     Harris-Foulkes estimate   =    -938.18838487 Ry
     estimated scf accuracy    <       0.31941514 Ry

     iteration # 17     ecut=    40.00 Ry     beta= 0.60
     Davidson diagonalization with overlap
     ethr =  3.19E-04,  avg # of iterations =  3.3

     total cpu time spent up to now is     2638.1 secs

     total energy              =    -938.18075484 Ry
     Harris-Foulkes estimate   =    -938.18659711 Ry
     estimated scf accuracy    <       0.06293030 Ry

     iteration # 18     ecut=    40.00 Ry     beta= 0.60
     Davidson diagonalization with overlap
     ethr =  6.29E-05,  avg # of iterations =  6.1

     total cpu time spent up to now is     2838.2 secs

     total energy              =    -938.19126828 Ry
     Harris-Foulkes estimate   =    -938.19704082 Ry
     estimated scf accuracy    <       0.11300387 Ry

     iteration # 19     ecut=    40.00 Ry     beta= 0.60
     Davidson diagonalization with overlap
     ethr =  6.29E-05,  avg # of iterations =  1.0

     total cpu time spent up to now is     2963.6 secs

     total energy              =    -938.18995793 Ry
     Harris-Foulkes estimate   =    -938.19299204 Ry
     estimated scf accuracy    <       0.06688716 Ry

     iteration # 20     ecut=    40.00 Ry     beta= 0.60
     Davidson diagonalization with overlap
     ethr =  6.29E-05,  avg # of iterations =  1.0

     total cpu time spent up to now is     3089.1 secs

     total energy              =    -938.18934845 Ry
     Harris-Foulkes estimate   =    -938.19149901 Ry
     estimated scf accuracy    <       0.02665583 Ry

     iteration # 21     ecut=    40.00 Ry     beta= 0.60
     Davidson diagonalization with overlap
     ethr =  2.67E-05,  avg # of iterations =  3.1

     total cpu time spent up to now is     3223.1 secs

     total energy              =    -938.18960047 Ry
     Harris-Foulkes estimate   =    -938.19145958 Ry
     estimated scf accuracy    <       0.02070157 Ry

     iteration # 22     ecut=    40.00 Ry     beta= 0.60
     Davidson diagonalization with overlap
     ethr =  2.07E-05,  avg # of iterations =  1.1

     total cpu time spent up to now is     3349.9 secs

     total energy              =    -938.18996690 Ry
     Harris-Foulkes estimate   =    -938.19066613 Ry
     estimated scf accuracy    <       0.00507592 Ry

     iteration # 23     ecut=    40.00 Ry     beta= 0.60
     Davidson diagonalization with overlap
     ethr =  5.08E-06,  avg # of iterations =  5.8

     total cpu time spent up to now is     3538.0 secs

     total energy              =    -938.19083928 Ry
     Harris-Foulkes estimate   =    -938.19116922 Ry
     estimated scf accuracy    <       0.00304060 Ry

     iteration # 24     ecut=    40.00 Ry     beta= 0.60
     Davidson diagonalization with overlap
     ethr =  3.04E-06,  avg # of iterations =  1.1

     total cpu time spent up to now is     3665.0 secs

     total energy              =    -938.19080188 Ry
     Harris-Foulkes estimate   =    -938.19091729 Ry
     estimated scf accuracy    <       0.00083896 Ry

     iteration # 25     ecut=    40.00 Ry     beta= 0.60
     Davidson diagonalization with overlap
     ethr =  8.39E-07,  avg # of iterations =  3.9

     total cpu time spent up to now is     3828.5 secs

     total energy              =    -938.19094154 Ry
     Harris-Foulkes estimate   =    -938.19096034 Ry
     estimated scf accuracy    <       0.00023899 Ry

     iteration # 26     ecut=    40.00 Ry     beta= 0.60
     Davidson diagonalization with overlap
     ethr =  2.39E-07,  avg # of iterations =  1.8

     total cpu time spent up to now is     3958.0 secs

     total energy              =    -938.19093415 Ry
     Harris-Foulkes estimate   =    -938.19096050 Ry
     estimated scf accuracy    <       0.00035465 Ry

     iteration # 27     ecut=    40.00 Ry     beta= 0.60
     Davidson diagonalization with overlap
     ethr =  2.39E-07,  avg # of iterations =  1.3

     total cpu time spent up to now is     4085.0 secs

     total energy              =    -938.19094118 Ry
     Harris-Foulkes estimate   =    -938.19094864 Ry
     estimated scf accuracy    <       0.00011888 Ry

     iteration # 28     ecut=    40.00 Ry     beta= 0.60
     Davidson diagonalization with overlap
     ethr =  1.19E-07,  avg # of iterations =  1.1

     total cpu time spent up to now is     4210.4 secs

     total energy              =    -938.19093939 Ry
     Harris-Foulkes estimate   =    -938.19094556 Ry
     estimated scf accuracy    <       0.00004592 Ry

     iteration # 29     ecut=    40.00 Ry     beta= 0.60
     Davidson diagonalization with overlap
     ethr =  4.59E-08,  avg # of iterations =  3.7

     total cpu time spent up to now is     4363.6 secs

     total energy              =    -938.19094387 Ry
     Harris-Foulkes estimate   =    -938.19094524 Ry
     estimated scf accuracy    <       0.00000659 Ry

     iteration # 30     ecut=    40.00 Ry     beta= 0.60
     Davidson diagonalization with overlap
     ethr =  6.59E-09,  avg # of iterations =  4.7

     total cpu time spent up to now is     4537.6 secs

     total energy              =    -938.19094225 Ry
     Harris-Foulkes estimate   =    -938.19094788 Ry
     estimated scf accuracy    <       0.00009310 Ry

     iteration # 31     ecut=    40.00 Ry     beta= 0.60
     Davidson diagonalization with overlap
     ethr =  6.59E-09,  avg # of iterations =  4.3

     total cpu time spent up to now is     4695.4 secs

     total energy              =    -938.19094490 Ry
     Harris-Foulkes estimate   =    -938.19094495 Ry
     estimated scf accuracy    <       0.00000023 Ry

     iteration # 32     ecut=    40.00 Ry     beta= 0.60
     Davidson diagonalization with overlap
     ethr =  2.28E-10,  avg # of iterations =  5.2

     total cpu time spent up to now is     4882.1 secs

     total energy              =    -938.19094492 Ry
     Harris-Foulkes estimate   =    -938.19094506 Ry
     estimated scf accuracy    <       0.00000134 Ry

     iteration # 33     ecut=    40.00 Ry     beta= 0.60
     Davidson diagonalization with overlap
     ethr =  2.28E-10,  avg # of iterations =  4.4

     total cpu time spent up to now is     5039.8 secs

     total energy              =    -938.19094499 Ry
     Harris-Foulkes estimate   =    -938.19094501 Ry
     estimated scf accuracy    <       0.00000020 Ry

     iteration # 34     ecut=    40.00 Ry     beta= 0.60
     Davidson diagonalization with overlap
     ethr =  1.96E-10,  avg # of iterations =  1.1

     total cpu time spent up to now is     5167.4 secs

     total energy              =    -938.19094499 Ry
     Harris-Foulkes estimate   =    -938.19094500 Ry
     estimated scf accuracy    <       0.00000005 Ry

     iteration # 35     ecut=    40.00 Ry     beta= 0.60
     Davidson diagonalization with overlap
     ethr =  4.64E-11,  avg # of iterations =  3.7

     total cpu time spent up to now is     5318.7 secs

     total energy              =    -938.19094500 Ry
     Harris-Foulkes estimate   =    -938.19094500 Ry
     estimated scf accuracy    <          9.8E-09 Ry

     iteration # 36     ecut=    40.00 Ry     beta= 0.60
     Davidson diagonalization with overlap
     ethr =  9.82E-12,  avg # of iterations =  3.0

     total cpu time spent up to now is     5461.5 secs

     total energy              =    -938.19094500 Ry
     Harris-Foulkes estimate   =    -938.19094500 Ry
     estimated scf accuracy    <          6.5E-09 Ry

     iteration # 37     ecut=    40.00 Ry     beta= 0.60
     Davidson diagonalization with overlap
     ethr =  6.54E-12,  avg # of iterations =  3.6

     total cpu time spent up to now is     5618.0 secs

     total energy              =    -938.19094500 Ry
     Harris-Foulkes estimate   =    -938.19094500 Ry
     estimated scf accuracy    <       0.00000001 Ry

     iteration # 38     ecut=    40.00 Ry     beta= 0.60
     Davidson diagonalization with overlap
     ethr =  6.54E-12,  avg # of iterations =  3.1

     total cpu time spent up to now is     5762.9 secs

     total energy              =    -938.19094500 Ry
     Harris-Foulkes estimate   =    -938.19094500 Ry
     estimated scf accuracy    <          5.2E-09 Ry

     iteration # 39     ecut=    40.00 Ry     beta= 0.60
     Davidson diagonalization with overlap
     ethr =  5.19E-12,  avg # of iterations =  1.0

     total cpu time spent up to now is     5891.0 secs

     total energy              =    -938.19094500 Ry
     Harris-Foulkes estimate   =    -938.19094500 Ry
     estimated scf accuracy    <          3.3E-10 Ry

     iteration # 40     ecut=    40.00 Ry     beta= 0.60
     Davidson diagonalization with overlap
     ethr =  3.30E-13,  avg # of iterations =  4.6

     total cpu time spent up to now is     6069.4 secs

     total energy              =    -938.19094500 Ry
     Harris-Foulkes estimate   =    -938.19094500 Ry
     estimated scf accuracy    <          5.6E-10 Ry

     iteration # 41     ecut=    40.00 Ry     beta= 0.60
     Davidson diagonalization with overlap
     ethr =  3.30E-13,  avg # of iterations =  1.0

     total cpu time spent up to now is     6198.7 secs

     End of self-consistent calculation

     Number of k-points >= 100: set verbosity='high' to print the bands.

     the Fermi energy is    13.8428 ev

!    total energy              =    -938.19094500 Ry
     Harris-Foulkes estimate   =    -938.19094500 Ry
     estimated scf accuracy    <          6.1E-11 Ry

     The total energy is the sum of the following terms:

     one-electron contribution =    -272.54196561 Ry
     hartree contribution      =     170.10647137 Ry
     xc contribution           =    -130.99043617 Ry
     ewald contribution        =    -704.75451045 Ry
     smearing contrib. (-TS)   =      -0.01050414 Ry

     convergence has been achieved in  41 iterations

     Forces acting on atoms (cartesian axes, Ry/au):

     atom    1 type  1   force =     0.00387612    0.00223788   -0.00367177
     atom    2 type  2   force =     0.00043968    0.00025385   -0.00164296
     atom    3 type  2   force =    -0.00115642   -0.00066766   -0.00349976
     atom    4 type  2   force =     0.00115537    0.00066705    0.00355345
     atom    5 type  2   force =    -0.00043928   -0.00025362    0.00160934
     atom    6 type  1   force =    -0.00387655   -0.00223813    0.00366655
     atom    7 type  1   force =     0.00244356    0.00141079    0.00872134
     atom    8 type  1   force =    -0.00244247   -0.00141016   -0.00873619

     Total force =     0.016418     Total SCF correction =     0.000015


     Computing stress (Cartesian axis) and pressure

          total   stress  (Ry/bohr**3)                   (kbar)     P= -126.07
  -0.00089281   0.00003186  -0.00000664       -131.34      4.69     -0.98
   0.00003186  -0.00092959  -0.00000383          4.69   -136.75     -0.56
  -0.00000664  -0.00000383  -0.00074872         -0.98     -0.56   -110.14


     BFGS Geometry Optimization

     number of scf cycles    =   1
     number of bfgs steps    =   0

     enthalpy new            =    -938.1909449992 Ry

     new trust radius        =       0.1526820677 bohr
     new conv_thr            =            1.0E-10 Ry

     new unit-cell volume =   1009.97924 a.u.^3 (   149.66348 Ang^3 )
     density =      6.24761 g/cm^3

CELL_PARAMETERS (alat=  1.88972599)
   1.488969062   2.576026019   9.758268046
  -1.492270410  -2.577932053   9.759278875
   2.978689691   0.003378150  -9.759278875

ATOMIC_POSITIONS (angstrom)
Nb       2.978220316   0.003107156   4.876974212
Ti       1.489036129   0.859693755   2.438503225
Ti       2.974790076   0.001126706   9.756450852
Ti       1.488580785   0.859430862   7.320588226
Ti       2.977636839   0.002770286  -4.879056408
Nb       1.485150869   0.857450600  12.200034275
Nb       2.978303063   0.003154930   0.004023047
Nb      -0.003900146  -1.718622735   7.314712395


     NEW-OLD atomic charge density approx. for the potential

     Check: negative/imaginary core charge=   -0.000001    0.000000
     extrapolated charge   93.55520, renormalised to  100.00000

     total cpu time spent up to now is     6223.3 secs

     Self-consistent Calculation

     iteration #  1     ecut=    40.00 Ry     beta= 0.60
     Davidson diagonalization with overlap
     c_bands:  1 eigenvalues not converged
     c_bands:  1 eigenvalues not converged
     c_bands:  1 eigenvalues not converged
     c_bands:  1 eigenvalues not converged
     c_bands:  1 eigenvalues not converged
     c_bands:  2 eigenvalues not converged
     c_bands:  1 eigenvalues not converged
     c_bands:  1 eigenvalues not converged
     c_bands:  1 eigenvalues not converged
     c_bands:  1 eigenvalues not converged
     c_bands:  1 eigenvalues not converged
     c_bands:  1 eigenvalues not converged
     c_bands:  2 eigenvalues not converged
     c_bands:  3 eigenvalues not converged
     c_bands:  1 eigenvalues not converged
     c_bands:  1 eigenvalues not converged
     c_bands:  1 eigenvalues not converged
     c_bands:  2 eigenvalues not converged
     c_bands:  1 eigenvalues not converged
     c_bands:  1 eigenvalues not converged
     c_bands:  5 eigenvalues not converged
     c_bands:  1 eigenvalues not converged
     c_bands:  3 eigenvalues not converged
     c_bands:  1 eigenvalues not converged
     c_bands:  1 eigenvalues not converged
     c_bands:  1 eigenvalues not converged
     c_bands:  2 eigenvalues not converged
     c_bands:  1 eigenvalues not converged
     c_bands:  1 eigenvalues not converged
     c_bands:  1 eigenvalues not converged
     c_bands:  1 eigenvalues not converged
     c_bands:  1 eigenvalues not converged
     c_bands:  1 eigenvalues not converged
     c_bands:  1 eigenvalues not converged
     c_bands:  1 eigenvalues not converged
     c_bands:  1 eigenvalues not converged
     c_bands:  1 eigenvalues not converged
     c_bands:  1 eigenvalues not converged
     c_bands:  1 eigenvalues not converged
     c_bands:  1 eigenvalues not converged
     c_bands:  3 eigenvalues not converged
     c_bands:  1 eigenvalues not converged
     c_bands:  5 eigenvalues not converged
     c_bands:  1 eigenvalues not converged
     c_bands:  3 eigenvalues not converged
     c_bands:  1 eigenvalues not converged
     c_bands:  1 eigenvalues not converged
     c_bands:  1 eigenvalues not converged
     c_bands:  1 eigenvalues not converged
     c_bands:  1 eigenvalues not converged
     c_bands:  1 eigenvalues not converged
     c_bands:  1 eigenvalues not converged
     c_bands:  4 eigenvalues not converged
     c_bands:  2 eigenvalues not converged
     c_bands:  1 eigenvalues not converged
     c_bands:  1 eigenvalues not converged
     c_bands:  2 eigenvalues not converged
     c_bands:  4 eigenvalues not converged
     c_bands:  1 eigenvalues not converged
     c_bands:  2 eigenvalues not converged
     c_bands:  1 eigenvalues not converged
     c_bands:  1 eigenvalues not converged
     c_bands:  3 eigenvalues not converged
     c_bands:  2 eigenvalues not converged
     c_bands:  1 eigenvalues not converged
     c_bands:  1 eigenvalues not converged
     c_bands:  1 eigenvalues not converged
     c_bands:  2 eigenvalues not converged
     c_bands:  4 eigenvalues not converged
     c_bands:  1 eigenvalues not converged
     c_bands:  2 eigenvalues not converged
     c_bands:  1 eigenvalues not converged
     c_bands:  2 eigenvalues not converged
     c_bands:  1 eigenvalues not converged
     c_bands:  3 eigenvalues not converged
     c_bands:  1 eigenvalues not converged
     c_bands:  1 eigenvalues not converged
     c_bands:  3 eigenvalues not converged
     c_bands:  2 eigenvalues not converged
     c_bands:  3 eigenvalues not converged
     c_bands:  1 eigenvalues not converged
     c_bands:  2 eigenvalues not converged
     c_bands:  2 eigenvalues not converged
     c_bands:  3 eigenvalues not converged
     c_bands:  1 eigenvalues not converged
     c_bands:  1 eigenvalues not converged
     c_bands:  2 eigenvalues not converged
     c_bands:  1 eigenvalues not converged
     c_bands:  1 eigenvalues not converged
     c_bands:  2 eigenvalues not converged
     c_bands:  2 eigenvalues not converged
     c_bands:  1 eigenvalues not converged
     c_bands:  2 eigenvalues not converged
     c_bands:  2 eigenvalues not converged
     c_bands:  2 eigenvalues not converged
     c_bands:  2 eigenvalues not converged
     c_bands:  2 eigenvalues not converged
     c_bands:  2 eigenvalues not converged
     c_bands:  2 eigenvalues not converged
     c_bands:  1 eigenvalues not converged
     c_bands:  3 eigenvalues not converged
     c_bands:  2 eigenvalues not converged
     c_bands:  4 eigenvalues not converged
     c_bands:  2 eigenvalues not converged
     c_bands:  1 eigenvalues not converged
     c_bands:  2 eigenvalues not converged
     c_bands:  1 eigenvalues not converged
     c_bands:  1 eigenvalues not converged
     c_bands:  3 eigenvalues not converged
     c_bands:  1 eigenvalues not converged
     c_bands:  1 eigenvalues not converged
     c_bands:  1 eigenvalues not converged
     c_bands:  1 eigenvalues not converged
     c_bands:  1 eigenvalues not converged
     c_bands:  1 eigenvalues not converged
     c_bands:  2 eigenvalues not converged
     c_bands:  1 eigenvalues not converged
     c_bands:  1 eigenvalues not converged
     c_bands:  1 eigenvalues not converged
     c_bands:  2 eigenvalues not converged
     c_bands:  1 eigenvalues not converged
     c_bands:  1 eigenvalues not converged
     c_bands:  1 eigenvalues not converged
     c_bands:  1 eigenvalues not converged
     c_bands:  1 eigenvalues not converged
     c_bands:  1 eigenvalues not converged
     c_bands:  2 eigenvalues not converged
     c_bands:  1 eigenvalues not converged
     c_bands:  1 eigenvalues not converged
     c_bands:  1 eigenvalues not converged
     c_bands:  2 eigenvalues not converged
     c_bands:  1 eigenvalues not converged
     c_bands:  1 eigenvalues not converged
     c_bands:  1 eigenvalues not converged
     c_bands:  2 eigenvalues not converged
     c_bands:  1 eigenvalues not converged
     c_bands:  1 eigenvalues not converged
     c_bands:  1 eigenvalues not converged
     c_bands:  1 eigenvalues not converged
     c_bands:  1 eigenvalues not converged
     c_bands:  1 eigenvalues not converged
     c_bands:  1 eigenvalues not converged
     c_bands:  1 eigenvalues not converged
     c_bands:  1 eigenvalues not converged
     c_bands:  3 eigenvalues not converged
     c_bands:  2 eigenvalues not converged
     c_bands:  2 eigenvalues not converged
     c_bands:  5 eigenvalues not converged
     c_bands:  2 eigenvalues not converged
     c_bands:  1 eigenvalues not converged
     c_bands:  1 eigenvalues not converged
     c_bands:  3 eigenvalues not converged
     c_bands:  1 eigenvalues not converged
     c_bands:  1 eigenvalues not converged
     c_bands:  1 eigenvalues not converged
     c_bands:  1 eigenvalues not converged
     c_bands:  3 eigenvalues not converged
     c_bands:  2 eigenvalues not converged
     c_bands:  4 eigenvalues not converged
     c_bands:  1 eigenvalues not converged
     c_bands:  1 eigenvalues not converged
     c_bands:  3 eigenvalues not converged
     c_bands:  1 eigenvalues not converged
     c_bands:  1 eigenvalues not converged
     c_bands:  2 eigenvalues not converged
     c_bands:  4 eigenvalues not converged
     c_bands:  2 eigenvalues not converged
     c_bands:  1 eigenvalues not converged
     c_bands:  2 eigenvalues not converged
     c_bands:  3 eigenvalues not converged
     c_bands:  3 eigenvalues not converged
     c_bands:  1 eigenvalues not converged
     c_bands:  3 eigenvalues not converged
     c_bands:  2 eigenvalues not converged
     c_bands:  3 eigenvalues not converged
     ethr =  1.00E-06,  avg # of iterations = 19.7

     total cpu time spent up to now is     6735.9 secs

     total energy              =    -927.97903883 Ry
     Harris-Foulkes estimate   =    -950.40271673 Ry
     estimated scf accuracy    <      10.93420794 Ry

     iteration #  2     ecut=    40.00 Ry     beta= 0.60
     Davidson diagonalization with overlap
     ethr =  1.00E-02,  avg # of iterations =  5.6

     total cpu time spent up to now is     6976.6 secs

     total energy              =    -937.13602938 Ry
     Harris-Foulkes estimate   =    -953.70989818 Ry
     estimated scf accuracy    <      53.75979089 Ry

     iteration #  3     ecut=    40.00 Ry     beta= 0.60
     Davidson diagonalization with overlap
     ethr =  1.00E-02,  avg # of iterations =  3.6

     total cpu time spent up to now is     7141.9 secs

     total energy              =    -937.62427116 Ry
     Harris-Foulkes estimate   =    -941.79267660 Ry
     estimated scf accuracy    <      34.11102549 Ry

     iteration #  4     ecut=    40.00 Ry     beta= 0.60
     Davidson diagonalization with overlap
     ethr =  1.00E-02,  avg # of iterations =  3.3

     total cpu time spent up to now is     7285.0 secs

     total energy              =    -938.05219543 Ry
     Harris-Foulkes estimate   =    -940.92644019 Ry
     estimated scf accuracy    <      25.69313630 Ry

     iteration #  5     ecut=    40.00 Ry     beta= 0.60
     Davidson diagonalization with overlap
     ethr =  1.00E-02,  avg # of iterations =  1.5

     total cpu time spent up to now is     7412.0 secs

     total energy              =    -938.27683834 Ry
     Harris-Foulkes estimate   =    -938.89612768 Ry
     estimated scf accuracy    <       5.88247095 Ry

     iteration #  6     ecut=    40.00 Ry     beta= 0.60
     Davidson diagonalization with overlap
     ethr =  5.88E-03,  avg # of iterations =  2.1

     total cpu time spent up to now is     7545.4 secs

     total energy              =    -938.26329598 Ry
     Harris-Foulkes estimate   =    -938.45360048 Ry
     estimated scf accuracy    <       3.12302828 Ry

     iteration #  7     ecut=    40.00 Ry     beta= 0.60
     Davidson diagonalization with overlap
     ethr =  3.12E-03,  avg # of iterations =  2.6

     total cpu time spent up to now is     7676.4 secs

     total energy              =    -938.25906951 Ry
     Harris-Foulkes estimate   =    -938.35611215 Ry
     estimated scf accuracy    <       2.17018963 Ry

     iteration #  8     ecut=    40.00 Ry     beta= 0.60
     Davidson diagonalization with overlap
     ethr =  2.17E-03,  avg # of iterations =  3.2

     total cpu time spent up to now is     7811.1 secs

     total energy              =    -938.28749366 Ry
     Harris-Foulkes estimate   =    -938.33290281 Ry
     estimated scf accuracy    <       1.25090645 Ry

     iteration #  9     ecut=    40.00 Ry     beta= 0.60
     Davidson diagonalization with overlap
     ethr =  1.25E-03,  avg # of iterations =  2.9

     total cpu time spent up to now is     7942.7 secs

     total energy              =    -938.24059928 Ry
     Harris-Foulkes estimate   =    -938.31368763 Ry
     estimated scf accuracy    <       0.99984540 Ry

     iteration # 10     ecut=    40.00 Ry     beta= 0.60
     Davidson diagonalization with overlap
     ethr =  1.00E-03,  avg # of iterations =  2.9

     total cpu time spent up to now is     8076.0 secs

     total energy              =    -938.08589569 Ry
     Harris-Foulkes estimate   =    -938.26576807 Ry
     estimated scf accuracy    <       0.56739635 Ry

     iteration # 11     ecut=    40.00 Ry     beta= 0.60
     Davidson diagonalization with overlap
     ethr =  5.67E-04,  avg # of iterations =  5.1

     total cpu time spent up to now is     8273.5 secs

     total energy              =    -938.23329912 Ry
     Harris-Foulkes estimate   =    -938.26793369 Ry
     estimated scf accuracy    <       0.43542302 Ry

     iteration # 12     ecut=    40.00 Ry     beta= 0.60
     Davidson diagonalization with overlap
     ethr =  4.35E-04,  avg # of iterations =  1.0

     total cpu time spent up to now is     8398.3 secs

     total energy              =    -938.21552954 Ry
     Harris-Foulkes estimate   =    -938.24129456 Ry
     estimated scf accuracy    <       0.19752523 Ry

     iteration # 13     ecut=    40.00 Ry     beta= 0.60
     Davidson diagonalization with overlap
     ethr =  1.98E-04,  avg # of iterations =  3.1

     total cpu time spent up to now is     8543.7 secs

     total energy              =    -938.23281379 Ry
     Harris-Foulkes estimate   =    -938.23394786 Ry
     estimated scf accuracy    <       0.00341673 Ry

     iteration # 14     ecut=    40.00 Ry     beta= 0.60
     Davidson diagonalization with overlap
     ethr =  3.42E-06,  avg # of iterations =  6.7

     total cpu time spent up to now is     8774.1 secs

     total energy              =    -938.23196739 Ry
     Harris-Foulkes estimate   =    -938.23738386 Ry
     estimated scf accuracy    <       0.05457706 Ry

     iteration # 15     ecut=    40.00 Ry     beta= 0.60
     Davidson diagonalization with overlap
     ethr =  3.42E-06,  avg # of iterations =  5.6

     total cpu time spent up to now is     8974.8 secs

     total energy              =    -938.23419586 Ry
     Harris-Foulkes estimate   =    -938.23582585 Ry
     estimated scf accuracy    <       0.01481845 Ry

     iteration # 16     ecut=    40.00 Ry     beta= 0.60
     Davidson diagonalization with overlap
     ethr =  3.42E-06,  avg # of iterations =  4.0

     total cpu time spent up to now is     9130.9 secs

     total energy              =    -938.23467230 Ry
     Harris-Foulkes estimate   =    -938.23526189 Ry
     estimated scf accuracy    <       0.00622754 Ry

     iteration # 17     ecut=    40.00 Ry     beta= 0.60
     Davidson diagonalization with overlap
     ethr =  3.42E-06,  avg # of iterations =  1.3

     total cpu time spent up to now is     9256.2 secs

     total energy              =    -938.23491952 Ry
     Harris-Foulkes estimate   =    -938.23499972 Ry
     estimated scf accuracy    <       0.00058299 Ry

     iteration # 18     ecut=    40.00 Ry     beta= 0.60
     Davidson diagonalization with overlap
     ethr =  5.83E-07,  avg # of iterations =  4.3

     total cpu time spent up to now is     9426.3 secs

     total energy              =    -938.23481631 Ry
     Harris-Foulkes estimate   =    -938.23523484 Ry
     estimated scf accuracy    <       0.00576422 Ry

     iteration # 19     ecut=    40.00 Ry     beta= 0.60
     Davidson diagonalization with overlap
     ethr =  5.83E-07,  avg # of iterations =  4.0

     total cpu time spent up to now is     9579.2 secs

     total energy              =    -938.23499882 Ry
     Harris-Foulkes estimate   =    -938.23503704 Ry
     estimated scf accuracy    <       0.00033601 Ry

     iteration # 20     ecut=    40.00 Ry     beta= 0.60
     Davidson diagonalization with overlap
     ethr =  3.36E-07,  avg # of iterations =  2.0

     total cpu time spent up to now is     9709.8 secs

     total energy              =    -938.23501440 Ry
     Harris-Foulkes estimate   =    -938.23502680 Ry
     estimated scf accuracy    <       0.00007653 Ry

     iteration # 21     ecut=    40.00 Ry     beta= 0.60
     Davidson diagonalization with overlap
     ethr =  7.65E-08,  avg # of iterations =  3.8

     total cpu time spent up to now is     9865.2 secs

     total energy              =    -938.23502154 Ry
     Harris-Foulkes estimate   =    -938.23502960 Ry
     estimated scf accuracy    <       0.00006447 Ry

     iteration # 22     ecut=    40.00 Ry     beta= 0.60
     Davidson diagonalization with overlap
     ethr =  6.45E-08,  avg # of iterations =  1.2

     total cpu time spent up to now is     9991.9 secs

     total energy              =    -938.23502334 Ry
     Harris-Foulkes estimate   =    -938.23502720 Ry
     estimated scf accuracy    <       0.00002216 Ry

     iteration # 23     ecut=    40.00 Ry     beta= 0.60
     Davidson diagonalization with overlap
     ethr =  2.22E-08,  avg # of iterations =  3.6

     total cpu time spent up to now is    10138.5 secs

     total energy              =    -938.23502537 Ry
     Harris-Foulkes estimate   =    -938.23502652 Ry
     estimated scf accuracy    <       0.00000858 Ry

     iteration # 24     ecut=    40.00 Ry     beta= 0.60
     Davidson diagonalization with overlap
     ethr =  8.58E-09,  avg # of iterations =  2.8

     total cpu time spent up to now is    10272.2 secs

     total energy              =    -938.23502588 Ry
     Harris-Foulkes estimate   =    -938.23502610 Ry
     estimated scf accuracy    <       0.00000078 Ry

     iteration # 25     ecut=    40.00 Ry     beta= 0.60
     Davidson diagonalization with overlap
     ethr =  7.76E-10,  avg # of iterations =  4.9

     total cpu time spent up to now is    10455.1 secs

     total energy              =    -938.23502566 Ry
     Harris-Foulkes estimate   =    -938.23502667 Ry
     estimated scf accuracy    <       0.00001028 Ry

     iteration # 26     ecut=    40.00 Ry     beta= 0.60
     Davidson diagonalization with overlap
     ethr =  7.76E-10,  avg # of iterations =  4.2

     total cpu time spent up to now is    10630.9 secs

     total energy              =    -938.23502610 Ry
     Harris-Foulkes estimate   =    -938.23502619 Ry
     estimated scf accuracy    <       0.00000080 Ry

     iteration # 27     ecut=    40.00 Ry     beta= 0.60
     Davidson diagonalization with overlap
     ethr =  7.76E-10,  avg # of iterations =  1.6

     total cpu time spent up to now is    10760.1 secs

     total energy              =    -938.23502612 Ry
     Harris-Foulkes estimate   =    -938.23502620 Ry
     estimated scf accuracy    <       0.00000088 Ry

     iteration # 28     ecut=    40.00 Ry     beta= 0.60
     Davidson diagonalization with overlap
     ethr =  7.76E-10,  avg # of iterations =  1.0

     total cpu time spent up to now is    10887.8 secs

     total energy              =    -938.23502612 Ry
     Harris-Foulkes estimate   =    -938.23502617 Ry
     estimated scf accuracy    <       0.00000024 Ry

     iteration # 29     ecut=    40.00 Ry     beta= 0.60
     Davidson diagonalization with overlap
     ethr =  2.40E-10,  avg # of iterations =  4.1

     total cpu time spent up to now is    11042.6 secs

     total energy              =    -938.23502609 Ry
     Harris-Foulkes estimate   =    -938.23502623 Ry
     estimated scf accuracy    <       0.00000226 Ry

     iteration # 30     ecut=    40.00 Ry     beta= 0.60
     Davidson diagonalization with overlap
     ethr =  2.40E-10,  avg # of iterations =  4.0

     total cpu time spent up to now is    11193.5 secs

     total energy              =    -938.23502616 Ry
     Harris-Foulkes estimate   =    -938.23502616 Ry
     estimated scf accuracy    <       0.00000008 Ry

     iteration # 31     ecut=    40.00 Ry     beta= 0.60
     Davidson diagonalization with overlap
     ethr =  7.52E-11,  avg # of iterations =  2.2

     total cpu time spent up to now is    11325.5 secs

     total energy              =    -938.23502616 Ry
     Harris-Foulkes estimate   =    -938.23502616 Ry
     estimated scf accuracy    <          7.7E-09 Ry

     iteration # 32     ecut=    40.00 Ry     beta= 0.60
     Davidson diagonalization with overlap
     ethr =  7.71E-12,  avg # of iterations =  4.3

     total cpu time spent up to now is    11495.4 secs

     total energy              =    -938.23502616 Ry
     Harris-Foulkes estimate   =    -938.23502616 Ry
     estimated scf accuracy    <          4.1E-09 Ry

     iteration # 33     ecut=    40.00 Ry     beta= 0.60
     Davidson diagonalization with overlap
     ethr =  4.08E-12,  avg # of iterations =  3.2

     total cpu time spent up to now is    11632.6 secs

     total energy              =    -938.23502616 Ry
     Harris-Foulkes estimate   =    -938.23502616 Ry
     estimated scf accuracy    <          2.8E-09 Ry

     iteration # 34     ecut=    40.00 Ry     beta= 0.60
     Davidson diagonalization with overlap
     ethr =  2.84E-12,  avg # of iterations =  2.8

     total cpu time spent up to now is    11771.2 secs

     total energy              =    -938.23502616 Ry
     Harris-Foulkes estimate   =    -938.23502616 Ry
     estimated scf accuracy    <          5.8E-10 Ry

     iteration # 35     ecut=    40.00 Ry     beta= 0.60
     Davidson diagonalization with overlap
     ethr =  5.75E-13,  avg # of iterations =  4.7

     total cpu time spent up to now is    11955.2 secs

     total energy              =    -938.23502616 Ry
     Harris-Foulkes estimate   =    -938.23502616 Ry
     estimated scf accuracy    <          5.2E-09 Ry

     iteration # 36     ecut=    40.00 Ry     beta= 0.60
     Davidson diagonalization with overlap
     ethr =  5.75E-13,  avg # of iterations =  4.1

     total cpu time spent up to now is    12127.8 secs

     total energy              =    -938.23502616 Ry
     Harris-Foulkes estimate   =    -938.23502616 Ry
     estimated scf accuracy    <          3.4E-10 Ry

     iteration # 37     ecut=    40.00 Ry     beta= 0.60
     Davidson diagonalization with overlap
     ethr =  3.39E-13,  avg # of iterations =  1.2

     total cpu time spent up to now is    12255.4 secs

     End of self-consistent calculation

     Number of k-points >= 100: set verbosity='high' to print the bands.

     the Fermi energy is    14.9480 ev

!    total energy              =    -938.23502616 Ry
     Harris-Foulkes estimate   =    -938.23502616 Ry
     estimated scf accuracy    <          6.6E-11 Ry

     The total energy is the sum of the following terms:

     one-electron contribution =    -249.97206812 Ry
     hartree contribution      =     163.36898253 Ry
     xc contribution           =    -131.43951963 Ry
     ewald contribution        =    -720.18319451 Ry
     smearing contrib. (-TS)   =      -0.00922644 Ry

     convergence has been achieved in  37 iterations

     Forces acting on atoms (cartesian axes, Ry/au):

     atom    1 type  1   force =     0.00147344    0.00085069   -0.00349091
     atom    2 type  2   force =    -0.00205279   -0.00118518   -0.00119314
     atom    3 type  2   force =    -0.00044734   -0.00025827   -0.00497237
     atom    4 type  2   force =     0.00044699    0.00025807    0.00499262
     atom    5 type  2   force =     0.00205423    0.00118601    0.00118617
     atom    6 type  1   force =    -0.00147366   -0.00085082    0.00348787
     atom    7 type  1   force =     0.00243380    0.00140516    0.00947810
     atom    8 type  1   force =    -0.00243467   -0.00140566   -0.00948833

     Total force =     0.017031     Total SCF correction =     0.000026


     Computing stress (Cartesian axis) and pressure

          total   stress  (Ry/bohr**3)                   (kbar)     P=  -57.87
  -0.00043822   0.00003244  -0.00000645        -64.46      4.77     -0.95
   0.00003244  -0.00047568  -0.00000372          4.77    -69.98     -0.55
  -0.00000645  -0.00000372  -0.00026634         -0.95     -0.55    -39.18


     number of scf cycles    =   2
     number of bfgs steps    =   1

     enthalpy old            =    -938.1909449992 Ry
     enthalpy new            =    -938.2350261624 Ry

     CASE: enthalpy_new < enthalpy_old

     new trust radius        =       0.1377992112 bohr
     new conv_thr            =            1.0E-10 Ry

     new unit-cell volume =    956.73505 a.u.^3 (   141.77350 Ang^3 )
     density =      6.59530 g/cm^3

CELL_PARAMETERS (alat=  1.88972599)
   1.460301845   2.520875405   9.639220300
  -1.469280174  -2.526059045   9.641967960
   2.922271227   0.009404527  -9.641967960

ATOMIC_POSITIONS (angstrom)
Nb       2.918872519   0.007442282   4.813816416
Ti       1.458117804   0.841843092   2.407286604
Ti       2.912295527   0.003645055   9.632855014
Ti       1.458488765   0.842057266   7.235941535
Ti       2.921647214   0.009044254  -4.819748794
Nb       1.451912226   0.838260300  12.054928098
Nb       2.921229647   0.008803171   0.011830030
Nb      -0.010746527  -1.683975866   7.217682580


     NEW-OLD atomic charge density approx. for the potential

     Check: negative/imaginary core charge=   -0.000001    0.000000
     extrapolated charge   94.65803, renormalised to  100.00000

     total cpu time spent up to now is    12280.4 secs

     Self-consistent Calculation

     iteration #  1     ecut=    40.00 Ry     beta= 0.60
     Davidson diagonalization with overlap
     c_bands:  1 eigenvalues not converged
     c_bands:  1 eigenvalues not converged
     c_bands:  1 eigenvalues not converged
     c_bands:  1 eigenvalues not converged
     c_bands:  4 eigenvalues not converged
     c_bands:  1 eigenvalues not converged
     c_bands:  2 eigenvalues not converged
     c_bands:  2 eigenvalues not converged
     c_bands:  1 eigenvalues not converged
     c_bands:  3 eigenvalues not converged
     c_bands:  1 eigenvalues not converged
     c_bands:  1 eigenvalues not converged
     c_bands:  2 eigenvalues not converged
     c_bands:  3 eigenvalues not converged
     c_bands:  3 eigenvalues not converged
     c_bands:  2 eigenvalues not converged
     c_bands:  1 eigenvalues not converged
     c_bands:  1 eigenvalues not converged
     c_bands:  3 eigenvalues not converged
     c_bands:  3 eigenvalues not converged
     c_bands:  3 eigenvalues not converged
     c_bands:  3 eigenvalues not converged
     c_bands:  3 eigenvalues not converged
     c_bands:  1 eigenvalues not converged
     c_bands:  1 eigenvalues not converged
     c_bands:  1 eigenvalues not converged
     c_bands:  1 eigenvalues not converged
     c_bands:  1 eigenvalues not converged
     c_bands:  1 eigenvalues not converged
     c_bands:  1 eigenvalues not converged
     c_bands:  1 eigenvalues not converged
     c_bands:  1 eigenvalues not converged
     c_bands:  4 eigenvalues not converged
     c_bands:  1 eigenvalues not converged
     c_bands:  2 eigenvalues not converged
     c_bands:  1 eigenvalues not converged
     c_bands:  3 eigenvalues not converged
     c_bands:  2 eigenvalues not converged
     c_bands:  3 eigenvalues not converged
     c_bands:  1 eigenvalues not converged
     c_bands:  1 eigenvalues not converged
     c_bands:  1 eigenvalues not converged
     c_bands:  3 eigenvalues not converged
     c_bands:  4 eigenvalues not converged
     c_bands:  2 eigenvalues not converged
     c_bands:  1 eigenvalues not converged
     c_bands:  4 eigenvalues not converged
     c_bands:  2 eigenvalues not converged
     c_bands:  1 eigenvalues not converged
     c_bands:  2 eigenvalues not converged
     c_bands:  2 eigenvalues not converged
     c_bands:  1 eigenvalues not converged
     c_bands:  2 eigenvalues not converged
     c_bands:  3 eigenvalues not converged
     c_bands:  1 eigenvalues not converged
     c_bands:  2 eigenvalues not converged
     c_bands:  2 eigenvalues not converged
     c_bands:  1 eigenvalues not converged
     c_bands:  1 eigenvalues not converged
     c_bands:  1 eigenvalues not converged
     c_bands:  2 eigenvalues not converged
     c_bands:  2 eigenvalues not converged
     c_bands:  1 eigenvalues not converged
     c_bands:  1 eigenvalues not converged
     c_bands:  1 eigenvalues not converged
     c_bands:  1 eigenvalues not converged
     c_bands:  2 eigenvalues not converged
     c_bands:  1 eigenvalues not converged
     c_bands:  1 eigenvalues not converged
     c_bands:  1 eigenvalues not converged
     c_bands:  1 eigenvalues not converged
     c_bands:  2 eigenvalues not converged
     c_bands:  1 eigenvalues not converged
     c_bands:  1 eigenvalues not converged
     c_bands:  1 eigenvalues not converged
     c_bands:  1 eigenvalues not converged
     c_bands:  2 eigenvalues not converged
     c_bands:  2 eigenvalues not converged
     c_bands:  2 eigenvalues not converged
     c_bands:  1 eigenvalues not converged
     c_bands:  1 eigenvalues not converged
     c_bands:  1 eigenvalues not converged
     c_bands:  1 eigenvalues not converged
     c_bands:  2 eigenvalues not converged
     c_bands:  1 eigenvalues not converged
     c_bands:  1 eigenvalues not converged
     c_bands:  2 eigenvalues not converged
     c_bands:  2 eigenvalues not converged
     c_bands:  2 eigenvalues not converged
     c_bands:  1 eigenvalues not converged
     c_bands:  3 eigenvalues not converged
     c_bands:  2 eigenvalues not converged
     c_bands:  3 eigenvalues not converged
     c_bands:  2 eigenvalues not converged
     c_bands:  2 eigenvalues not converged
     c_bands:  1 eigenvalues not converged
     c_bands:  1 eigenvalues not converged
     c_bands:  4 eigenvalues not converged
     c_bands:  1 eigenvalues not converged
     c_bands:  2 eigenvalues not converged
     c_bands:  3 eigenvalues not converged
     c_bands:  2 eigenvalues not converged
     c_bands:  2 eigenvalues not converged
     c_bands:  1 eigenvalues not converged
     c_bands:  2 eigenvalues not converged
     c_bands:  1 eigenvalues not converged
     c_bands:  1 eigenvalues not converged
     c_bands:  1 eigenvalues not converged
     c_bands:  1 eigenvalues not converged
     c_bands:  1 eigenvalues not converged
     c_bands:  2 eigenvalues not converged
     c_bands:  3 eigenvalues not converged
     c_bands:  1 eigenvalues not converged
     c_bands:  2 eigenvalues not converged
     c_bands:  1 eigenvalues not converged
     c_bands:  1 eigenvalues not converged
     c_bands:  1 eigenvalues not converged
     c_bands:  1 eigenvalues not converged
     c_bands:  1 eigenvalues not converged
     c_bands:  2 eigenvalues not converged
     c_bands:  2 eigenvalues not converged
     c_bands:  1 eigenvalues not converged
     c_bands:  2 eigenvalues not converged
     c_bands:  1 eigenvalues not converged
     c_bands:  1 eigenvalues not converged
     c_bands:  2 eigenvalues not converged
     c_bands:  1 eigenvalues not converged
     c_bands:  1 eigenvalues not converged
     c_bands:  1 eigenvalues not converged
     c_bands:  2 eigenvalues not converged
     c_bands:  2 eigenvalues not converged
     ethr =  1.00E-06,  avg # of iterations = 17.9

     total cpu time spent up to now is    12758.1 secs

     total energy              =    -933.44064008 Ry
     Harris-Foulkes estimate   =    -947.49235482 Ry
     estimated scf accuracy    <       4.93374498 Ry

     iteration #  2     ecut=    40.00 Ry     beta= 0.60
     Davidson diagonalization with overlap
     ethr =  4.93E-03,  avg # of iterations =  5.7

     total cpu time spent up to now is    13005.2 secs

     total energy              =    -937.09924278 Ry
     Harris-Foulkes estimate   =    -946.12629699 Ry
     estimated scf accuracy    <      32.74197667 Ry

     iteration #  3     ecut=    40.00 Ry     beta= 0.60
     Davidson diagonalization with overlap
     ethr =  4.93E-03,  avg # of iterations =  5.0

     total cpu time spent up to now is    13191.0 secs

     total energy              =    -937.68157391 Ry
     Harris-Foulkes estimate   =    -939.80075061 Ry
     estimated scf accuracy    <      15.07644376 Ry

     iteration #  4     ecut=    40.00 Ry     beta= 0.60
     Davidson diagonalization with overlap
     ethr =  4.93E-03,  avg # of iterations =  4.0

     total cpu time spent up to now is    13344.3 secs

     total energy              =    -937.87296522 Ry
     Harris-Foulkes estimate   =    -939.70317989 Ry
     estimated scf accuracy    <      20.20190729 Ry

     iteration #  5     ecut=    40.00 Ry     beta= 0.60
     Davidson diagonalization with overlap
     ethr =  4.93E-03,  avg # of iterations =  2.2

     total cpu time spent up to now is    13477.2 secs

     total energy              =    -938.30628072 Ry
     Harris-Foulkes estimate   =    -938.62791162 Ry
     estimated scf accuracy    <       3.15101763 Ry

     iteration #  6     ecut=    40.00 Ry     beta= 0.60
     Davidson diagonalization with overlap
     ethr =  3.15E-03,  avg # of iterations =  1.2

     total cpu time spent up to now is    13605.2 secs

     total energy              =    -938.25888836 Ry
     Harris-Foulkes estimate   =    -938.40314862 Ry
     estimated scf accuracy    <       1.69437442 Ry

     iteration #  7     ecut=    40.00 Ry     beta= 0.60
     Davidson diagonalization with overlap
     ethr =  1.69E-03,  avg # of iterations =  2.2

     total cpu time spent up to now is    13736.9 secs

     total energy              =    -938.26469471 Ry
     Harris-Foulkes estimate   =    -938.30305521 Ry
     estimated scf accuracy    <       1.01501099 Ry

     iteration #  8     ecut=    40.00 Ry     beta= 0.60
     Davidson diagonalization with overlap
     ethr =  1.02E-03,  avg # of iterations =  2.9

     total cpu time spent up to now is    13871.0 secs

     total energy              =    -938.25511592 Ry
     Harris-Foulkes estimate   =    -938.29542080 Ry
     estimated scf accuracy    <       0.61122328 Ry

     iteration #  9     ecut=    40.00 Ry     beta= 0.60
     Davidson diagonalization with overlap
     ethr =  6.11E-04,  avg # of iterations =  3.2

     total cpu time spent up to now is    14006.2 secs

     total energy              =    -938.25004693 Ry
     Harris-Foulkes estimate   =    -938.27090062 Ry
     estimated scf accuracy    <       0.36172218 Ry

     iteration # 10     ecut=    40.00 Ry     beta= 0.60
     Davidson diagonalization with overlap
     ethr =  3.62E-04,  avg # of iterations =  4.2

     total cpu time spent up to now is    14148.4 secs

     total energy              =    -938.20729833 Ry
     Harris-Foulkes estimate   =    -938.26370246 Ry
     estimated scf accuracy    <       0.19092320 Ry

     iteration # 11     ecut=    40.00 Ry     beta= 0.60
     Davidson diagonalization with overlap
     ethr =  1.91E-04,  avg # of iterations =  5.5

     total cpu time spent up to now is    14338.4 secs

     total energy              =    -938.24619509 Ry
     Harris-Foulkes estimate   =    -938.24705670 Ry
     estimated scf accuracy    <       0.02505551 Ry

     iteration # 12     ecut=    40.00 Ry     beta= 0.60
     Davidson diagonalization with overlap
     c_bands:  1 eigenvalues not converged
     c_bands:  1 eigenvalues not converged
     ethr =  2.51E-05,  avg # of iterations =  4.0

     total cpu time spent up to now is    14482.5 secs

     total energy              =    -938.24266497 Ry
     Harris-Foulkes estimate   =    -938.24793488 Ry
     estimated scf accuracy    <       0.02490027 Ry

     iteration # 13     ecut=    40.00 Ry     beta= 0.60
     Davidson diagonalization with overlap
     ethr =  2.49E-05,  avg # of iterations =  3.1

     total cpu time spent up to now is    14626.5 secs

     total energy              =    -938.24481238 Ry
     Harris-Foulkes estimate   =    -938.24561843 Ry
     estimated scf accuracy    <       0.00717870 Ry

     iteration # 14     ecut=    40.00 Ry     beta= 0.60
     Davidson diagonalization with overlap
     c_bands:  1 eigenvalues not converged
     c_bands:  1 eigenvalues not converged
     ethr =  7.18E-06,  avg # of iterations =  3.7

     total cpu time spent up to now is    14775.9 secs

     total energy              =    -938.24522466 Ry
     Harris-Foulkes estimate   =    -938.24563102 Ry
     estimated scf accuracy    <       0.00274102 Ry

     iteration # 15     ecut=    40.00 Ry     beta= 0.60
     Davidson diagonalization with overlap
     c_bands:  1 eigenvalues not converged
     c_bands:  1 eigenvalues not converged
     ethr =  2.74E-06,  avg # of iterations =  2.8

     total cpu time spent up to now is    14911.6 secs

     total energy              =    -938.24540326 Ry
     Harris-Foulkes estimate   =    -938.24546200 Ry
     estimated scf accuracy    <       0.00020841 Ry

     iteration # 16     ecut=    40.00 Ry     beta= 0.60
     Davidson diagonalization with overlap
     ethr =  2.08E-07,  avg # of iterations =  5.2

     total cpu time spent up to now is    15095.2 secs

     total energy              =    -938.24533980 Ry
     Harris-Foulkes estimate   =    -938.24559761 Ry
     estimated scf accuracy    <       0.00260610 Ry

     iteration # 17     ecut=    40.00 Ry     beta= 0.60
     Davidson diagonalization with overlap
     ethr =  2.08E-07,  avg # of iterations =  4.1

     total cpu time spent up to now is    15264.6 secs

     total energy              =    -938.24546219 Ry
     Harris-Foulkes estimate   =    -938.24547677 Ry
     estimated scf accuracy    <       0.00011565 Ry

     iteration # 18     ecut=    40.00 Ry     beta= 0.60
     Davidson diagonalization with overlap
     ethr =  1.16E-07,  avg # of iterations =  2.3

     total cpu time spent up to now is    15394.1 secs

     total energy              =    -938.24546488 Ry
     Harris-Foulkes estimate   =    -938.24547714 Ry
     estimated scf accuracy    <       0.00016011 Ry

     iteration # 19     ecut=    40.00 Ry     beta= 0.60
     Davidson diagonalization with overlap
     ethr =  1.16E-07,  avg # of iterations =  1.0

     total cpu time spent up to now is    15519.2 secs

     total energy              =    -938.24547083 Ry
     Harris-Foulkes estimate   =    -938.24547167 Ry
     estimated scf accuracy    <       0.00000487 Ry

     iteration # 20     ecut=    40.00 Ry     beta= 0.60
     Davidson diagonalization with overlap
     ethr =  4.87E-09,  avg # of iterations =  4.4

     total cpu time spent up to now is    15688.5 secs

     total energy              =    -938.24547101 Ry
     Harris-Foulkes estimate   =    -938.24547281 Ry
     estimated scf accuracy    <       0.00001755 Ry

     iteration # 21     ecut=    40.00 Ry     beta= 0.60
     Davidson diagonalization with overlap
     ethr =  4.87E-09,  avg # of iterations =  3.9

     total cpu time spent up to now is    15836.7 secs

     total energy              =    -938.24547164 Ry
     Harris-Foulkes estimate   =    -938.24547225 Ry
     estimated scf accuracy    <       0.00000557 Ry

     iteration # 22     ecut=    40.00 Ry     beta= 0.60
     Davidson diagonalization with overlap
     ethr =  4.87E-09,  avg # of iterations =  1.0

     total cpu time spent up to now is    15961.4 secs

     total energy              =    -938.24547183 Ry
     Harris-Foulkes estimate   =    -938.24547197 Ry
     estimated scf accuracy    <       0.00000090 Ry

     iteration # 23     ecut=    40.00 Ry     beta= 0.60
     Davidson diagonalization with overlap
     ethr =  8.97E-10,  avg # of iterations =  3.8

     total cpu time spent up to now is    16111.1 secs

     total energy              =    -938.24547188 Ry
     Harris-Foulkes estimate   =    -938.24547196 Ry
     estimated scf accuracy    <       0.00000024 Ry

     iteration # 24     ecut=    40.00 Ry     beta= 0.60
     Davidson diagonalization with overlap
     ethr =  2.37E-10,  avg # of iterations =  4.1

     total cpu time spent up to now is    16282.0 secs

     total energy              =    -938.24547190 Ry
     Harris-Foulkes estimate   =    -938.24547201 Ry
     estimated scf accuracy    <       0.00000062 Ry

     iteration # 25     ecut=    40.00 Ry     beta= 0.60
     Davidson diagonalization with overlap
     ethr =  2.37E-10,  avg # of iterations =  3.6

     total cpu time spent up to now is    16436.4 secs

     total energy              =    -938.24547194 Ry
     Harris-Foulkes estimate   =    -938.24547196 Ry
     estimated scf accuracy    <       0.00000014 Ry

     iteration # 26     ecut=    40.00 Ry     beta= 0.60
     Davidson diagonalization with overlap
     ethr =  1.36E-10,  avg # of iterations =  2.0

     total cpu time spent up to now is    16564.6 secs

     total energy              =    -938.24547195 Ry
     Harris-Foulkes estimate   =    -938.24547195 Ry
     estimated scf accuracy    <       0.00000004 Ry

     iteration # 27     ecut=    40.00 Ry     beta= 0.60
     Davidson diagonalization with overlap
     ethr =  4.21E-11,  avg # of iterations =  3.0

     total cpu time spent up to now is    16703.9 secs

     total energy              =    -938.24547195 Ry
     Harris-Foulkes estimate   =    -938.24547195 Ry
     estimated scf accuracy    <       0.00000001 Ry

     iteration # 28     ecut=    40.00 Ry     beta= 0.60
     Davidson diagonalization with overlap
     ethr =  1.12E-11,  avg # of iterations =  3.7

     total cpu time spent up to now is    16848.9 secs

     total energy              =    -938.24547195 Ry
     Harris-Foulkes estimate   =    -938.24547195 Ry
     estimated scf accuracy    <       0.00000005 Ry

     iteration # 29     ecut=    40.00 Ry     beta= 0.60
     Davidson diagonalization with overlap
     ethr =  1.12E-11,  avg # of iterations =  2.6

     total cpu time spent up to now is    16979.3 secs

     total energy              =    -938.24547195 Ry
     Harris-Foulkes estimate   =    -938.24547195 Ry
     estimated scf accuracy    <          7.4E-10 Ry

     iteration # 30     ecut=    40.00 Ry     beta= 0.60
     Davidson diagonalization with overlap
     ethr =  7.40E-13,  avg # of iterations =  4.5

     total cpu time spent up to now is    17150.1 secs

     total energy              =    -938.24547195 Ry
     Harris-Foulkes estimate   =    -938.24547195 Ry
     estimated scf accuracy    <          1.3E-09 Ry

     iteration # 31     ecut=    40.00 Ry     beta= 0.60
     Davidson diagonalization with overlap
     ethr =  7.40E-13,  avg # of iterations =  3.9

     total cpu time spent up to now is    17301.8 secs

     total energy              =    -938.24547195 Ry
     Harris-Foulkes estimate   =    -938.24547195 Ry
     estimated scf accuracy    <          2.3E-09 Ry

     iteration # 32     ecut=    40.00 Ry     beta= 0.60
     Davidson diagonalization with overlap
     ethr =  7.40E-13,  avg # of iterations =  2.7

     total cpu time spent up to now is    17432.1 secs

     total energy              =    -938.24547195 Ry
     Harris-Foulkes estimate   =    -938.24547195 Ry
     estimated scf accuracy    <          1.0E-10 Ry

     iteration # 33     ecut=    40.00 Ry     beta= 0.60
     Davidson diagonalization with overlap
     ethr =  1.04E-13,  avg # of iterations =  4.8

     total cpu time spent up to now is    17605.6 secs

     total energy              =    -938.24547195 Ry
     Harris-Foulkes estimate   =    -938.24547195 Ry
     estimated scf accuracy    <          2.3E-10 Ry

     iteration # 34     ecut=    40.00 Ry     beta= 0.60
     Davidson diagonalization with overlap
     ethr =  1.04E-13,  avg # of iterations =  3.5

     total cpu time spent up to now is    17749.8 secs

     End of self-consistent calculation

     Number of k-points >= 100: set verbosity='high' to print the bands.

     the Fermi energy is    15.9143 ev

!    total energy              =    -938.24547195 Ry
     Harris-Foulkes estimate   =    -938.24547195 Ry
     estimated scf accuracy    <          5.7E-11 Ry

     The total energy is the sum of the following terms:

     one-electron contribution =    -230.95098154 Ry
     hartree contribution      =     157.84270387 Ry
     xc contribution           =    -131.84216310 Ry
     ewald contribution        =    -733.28710440 Ry
     smearing contrib. (-TS)   =      -0.00792678 Ry

     convergence has been achieved in  34 iterations

     Forces acting on atoms (cartesian axes, Ry/au):

     atom    1 type  1   force =    -0.00073257   -0.00042295   -0.00254495
     atom    2 type  2   force =    -0.00469053   -0.00270808   -0.00014567
     atom    3 type  2   force =     0.00080060    0.00046223   -0.00570493
     atom    4 type  2   force =    -0.00080038   -0.00046210    0.00569920
     atom    5 type  2   force =     0.00469263    0.00270929    0.00015544
     atom    6 type  1   force =     0.00073170    0.00042245    0.00254530
     atom    7 type  1   force =     0.00260505    0.00150402    0.00749218
     atom    8 type  1   force =    -0.00260650   -0.00150486   -0.00749656

     Total force =     0.016441     Total SCF correction =     0.000015


     Computing stress (Cartesian axis) and pressure

          total   stress  (Ry/bohr**3)                   (kbar)     P=   12.61
   0.00003769   0.00002987  -0.00000760          5.54      4.39     -1.12
   0.00002987   0.00000320  -0.00000439          4.39      0.47     -0.65
  -0.00000760  -0.00000439   0.00021628         -1.12     -0.65     31.82


     number of scf cycles    =   3
     number of bfgs steps    =   2

     enthalpy old            =    -938.2350261624 Ry
     enthalpy new            =    -938.2454719506 Ry

     CASE: enthalpy_new < enthalpy_old

     new trust radius        =       0.0284398915 bohr
     new conv_thr            =            1.0E-10 Ry

     new unit-cell volume =    962.39789 a.u.^3 (   142.61265 Ang^3 )
     density =      6.55649 g/cm^3

CELL_PARAMETERS (alat=  1.88972599)
   1.461851876   2.521688535   9.683054772
  -1.473795980  -2.528584466   9.686710846
   2.926716209   0.012052619  -9.686710846

ATOMIC_POSITIONS (angstrom)
Nb       2.920773697   0.008621709   4.834410823
Ti       1.457758952   0.841635908   2.418003414
Ti       2.914127690   0.004784635   9.674220055
Ti       1.459022074   0.842365172   7.271322229
Ti       2.927338104   0.012411670  -4.842290631
Nb       1.452376052   0.838528090  12.111082035
Nb       2.925281200   0.011224117   0.014594415
Nb      -0.013983326  -1.685762852   7.247830017


     NEW-OLD atomic charge density approx. for the potential

     Check: negative/imaginary core charge=   -0.000001    0.000000
     extrapolated charge  100.56481, renormalised to  100.00000

     total cpu time spent up to now is    17774.3 secs

     Self-consistent Calculation

     iteration #  1     ecut=    40.00 Ry     beta= 0.60
     Davidson diagonalization with overlap
     c_bands:  2 eigenvalues not converged
     ethr =  1.00E-06,  avg # of iterations =  6.7

     total cpu time spent up to now is    18060.5 secs

     total energy              =    -938.22393853 Ry
     Harris-Foulkes estimate   =    -937.31002084 Ry
     estimated scf accuracy    <       0.02011264 Ry

     iteration #  2     ecut=    40.00 Ry     beta= 0.60
     Davidson diagonalization with overlap
     c_bands:  1 eigenvalues not converged
     c_bands:  1 eigenvalues not converged
     ethr =  2.01E-05,  avg # of iterations =  7.6

     total cpu time spent up to now is    18323.6 secs

     total energy              =    -938.17588089 Ry
     Harris-Foulkes estimate   =    -938.31775439 Ry
     estimated scf accuracy    <       1.70834491 Ry

     iteration #  3     ecut=    40.00 Ry     beta= 0.60
     Davidson diagonalization with overlap
     ethr =  2.01E-05,  avg # of iterations =  6.5

     total cpu time spent up to now is    18543.9 secs

     total energy              =    -938.21847937 Ry
     Harris-Foulkes estimate   =    -938.27726188 Ry
     estimated scf accuracy    <       0.84900722 Ry

     iteration #  4     ecut=    40.00 Ry     beta= 0.60
     Davidson diagonalization with overlap
     ethr =  2.01E-05,  avg # of iterations =  6.1

     total cpu time spent up to now is    18751.8 secs

     total energy              =    -938.24589123 Ry
     Harris-Foulkes estimate   =    -938.25018427 Ry
     estimated scf accuracy    <       0.02029905 Ry

     iteration #  5     ecut=    40.00 Ry     beta= 0.60
     Davidson diagonalization with overlap
     ethr =  2.01E-05,  avg # of iterations =  1.1

     total cpu time spent up to now is    18877.0 secs

     total energy              =    -938.24700577 Ry
     Harris-Foulkes estimate   =    -938.24739824 Ry
     estimated scf accuracy    <       0.00517714 Ry

     iteration #  6     ecut=    40.00 Ry     beta= 0.60
     Davidson diagonalization with overlap
     ethr =  5.18E-06,  avg # of iterations =  3.3

     total cpu time spent up to now is    19016.5 secs

     total energy              =    -938.24705899 Ry
     Harris-Foulkes estimate   =    -938.24736129 Ry
     estimated scf accuracy    <       0.00478994 Ry

     iteration #  7     ecut=    40.00 Ry     beta= 0.60
     Davidson diagonalization with overlap
     ethr =  4.79E-06,  avg # of iterations =  1.0

     total cpu time spent up to now is    19141.4 secs

     total energy              =    -938.24702143 Ry
     Harris-Foulkes estimate   =    -938.24714137 Ry
     estimated scf accuracy    <       0.00442415 Ry

     iteration #  8     ecut=    40.00 Ry     beta= 0.60
     Davidson diagonalization with overlap
     ethr =  4.42E-06,  avg # of iterations =  1.0

     total cpu time spent up to now is    19265.8 secs

     total energy              =    -938.24652607 Ry
     Harris-Foulkes estimate   =    -938.24706595 Ry
     estimated scf accuracy    <       0.00362806 Ry

     iteration #  9     ecut=    40.00 Ry     beta= 0.60
     Davidson diagonalization with overlap
     ethr =  3.63E-06,  avg # of iterations =  1.0

     total cpu time spent up to now is    19390.4 secs

     total energy              =    -938.24646996 Ry
     Harris-Foulkes estimate   =    -938.24660835 Ry
     estimated scf accuracy    <       0.00154192 Ry

     iteration # 10     ecut=    40.00 Ry     beta= 0.60
     Davidson diagonalization with overlap
     ethr =  1.54E-06,  avg # of iterations =  2.9

     total cpu time spent up to now is    19526.6 secs

     total energy              =    -938.24640988 Ry
     Harris-Foulkes estimate   =    -938.24654181 Ry
     estimated scf accuracy    <       0.00056024 Ry

     iteration # 11     ecut=    40.00 Ry     beta= 0.60
     Davidson diagonalization with overlap
     ethr =  5.60E-07,  avg # of iterations =  4.0

     total cpu time spent up to now is    19684.0 secs

     total energy              =    -938.24649333 Ry
     Harris-Foulkes estimate   =    -938.24649510 Ry
     estimated scf accuracy    <       0.00001405 Ry

     iteration # 12     ecut=    40.00 Ry     beta= 0.60
     Davidson diagonalization with overlap
     c_bands:  1 eigenvalues not converged
     ethr =  1.40E-08,  avg # of iterations =  4.9

     total cpu time spent up to now is    19870.5 secs

     total energy              =    -938.24649778 Ry
     Harris-Foulkes estimate   =    -938.24650071 Ry
     estimated scf accuracy    <       0.00002387 Ry

     iteration # 13     ecut=    40.00 Ry     beta= 0.60
     Davidson diagonalization with overlap
     ethr =  1.40E-08,  avg # of iterations =  1.2

     total cpu time spent up to now is    19995.2 secs

     total energy              =    -938.24649805 Ry
     Harris-Foulkes estimate   =    -938.24649886 Ry
     estimated scf accuracy    <       0.00000958 Ry

     iteration # 14     ecut=    40.00 Ry     beta= 0.60
     Davidson diagonalization with overlap
     ethr =  9.58E-09,  avg # of iterations =  2.9

     total cpu time spent up to now is    20133.4 secs

     total energy              =    -938.24649849 Ry
     Harris-Foulkes estimate   =    -938.24649884 Ry
     estimated scf accuracy    <       0.00000607 Ry

     iteration # 15     ecut=    40.00 Ry     beta= 0.60
     Davidson diagonalization with overlap
     ethr =  6.07E-09,  avg # of iterations =  1.0

     total cpu time spent up to now is    20257.8 secs

     total energy              =    -938.24649855 Ry
     Harris-Foulkes estimate   =    -938.24649874 Ry
     estimated scf accuracy    <       0.00000216 Ry

     iteration # 16     ecut=    40.00 Ry     beta= 0.60
     Davidson diagonalization with overlap
     ethr =  2.16E-09,  avg # of iterations =  2.9

     total cpu time spent up to now is    20394.9 secs

     total energy              =    -938.24649854 Ry
     Harris-Foulkes estimate   =    -938.24649878 Ry
     estimated scf accuracy    <       0.00000204 Ry

     iteration # 17     ecut=    40.00 Ry     beta= 0.60
     Davidson diagonalization with overlap
     ethr =  2.04E-09,  avg # of iterations =  3.2

     total cpu time spent up to now is    20528.5 secs

     total energy              =    -938.24649828 Ry
     Harris-Foulkes estimate   =    -938.24649887 Ry
     estimated scf accuracy    <       0.00000865 Ry

     iteration # 18     ecut=    40.00 Ry     beta= 0.60
     Davidson diagonalization with overlap
     ethr =  2.04E-09,  avg # of iterations =  3.2

     total cpu time spent up to now is    20664.4 secs

     total energy              =    -938.24649855 Ry
     Harris-Foulkes estimate   =    -938.24649862 Ry
     estimated scf accuracy    <       0.00000055 Ry

     iteration # 19     ecut=    40.00 Ry     beta= 0.60
     Davidson diagonalization with overlap
     ethr =  5.50E-10,  avg # of iterations =  3.7

     total cpu time spent up to now is    20822.4 secs

     total energy              =    -938.24649860 Ry
     Harris-Foulkes estimate   =    -938.24649866 Ry
     estimated scf accuracy    <       0.00000051 Ry

     iteration # 20     ecut=    40.00 Ry     beta= 0.60
     Davidson diagonalization with overlap
     ethr =  5.07E-10,  avg # of iterations =  1.1

     total cpu time spent up to now is    20948.7 secs

     total energy              =    -938.24649860 Ry
     Harris-Foulkes estimate   =    -938.24649862 Ry
     estimated scf accuracy    <       0.00000017 Ry

     iteration # 21     ecut=    40.00 Ry     beta= 0.60
     Davidson diagonalization with overlap
     ethr =  1.66E-10,  avg # of iterations =  3.3

     total cpu time spent up to now is    21096.0 secs

     total energy              =    -938.24649862 Ry
     Harris-Foulkes estimate   =    -938.24649862 Ry
     estimated scf accuracy    <          8.5E-09 Ry

     iteration # 22     ecut=    40.00 Ry     beta= 0.60
     Davidson diagonalization with overlap
     ethr =  8.47E-12,  avg # of iterations =  4.2

     total cpu time spent up to now is    21262.3 secs

     total energy              =    -938.24649862 Ry
     Harris-Foulkes estimate   =    -938.24649862 Ry
     estimated scf accuracy    <          2.2E-09 Ry

     iteration # 23     ecut=    40.00 Ry     beta= 0.60
     Davidson diagonalization with overlap
     ethr =  2.16E-12,  avg # of iterations =  4.5

     total cpu time spent up to now is    21440.7 secs

     total energy              =    -938.24649862 Ry
     Harris-Foulkes estimate   =    -938.24649862 Ry
     estimated scf accuracy    <       0.00000001 Ry

     iteration # 24     ecut=    40.00 Ry     beta= 0.60
     Davidson diagonalization with overlap
     ethr =  2.16E-12,  avg # of iterations =  4.0

     total cpu time spent up to now is    21607.4 secs

     total energy              =    -938.24649862 Ry
     Harris-Foulkes estimate   =    -938.24649862 Ry
     estimated scf accuracy    <          1.1E-10 Ry

     iteration # 25     ecut=    40.00 Ry     beta= 0.60
     Davidson diagonalization with overlap
     ethr =  1.08E-13,  avg # of iterations =  3.6

     total cpu time spent up to now is    21759.2 secs

     total energy              =    -938.24649862 Ry
     Harris-Foulkes estimate   =    -938.24649862 Ry
     estimated scf accuracy    <          1.6E-10 Ry

     iteration # 26     ecut=    40.00 Ry     beta= 0.60
     Davidson diagonalization with overlap
     ethr =  1.08E-13,  avg # of iterations =  1.6

     total cpu time spent up to now is    21885.3 secs

     End of self-consistent calculation

     Number of k-points >= 100: set verbosity='high' to print the bands.

     the Fermi energy is    15.8031 ev

!    total energy              =    -938.24649862 Ry
     Harris-Foulkes estimate   =    -938.24649862 Ry
     estimated scf accuracy    <          1.8E-11 Ry

     The total energy is the sum of the following terms:

     one-electron contribution =    -233.05596264 Ry
     hartree contribution      =     158.45303231 Ry
     xc contribution           =    -131.79762403 Ry
     ewald contribution        =    -731.83800960 Ry
     smearing contrib. (-TS)   =      -0.00793465 Ry

     convergence has been achieved in  26 iterations

     Forces acting on atoms (cartesian axes, Ry/au):

     atom    1 type  1   force =    -0.00004508   -0.00002603   -0.00210973
     atom    2 type  2   force =    -0.00435364   -0.00251358    0.00002822
     atom    3 type  2   force =     0.00102887    0.00059402   -0.00516425
     atom    4 type  2   force =    -0.00102854   -0.00059383    0.00516725
     atom    5 type  2   force =     0.00435541    0.00251460   -0.00002571
     atom    6 type  1   force =     0.00004441    0.00002564    0.00210929
     atom    7 type  1   force =     0.00292416    0.00168826    0.00617487
     atom    8 type  1   force =    -0.00292559   -0.00168909   -0.00617995

     Total force =     0.014656     Total SCF correction =     0.000010


[...]
     Davidson diagonalization with overlap
     ethr =  1.00E-02,  avg # of iterations =  6.0

     total cpu time spent up to now is   158954.6 secs

     total energy              =    -935.11922558 Ry
     Harris-Foulkes estimate   =    -973.61488729 Ry
     estimated scf accuracy    <     108.09641121 Ry

     iteration #  3     ecut=    40.00 Ry     beta= 0.60
     Davidson diagonalization with overlap
     ethr =  1.00E-02,  avg # of iterations =  4.2

     total cpu time spent up to now is   159149.7 secs

     total energy              =    -939.49779886 Ry
     Harris-Foulkes estimate   =    -943.13910030 Ry
     estimated scf accuracy    <      45.66679487 Ry

     iteration #  4     ecut=    40.00 Ry     beta= 0.60
     Davidson diagonalization with overlap
     ethr =  1.00E-02,  avg # of iterations =  2.0

     total cpu time spent up to now is   159281.2 secs

     total energy              =    -939.77309225 Ry
     Harris-Foulkes estimate   =    -940.84685622 Ry
     estimated scf accuracy    <      17.08664778 Ry

     iteration #  5     ecut=    40.00 Ry     beta= 0.60
     Davidson diagonalization with overlap
     ethr =  1.00E-02,  avg # of iterations =  1.0

     total cpu time spent up to now is   159408.7 secs

     total energy              =    -938.97496338 Ry
     Harris-Foulkes estimate   =    -939.86359755 Ry
     estimated scf accuracy    <      13.26048909 Ry

     iteration #  6     ecut=    40.00 Ry     beta= 0.60
     Davidson diagonalization with overlap
     ethr =  1.00E-02,  avg # of iterations =  1.0

     total cpu time spent up to now is   159537.4 secs

     total energy              =    -937.58427542 Ry
     Harris-Foulkes estimate   =    -939.06875955 Ry
     estimated scf accuracy    <       9.25024431 Ry

     iteration #  7     ecut=    40.00 Ry     beta= 0.60
     Davidson diagonalization with overlap
     ethr =  9.25E-03,  avg # of iterations =  3.2

     total cpu time spent up to now is   159673.9 secs

     total energy              =    -937.90622933 Ry
     Harris-Foulkes estimate   =    -938.14103657 Ry
     estimated scf accuracy    <       1.82072589 Ry

     iteration #  8     ecut=    40.00 Ry     beta= 0.60
     Davidson diagonalization with overlap
     ethr =  1.82E-03,  avg # of iterations =  5.0

     total cpu time spent up to now is   159867.9 secs

     total energy              =    -938.30175596 Ry
     Harris-Foulkes estimate   =    -938.37293472 Ry
     estimated scf accuracy    <       1.58254957 Ry

     iteration #  9     ecut=    40.00 Ry     beta= 0.60
     Davidson diagonalization with overlap
     ethr =  1.58E-03,  avg # of iterations =  1.0

     total cpu time spent up to now is   159992.9 secs

     total energy              =    -938.28942981 Ry
     Harris-Foulkes estimate   =    -938.44266014 Ry
     estimated scf accuracy    <       3.04127396 Ry

     iteration # 10     ecut=    40.00 Ry     beta= 0.60
     Davidson diagonalization with overlap
     ethr =  1.58E-03,  avg # of iterations =  1.0

     total cpu time spent up to now is   160118.3 secs

     total energy              =    -938.25402875 Ry
     Harris-Foulkes estimate   =    -938.38003130 Ry
     estimated scf accuracy    <       1.74334560 Ry

     iteration # 11     ecut=    40.00 Ry     beta= 0.60
     Davidson diagonalization with overlap
     ethr =  1.58E-03,  avg # of iterations =  1.0

     total cpu time spent up to now is   160243.8 secs

     total energy              =    -938.19358462 Ry
     Harris-Foulkes estimate   =    -938.28702536 Ry
     estimated scf accuracy    <       0.46439726 Ry

     iteration # 12     ecut=    40.00 Ry     beta= 0.60
     Davidson diagonalization with overlap
     ethr =  4.64E-04,  avg # of iterations =  4.0

     total cpu time spent up to now is   160401.9 secs

     total energy              =    -938.34677533 Ry
     Harris-Foulkes estimate   =    -938.29713992 Ry
     estimated scf accuracy    <       0.30122048 Ry

     iteration # 13     ecut=    40.00 Ry     beta= 0.60
     Davidson diagonalization with overlap
     ethr =  3.01E-04,  avg # of iterations =  4.8

     total cpu time spent up to now is   160558.4 secs

     total energy              =    -938.31755275 Ry
     Harris-Foulkes estimate   =    -938.40573377 Ry
     estimated scf accuracy    <       1.46038972 Ry

     iteration # 14     ecut=    40.00 Ry     beta= 0.60
     Davidson diagonalization with overlap
     ethr =  3.01E-04,  avg # of iterations =  1.1

     total cpu time spent up to now is   160684.7 secs

     total energy              =    -938.20490829 Ry
     Harris-Foulkes estimate   =    -938.33158630 Ry
     estimated scf accuracy    <       0.91597552 Ry

     iteration # 15     ecut=    40.00 Ry     beta= 0.60
     Davidson diagonalization with overlap
     ethr =  3.01E-04,  avg # of iterations =  3.8

     total cpu time spent up to now is   160839.5 secs

     total energy              =    -938.26878648 Ry
     Harris-Foulkes estimate   =    -938.27047243 Ry
     estimated scf accuracy    <       0.01372996 Ry

     iteration # 16     ecut=    40.00 Ry     beta= 0.60
     Davidson diagonalization with overlap
     c_bands:  1 eigenvalues not converged
     ethr =  1.37E-05,  avg # of iterations =  7.4

     total cpu time spent up to now is   161029.8 secs

     total energy              =    -938.27032847 Ry
     Harris-Foulkes estimate   =    -938.27240291 Ry
     estimated scf accuracy    <       0.01439090 Ry

     iteration # 17     ecut=    40.00 Ry     beta= 0.60
     Davidson diagonalization with overlap
     ethr =  1.37E-05,  avg # of iterations =  1.9

     total cpu time spent up to now is   161158.1 secs

     total energy              =    -938.27063702 Ry
     Harris-Foulkes estimate   =    -938.27153422 Ry
     estimated scf accuracy    <       0.00838417 Ry

     iteration # 18     ecut=    40.00 Ry     beta= 0.60
     Davidson diagonalization with overlap
     ethr =  8.38E-06,  avg # of iterations =  2.6

     total cpu time spent up to now is   161292.9 secs

     total energy              =    -938.27085865 Ry
     Harris-Foulkes estimate   =    -938.27165649 Ry
     estimated scf accuracy    <       0.00521639 Ry

     iteration # 19     ecut=    40.00 Ry     beta= 0.60
     Davidson diagonalization with overlap
     c_bands:  1 eigenvalues not converged
     c_bands:  1 eigenvalues not converged
     c_bands:  1 eigenvalues not converged
     ethr =  5.22E-06,  avg # of iterations =  2.0

     total cpu time spent up to now is   161421.4 secs

     total energy              =    -938.27103627 Ry
     Harris-Foulkes estimate   =    -938.27142656 Ry
     estimated scf accuracy    <       0.00295627 Ry

     iteration # 20     ecut=    40.00 Ry     beta= 0.60
     Davidson diagonalization with overlap
     c_bands:  1 eigenvalues not converged
     ethr =  2.96E-06,  avg # of iterations =  7.3

     total cpu time spent up to now is   161602.5 secs

     total energy              =    -938.27073450 Ry
     Harris-Foulkes estimate   =    -938.27211829 Ry
     estimated scf accuracy    <       0.02271475 Ry

     iteration # 21     ecut=    40.00 Ry     beta= 0.60
     Davidson diagonalization with overlap
     ethr =  2.96E-06,  avg # of iterations =  3.0

     total cpu time spent up to now is   161734.2 secs

     total energy              =    -938.27128537 Ry
     Harris-Foulkes estimate   =    -938.27134425 Ry
     estimated scf accuracy    <       0.00055189 Ry

     iteration # 22     ecut=    40.00 Ry     beta= 0.60
     Davidson diagonalization with overlap
     c_bands:  1 eigenvalues not converged
     ethr =  5.52E-07,  avg # of iterations =  6.2

     total cpu time spent up to now is   161909.7 secs

     total energy              =    -938.27139055 Ry
     Harris-Foulkes estimate   =    -938.27140564 Ry
     estimated scf accuracy    <       0.00016247 Ry

     iteration # 23     ecut=    40.00 Ry     beta= 0.60
     Davidson diagonalization with overlap
     ethr =  1.62E-07,  avg # of iterations =  1.4

     total cpu time spent up to now is   162035.1 secs

     total energy              =    -938.27138529 Ry
     Harris-Foulkes estimate   =    -938.27139961 Ry
     estimated scf accuracy    <       0.00008428 Ry

     iteration # 24     ecut=    40.00 Ry     beta= 0.60
     Davidson diagonalization with overlap
     ethr =  8.43E-08,  avg # of iterations =  3.0

     total cpu time spent up to now is   162178.6 secs

     total energy              =    -938.27139224 Ry
     Harris-Foulkes estimate   =    -938.27140047 Ry
     estimated scf accuracy    <       0.00005982 Ry

     iteration # 25     ecut=    40.00 Ry     beta= 0.60
     Davidson diagonalization with overlap
     ethr =  5.98E-08,  avg # of iterations =  1.0

     total cpu time spent up to now is   162303.3 secs

     total energy              =    -938.27139563 Ry
     Harris-Foulkes estimate   =    -938.27139648 Ry
     estimated scf accuracy    <       0.00000612 Ry

     iteration # 26     ecut=    40.00 Ry     beta= 0.60
     Davidson diagonalization with overlap
     ethr =  6.12E-09,  avg # of iterations =  4.0

     total cpu time spent up to now is   162461.4 secs

     total energy              =    -938.27139676 Ry
     Harris-Foulkes estimate   =    -938.27139700 Ry
     estimated scf accuracy    <       0.00000150 Ry

     iteration # 27     ecut=    40.00 Ry     beta= 0.60
     Davidson diagonalization with overlap
     ethr =  1.50E-09,  avg # of iterations =  3.5

     total cpu time spent up to now is   162610.7 secs

     total energy              =    -938.27139669 Ry
     Harris-Foulkes estimate   =    -938.27139711 Ry
     estimated scf accuracy    <       0.00000333 Ry

     iteration # 28     ecut=    40.00 Ry     beta= 0.60
     Davidson diagonalization with overlap
     ethr =  1.50E-09,  avg # of iterations =  2.8

     total cpu time spent up to now is   162741.5 secs

     total energy              =    -938.27139688 Ry
     Harris-Foulkes estimate   =    -938.27139692 Ry
     estimated scf accuracy    <       0.00000053 Ry

     iteration # 29     ecut=    40.00 Ry     beta= 0.60
     Davidson diagonalization with overlap
     ethr =  5.34E-10,  avg # of iterations =  3.4

     total cpu time spent up to now is   162883.8 secs

     total energy              =    -938.27139690 Ry
     Harris-Foulkes estimate   =    -938.27139695 Ry
     estimated scf accuracy    <       0.00000053 Ry

     iteration # 30     ecut=    40.00 Ry     beta= 0.60
     Davidson diagonalization with overlap
     ethr =  5.33E-10,  avg # of iterations =  1.0

     total cpu time spent up to now is   163006.5 secs

     total energy              =    -938.27139692 Ry
     Harris-Foulkes estimate   =    -938.27139693 Ry
     estimated scf accuracy    <       0.00000020 Ry

     iteration # 31     ecut=    40.00 Ry     beta= 0.60
     Davidson diagonalization with overlap
     ethr =  1.96E-10,  avg # of iterations =  1.5

     total cpu time spent up to now is   163131.0 secs

     total energy              =    -938.27139692 Ry
     Harris-Foulkes estimate   =    -938.27139693 Ry
     estimated scf accuracy    <       0.00000004 Ry

     iteration # 32     ecut=    40.00 Ry     beta= 0.60
     Davidson diagonalization with overlap
     ethr =  3.83E-11,  avg # of iterations =  4.5

     total cpu time spent up to now is   163303.6 secs

     total energy              =    -938.27139691 Ry
     Harris-Foulkes estimate   =    -938.27139695 Ry
     estimated scf accuracy    <       0.00000029 Ry

     iteration # 33     ecut=    40.00 Ry     beta= 0.60
     Davidson diagonalization with overlap
     ethr =  3.83E-11,  avg # of iterations =  3.9

     total cpu time spent up to now is   163468.1 secs

     total energy              =    -938.27139693 Ry
     Harris-Foulkes estimate   =    -938.27139693 Ry
     estimated scf accuracy    <       0.00000001 Ry

     iteration # 34     ecut=    40.00 Ry     beta= 0.60
     Davidson diagonalization with overlap
     ethr =  1.13E-11,  avg # of iterations =  1.7

     total cpu time spent up to now is   163593.0 secs

     total energy              =    -938.27139693 Ry
     Harris-Foulkes estimate   =    -938.27139693 Ry
     estimated scf accuracy    <          7.7E-09 Ry

     iteration # 35     ecut=    40.00 Ry     beta= 0.60
     Davidson diagonalization with overlap
     ethr =  7.66E-12,  avg # of iterations =  1.7

     total cpu time spent up to now is   163719.8 secs

     total energy              =    -938.27139693 Ry
     Harris-Foulkes estimate   =    -938.27139693 Ry
     estimated scf accuracy    <          2.3E-09 Ry

     iteration # 36     ecut=    40.00 Ry     beta= 0.60
     Davidson diagonalization with overlap
     ethr =  2.30E-12,  avg # of iterations =  3.2

     total cpu time spent up to now is   163858.1 secs

     total energy              =    -938.27139693 Ry
     Harris-Foulkes estimate   =    -938.27139693 Ry
     estimated scf accuracy    <          7.9E-10 Ry

     iteration # 37     ecut=    40.00 Ry     beta= 0.60
     Davidson diagonalization with overlap
     ethr =  7.92E-13,  avg # of iterations =  1.8

     total cpu time spent up to now is   163985.7 secs

     total energy              =    -938.27139693 Ry
     Harris-Foulkes estimate   =    -938.27139693 Ry
     estimated scf accuracy    <          4.5E-11 Ry

     iteration # 38     ecut=    40.00 Ry     beta= 0.60
     Davidson diagonalization with overlap
     ethr =  1.00E-13,  avg # of iterations =  3.9

     total cpu time spent up to now is   164142.4 secs

     total energy              =    -938.27139693 Ry
     Harris-Foulkes estimate   =    -938.27139693 Ry
     estimated scf accuracy    <          2.3E-11 Ry

     iteration # 39     ecut=    40.00 Ry     beta= 0.60
     Davidson diagonalization with overlap
     ethr =  1.00E-13,  avg # of iterations =  1.0

     total cpu time spent up to now is   164267.3 secs

     total energy              =    -938.27139693 Ry
     Harris-Foulkes estimate   =    -938.27139693 Ry
     estimated scf accuracy    <          9.9E-12 Ry

     iteration # 40     ecut=    40.00 Ry     beta= 0.60
     Davidson diagonalization with overlap
     ethr =  1.00E-13,  avg # of iterations =  1.0

     total cpu time spent up to now is   164391.5 secs

     total energy              =    -938.27139693 Ry
     Harris-Foulkes estimate   =    -938.27139693 Ry
     estimated scf accuracy    <          1.9E-12 Ry

     iteration # 41     ecut=    40.00 Ry     beta= 0.60
     Davidson diagonalization with overlap
     ethr =  1.00E-13,  avg # of iterations =  1.0

     total cpu time spent up to now is   164515.9 secs

     total energy              =    -938.27139693 Ry
     Harris-Foulkes estimate   =    -938.27139693 Ry
     estimated scf accuracy    <          1.4E-11 Ry

     iteration # 42     ecut=    40.00 Ry     beta= 0.60
     Davidson diagonalization with overlap
     ethr =  1.00E-13,  avg # of iterations =  1.0

     total cpu time spent up to now is   164640.1 secs

     total energy              =    -938.27139693 Ry
     Harris-Foulkes estimate   =    -938.27139693 Ry
     estimated scf accuracy    <          2.2E-12 Ry

     iteration # 43     ecut=    40.00 Ry     beta= 0.60
     Davidson diagonalization with overlap
     ethr =  1.00E-13,  avg # of iterations =  1.0

     total cpu time spent up to now is   164764.4 secs

     End of self-consistent calculation

     Number of k-points >= 100: set verbosity='high' to print the bands.

     the Fermi energy is    15.6986 ev

!    total energy              =    -938.27139693 Ry
     Harris-Foulkes estimate   =    -938.27139693 Ry
     estimated scf accuracy    <          5.1E-13 Ry

     The total energy is the sum of the following terms:

     one-electron contribution =    -233.30609616 Ry
     hartree contribution      =     158.66388938 Ry
     xc contribution           =    -131.84307424 Ry
     ewald contribution        =    -731.78582776 Ry
     smearing contrib. (-TS)   =      -0.00028815 Ry

     convergence has been achieved in  43 iterations

     Forces acting on atoms (cartesian axes, Ry/au):

     atom    1 type  1   force =     0.00000826    0.00000477   -0.00000216
     atom    2 type  2   force =     0.00009924    0.00005730    0.00005438
     atom    3 type  2   force =    -0.00002187   -0.00001262   -0.00016128
     atom    4 type  2   force =     0.00002320    0.00001339    0.00010900
     atom    5 type  2   force =    -0.00010104   -0.00005834   -0.00000380
     atom    6 type  1   force =    -0.00000781   -0.00000451    0.00000261
     atom    7 type  1   force =     0.00000348    0.00000201   -0.00007135
     atom    8 type  1   force =    -0.00000345   -0.00000199    0.00007260

     Total force =     0.000282     Total SCF correction =     0.000002


     Computing stress (Cartesian axis) and pressure

          total   stress  (Ry/bohr**3)                   (kbar)     P=   -2.74
  -0.00001132   0.00001174  -0.00000027         -1.67      1.73     -0.04
   0.00001174  -0.00002488  -0.00000016          1.73     -3.66     -0.02
  -0.00000027  -0.00000016  -0.00001958         -0.04     -0.02     -2.88

 
     init_run     :    150.55s CPU    151.87s WALL (       2 calls)
     electrons    : 162180.56s CPU 163587.27s WALL (      42 calls)
     update_pot   :     74.80s CPU     75.15s WALL (      40 calls)
     forces       :    236.18s CPU    241.59s WALL (      42 calls)
     stress       :    696.80s CPU    711.86s WALL (      42 calls)

     Called by init_run:
     wfcinit      :    146.90s CPU    148.02s WALL (       2 calls)
     potinit      :      1.39s CPU      1.44s WALL (       2 calls)
     hinit0       :      1.75s CPU      1.79s WALL (       2 calls)

     Called by electrons:
     c_bands      : 135424.31s CPU 136411.82s WALL (    1036 calls)
     sum_band     :  26196.21s CPU  26490.30s WALL (    1036 calls)
     v_of_rho     :    271.54s CPU    292.42s WALL (    1066 calls)
     newd         :    255.18s CPU    362.26s WALL (    1066 calls)
     mix_rho      :     31.33s CPU     31.53s WALL (    1036 calls)

     Called by c_bands:
     init_us_2    :    487.89s CPU    488.69s WALL (  608556 calls)
     cegterg      : 131804.26s CPU 132770.10s WALL (  292162 calls)

     Called by sum_band:
     sum_band:bec :     17.70s CPU     17.92s WALL (  292152 calls)
     addusdens    :    278.78s CPU    375.27s WALL (    1036 calls)

     Called by *egterg:
     h_psi        : 116525.49s CPU 117447.24s WALL ( 1244773 calls)
     s_psi        :   1595.87s CPU   1599.26s WALL ( 1244773 calls)
     g_psi        :    216.11s CPU    218.43s WALL (  952047 calls)
     cdiaghg      :   7763.24s CPU   7776.30s WALL ( 1229535 calls)

     Called by h_psi:
     h_psi:pot    : 116414.31s CPU 117335.40s WALL ( 1244773 calls)
     h_psi:calbec :   1813.30s CPU   1822.67s WALL ( 1244773 calls)
     vloc_psi     : 112972.30s CPU 113881.01s WALL ( 1244773 calls)
     add_vuspsi   :   1623.87s CPU   1625.45s WALL ( 1244773 calls)

     General routines
     calbec       :   2628.01s CPU   2639.48s WALL ( 1596145 calls)
     fft          :    192.66s CPU    201.98s WALL (   14918 calls)
     ffts         :      4.34s CPU      4.36s WALL (    2102 calls)
     fftw         : 122713.51s CPU 123857.46s WALL (******** calls)
     interpolate  :     16.61s CPU     16.70s WALL (    1066 calls)
 
     Parallel routines
     fft_scatt_xy :  19435.02s CPU  19727.38s WALL (******** calls)
     fft_scatt_yz :  28992.25s CPU  29672.66s WALL (******** calls)
 
     PWSCF        :     1d   21h22m CPU        1d   21h46m WALL

 
   This run was terminated on:  16:46:48  23Mar2020            

=------------------------------------------------------------------------------=
   JOB DONE.
=------------------------------------------------------------------------------=
