
     Program PWSCF v.6.3MaX starts on 11Feb2020 at 18:38:40 

     This program is part of the open-source Quantum ESPRESSO suite
     for quantum simulation of materials; please cite
         "P. Giannozzi et al., J. Phys.:Condens. Matter 21 395502 (2009);
         "P. Giannozzi et al., J. Phys.:Condens. Matter 29 465901 (2017);
          URL http://www.quantum-espresso.org", 
     in publications or presentations arising from this work. More details at
     http://www.quantum-espresso.org/quote

     Parallel version (MPI), running on     4 processors

     MPI processes distributed on     1 nodes
     R & G space division:  proc/nbgrp/npool/nimage =       4
     Waiting for input...
     Reading input from standard input

     Current dimensions of program PWSCF are:
     Max number of different atomic species (ntypx) = 10
     Max number of k-points (npk) =  40000
     Max angular momentum in pseudopotentials (lmaxx) =  3
     Message from routine iosys:
     minimal I/O required, wf_collect reset to FALSE

     Subspace diagonalization in iterative solution of the eigenvalue problem:
     a serial algorithm will be used

 
     Parallelization info
     --------------------
     sticks:   dense  smooth     PW     G-vecs:    dense   smooth      PW
     Min         780     312     95                27301     6894    1169
     Max         781     313     96                27302     6895    1170
     Sum        3121    1251    383               109205    27577    4677
 


     bravais-lattice index     =            0
     lattice parameter (alat)  =       1.8897  a.u.
     unit-cell volume          =     808.3427 (a.u.)^3
     number of atoms/cell      =            6
     number of atomic types    =            2
     number of electrons       =        75.00
     number of Kohn-Sham states=           46
     kinetic-energy cutoff     =      40.0000  Ry
     charge density cutoff     =     400.0000  Ry
     convergence threshold     =      1.0E-10
     mixing beta               =       0.6000
     number of iterations used =            8  plain     mixing
     Exchange-correlation      = SLA PW PBE PBE ( 1  4  3  4 0 0)
     nstep                     =           50


     celldm(1)=   1.889726  celldm(2)=   0.000000  celldm(3)=   0.000000
     celldm(4)=   0.000000  celldm(5)=   0.000000  celldm(6)=   0.000000

     crystal axes: (cart. coord. in units of alat)
               a(1) = (   3.045004   0.000000   4.972461 )  
               a(2) = (  -1.522502   2.637051   4.972461 )  
               a(3) = (  -1.522502  -2.637051   4.972461 )  

     reciprocal axes: (cart. coord. in units 2 pi/alat)
               b(1) = (  0.218938  0.000000  0.067036 )  
               b(2) = ( -0.109469  0.189606  0.067036 )  
               b(3) = ( -0.109469 -0.189606  0.067036 )  


     PseudoPot. # 1 for Nb read from file:
     ./Nb.pbe-nsp-van.UPF
     MD5 check sum: 0a22fc7fb0ba19a08ca5db297a5d2854
     Pseudo is Ultrasoft + core correction, Zval = 13.0
     Generated by new atomic code, or converted to UPF format
     Using radial grid of  887 points,  6 beta functions with: 
                l(1) =   0
                l(2) =   0
                l(3) =   1
                l(4) =   1
                l(5) =   2
                l(6) =   2
     Q(r) pseudized with  6 coefficients,  rinner =    1.000   1.000   1.000
                                                       1.000   1.000

     PseudoPot. # 2 for Ti read from file:
     ./Ti.pbe-sp-van_ak.UPF
     MD5 check sum: f98fea3e8887528921fefa5636a534ca
     Pseudo is Ultrasoft, Zval = 12.0
     Generated by new atomic code, or converted to UPF format
     Using radial grid of  851 points,  6 beta functions with: 
                l(1) =   0
                l(2) =   0
                l(3) =   1
                l(4) =   1
                l(5) =   2
                l(6) =   2
     Q(r) pseudized with  8 coefficients,  rinner =    1.000   1.000   1.000
                                                       1.000   1.000

     atomic species   valence    mass     pseudopotential
        Nb            13.00    92.90638     Nb( 1.00)
        Ti            12.00    47.86700     Ti( 1.00)

      2 Sym. Ops. (no inversion) found ( 1 have fractional translation)



   Cartesian axes

     site n.     atom                  positions (alat units)
         1           Ti  tau(   1) = (   0.0000000   0.0000000   9.9449228  )
         2           Ti  tau(   2) = (   0.0000015  -1.7580350   7.4586921  )
         3           Ti  tau(   3) = (   0.0000000   0.0000000  14.9173841  )
         4           Nb  tau(   4) = (   1.5225036   0.8790162   7.4586921  )
         5           Nb  tau(   5) = (   0.0000000   0.0000000   4.9724614  )
         6           Nb  tau(   6) = (  -1.5225006   0.8790162   7.4586921  )

     number of k points=   476  Marzari-Vanderbilt smearing, width (Ry)=  0.0200

     Number of k-points >= 100: set verbosity='high' to print them.

     Dense  grid:   109205 G-vectors     FFT dimensions: (  72,  72,  72)

     Smooth grid:    27577 G-vectors     FFT dimensions: (  45,  45,  45)

     Estimated max dynamical RAM per process >     395.12 MB

     Estimated total dynamical RAM >       1.54 GB

     Initial potential from superposition of free atoms

     starting charge   71.99167, renormalised to   75.00000
     Starting wfcs are   69 randomized atomic wfcs

     total cpu time spent up to now is       29.7 secs

     Self-consistent Calculation

     iteration #  1     ecut=    40.00 Ry     beta= 0.60
     Davidson diagonalization with overlap
     ethr =  1.00E-02,  avg # of iterations =  3.0

     total cpu time spent up to now is       95.4 secs

     total energy              =    -692.14992718 Ry
     Harris-Foulkes estimate   =    -706.02179004 Ry
     estimated scf accuracy    <      17.61456772 Ry

     iteration #  2     ecut=    40.00 Ry     beta= 0.60
     Davidson diagonalization with overlap
     ethr =  1.00E-02,  avg # of iterations =  5.1

     total cpu time spent up to now is      198.1 secs

     total energy              =    -700.16244377 Ry
     Harris-Foulkes estimate   =    -722.81152419 Ry
     estimated scf accuracy    <      65.99688277 Ry

     iteration #  3     ecut=    40.00 Ry     beta= 0.60
     Davidson diagonalization with overlap
     ethr =  1.00E-02,  avg # of iterations =  3.7

     total cpu time spent up to now is      270.5 secs

     total energy              =    -704.01902791 Ry
     Harris-Foulkes estimate   =    -706.72780017 Ry
     estimated scf accuracy    <      19.10916053 Ry

     iteration #  4     ecut=    40.00 Ry     beta= 0.60
     Davidson diagonalization with overlap
     ethr =  1.00E-02,  avg # of iterations =  2.0

     total cpu time spent up to now is      322.2 secs

     total energy              =    -704.60938981 Ry
     Harris-Foulkes estimate   =    -704.68020376 Ry
     estimated scf accuracy    <       7.57538351 Ry

     iteration #  5     ecut=    40.00 Ry     beta= 0.60
     Davidson diagonalization with overlap
     ethr =  1.00E-02,  avg # of iterations =  1.0

     total cpu time spent up to now is      370.1 secs

     total energy              =    -704.40217543 Ry
     Harris-Foulkes estimate   =    -704.65521879 Ry
     estimated scf accuracy    <       7.21108265 Ry

     iteration #  6     ecut=    40.00 Ry     beta= 0.60
     Davidson diagonalization with overlap
     ethr =  9.61E-03,  avg # of iterations =  1.0

     total cpu time spent up to now is      418.0 secs

     total energy              =    -703.47944364 Ry
     Harris-Foulkes estimate   =    -704.43976968 Ry
     estimated scf accuracy    <       6.27891587 Ry

     iteration #  7     ecut=    40.00 Ry     beta= 0.60
     Davidson diagonalization with overlap
     ethr =  8.37E-03,  avg # of iterations =  1.8

     total cpu time spent up to now is      467.8 secs

     total energy              =    -703.15487261 Ry
     Harris-Foulkes estimate   =    -703.67153739 Ry
     estimated scf accuracy    <       2.37328020 Ry

     iteration #  8     ecut=    40.00 Ry     beta= 0.60
     Davidson diagonalization with overlap
     ethr =  3.16E-03,  avg # of iterations =  5.0

     total cpu time spent up to now is      551.2 secs

     total energy              =    -703.75037660 Ry
     Harris-Foulkes estimate   =    -703.99229536 Ry
     estimated scf accuracy    <       6.33561940 Ry

     iteration #  9     ecut=    40.00 Ry     beta= 0.60
     Davidson diagonalization with overlap
     ethr =  3.16E-03,  avg # of iterations =  1.0

     total cpu time spent up to now is      599.1 secs

     total energy              =    -703.71050032 Ry
     Harris-Foulkes estimate   =    -703.78721348 Ry
     estimated scf accuracy    <       3.08136395 Ry

     iteration # 10     ecut=    40.00 Ry     beta= 0.60
     Davidson diagonalization with overlap
     ethr =  3.16E-03,  avg # of iterations =  1.0

     total cpu time spent up to now is      646.6 secs

     total energy              =    -703.47822426 Ry
     Harris-Foulkes estimate   =    -703.72601754 Ry
     estimated scf accuracy    <       2.23056460 Ry

     iteration # 11     ecut=    40.00 Ry     beta= 0.60
     Davidson diagonalization with overlap
     ethr =  2.97E-03,  avg # of iterations =  1.1

     total cpu time spent up to now is      693.6 secs

     total energy              =    -703.59591351 Ry
     Harris-Foulkes estimate   =    -703.59424364 Ry
     estimated scf accuracy    <       0.09347589 Ry

     iteration # 12     ecut=    40.00 Ry     beta= 0.60
     Davidson diagonalization with overlap
     ethr =  1.25E-04,  avg # of iterations =  5.6

     total cpu time spent up to now is      785.5 secs

     total energy              =    -703.65641389 Ry
     Harris-Foulkes estimate   =    -703.65708484 Ry
     estimated scf accuracy    <       0.05571405 Ry

     iteration # 13     ecut=    40.00 Ry     beta= 0.60
     Davidson diagonalization with overlap
     ethr =  7.43E-05,  avg # of iterations =  1.0

     total cpu time spent up to now is      834.4 secs

     total energy              =    -703.62981819 Ry
     Harris-Foulkes estimate   =    -703.65734552 Ry
     estimated scf accuracy    <       0.07809202 Ry

     iteration # 14     ecut=    40.00 Ry     beta= 0.60
     Davidson diagonalization with overlap
     ethr =  7.43E-05,  avg # of iterations =  5.5

     total cpu time spent up to now is      937.6 secs

     total energy              =    -703.57805056 Ry
     Harris-Foulkes estimate   =    -703.78919304 Ry
     estimated scf accuracy    <       1.82203143 Ry

     iteration # 15     ecut=    40.00 Ry     beta= 0.60
     Davidson diagonalization with overlap
     ethr =  7.43E-05,  avg # of iterations =  5.3

     total cpu time spent up to now is     1031.9 secs

     total energy              =    -703.66095229 Ry
     Harris-Foulkes estimate   =    -703.66273458 Ry
     estimated scf accuracy    <       0.21336378 Ry

     iteration # 16     ecut=    40.00 Ry     beta= 0.60
     Davidson diagonalization with overlap
     ethr =  7.43E-05,  avg # of iterations =  1.1

     total cpu time spent up to now is     1081.1 secs

     total energy              =    -703.63387090 Ry
     Harris-Foulkes estimate   =    -703.66435849 Ry
     estimated scf accuracy    <       0.24470408 Ry

     iteration # 17     ecut=    40.00 Ry     beta= 0.60
     Davidson diagonalization with overlap
     ethr =  7.43E-05,  avg # of iterations =  4.3

     total cpu time spent up to now is     1156.8 secs

     total energy              =    -703.64473084 Ry
     Harris-Foulkes estimate   =    -703.65452413 Ry
     estimated scf accuracy    <       0.18084455 Ry

     iteration # 18     ecut=    40.00 Ry     beta= 0.60
     Davidson diagonalization with overlap
     ethr =  7.43E-05,  avg # of iterations =  1.0

     total cpu time spent up to now is     1203.7 secs

     total energy              =    -703.64288950 Ry
     Harris-Foulkes estimate   =    -703.64716395 Ry
     estimated scf accuracy    <       0.07928302 Ry

     iteration # 19     ecut=    40.00 Ry     beta= 0.60
     Davidson diagonalization with overlap
     ethr =  7.43E-05,  avg # of iterations =  2.8

     total cpu time spent up to now is     1256.2 secs

     total energy              =    -703.64352973 Ry
     Harris-Foulkes estimate   =    -703.64501921 Ry
     estimated scf accuracy    <       0.02337628 Ry

     iteration # 20     ecut=    40.00 Ry     beta= 0.60
     Davidson diagonalization with overlap
     ethr =  3.12E-05,  avg # of iterations =  2.4

     total cpu time spent up to now is     1307.4 secs

     total energy              =    -703.64213018 Ry
     Harris-Foulkes estimate   =    -703.64429139 Ry
     estimated scf accuracy    <       0.01033765 Ry

     iteration # 21     ecut=    40.00 Ry     beta= 0.60
     Davidson diagonalization with overlap
     ethr =  1.38E-05,  avg # of iterations =  5.1

     total cpu time spent up to now is     1381.6 secs

     total energy              =    -703.64388907 Ry
     Harris-Foulkes estimate   =    -703.64463408 Ry
     estimated scf accuracy    <       0.00978400 Ry

     iteration # 22     ecut=    40.00 Ry     beta= 0.60
     Davidson diagonalization with overlap
     ethr =  1.30E-05,  avg # of iterations =  1.0

     total cpu time spent up to now is     1428.5 secs

     total energy              =    -703.64347969 Ry
     Harris-Foulkes estimate   =    -703.64406072 Ry
     estimated scf accuracy    <       0.00526202 Ry

     iteration # 23     ecut=    40.00 Ry     beta= 0.60
     Davidson diagonalization with overlap
     ethr =  7.02E-06,  avg # of iterations =  3.0

     total cpu time spent up to now is     1485.4 secs

     total energy              =    -703.64383774 Ry
     Harris-Foulkes estimate   =    -703.64387108 Ry
     estimated scf accuracy    <       0.00027965 Ry

     iteration # 24     ecut=    40.00 Ry     beta= 0.60
     Davidson diagonalization with overlap
     ethr =  3.73E-07,  avg # of iterations =  4.7

     total cpu time spent up to now is     1554.1 secs

     total energy              =    -703.64388527 Ry
     Harris-Foulkes estimate   =    -703.64388985 Ry
     estimated scf accuracy    <       0.00003166 Ry

     iteration # 25     ecut=    40.00 Ry     beta= 0.60
     Davidson diagonalization with overlap
     ethr =  4.22E-08,  avg # of iterations =  3.9

     total cpu time spent up to now is     1615.1 secs

     total energy              =    -703.64388884 Ry
     Harris-Foulkes estimate   =    -703.64388896 Ry
     estimated scf accuracy    <       0.00000106 Ry

     iteration # 26     ecut=    40.00 Ry     beta= 0.60
     Davidson diagonalization with overlap
     ethr =  1.42E-09,  avg # of iterations =  5.4

     total cpu time spent up to now is     1696.8 secs

     total energy              =    -703.64388936 Ry
     Harris-Foulkes estimate   =    -703.64388937 Ry
     estimated scf accuracy    <       0.00000009 Ry

     iteration # 27     ecut=    40.00 Ry     beta= 0.60
     Davidson diagonalization with overlap
     ethr =  1.16E-10,  avg # of iterations =  3.5

     total cpu time spent up to now is     1754.2 secs

     total energy              =    -703.64388937 Ry
     Harris-Foulkes estimate   =    -703.64388937 Ry
     estimated scf accuracy    <       0.00000003 Ry

     iteration # 28     ecut=    40.00 Ry     beta= 0.60
     Davidson diagonalization with overlap
     ethr =  4.14E-11,  avg # of iterations =  3.0

     total cpu time spent up to now is     1809.4 secs

     total energy              =    -703.64388937 Ry
     Harris-Foulkes estimate   =    -703.64388937 Ry
     estimated scf accuracy    <       0.00000002 Ry

     iteration # 29     ecut=    40.00 Ry     beta= 0.60
     Davidson diagonalization with overlap
     ethr =  2.19E-11,  avg # of iterations =  3.1

     total cpu time spent up to now is     1863.5 secs

     total energy              =    -703.64388937 Ry
     Harris-Foulkes estimate   =    -703.64388937 Ry
     estimated scf accuracy    <          6.6E-09 Ry

     iteration # 30     ecut=    40.00 Ry     beta= 0.60
     Davidson diagonalization with overlap
     ethr =  8.76E-12,  avg # of iterations =  3.2

     total cpu time spent up to now is     1918.3 secs

     total energy              =    -703.64388937 Ry
     Harris-Foulkes estimate   =    -703.64388937 Ry
     estimated scf accuracy    <          7.4E-10 Ry

     iteration # 31     ecut=    40.00 Ry     beta= 0.60
     Davidson diagonalization with overlap
     ethr =  9.86E-13,  avg # of iterations =  4.7

     total cpu time spent up to now is     1990.5 secs

     End of self-consistent calculation

     Number of k-points >= 100: set verbosity='high' to print the bands.

     the Fermi energy is    13.8339 ev

!    total energy              =    -703.64388937 Ry
     Harris-Foulkes estimate   =    -703.64388937 Ry
     estimated scf accuracy    <          4.1E-11 Ry

     The total energy is the sum of the following terms:

     one-electron contribution =    -204.40281262 Ry
     hartree contribution      =     127.58025029 Ry
     xc contribution           =     -98.24442678 Ry
     ewald contribution        =    -528.57073891 Ry
     smearing contrib. (-TS)   =      -0.00616135 Ry

     convergence has been achieved in  31 iterations

     Forces acting on atoms (cartesian axes, Ry/au):

     atom    1 type  2   force =     0.00005025    0.00009357   -0.00185519
     atom    2 type  2   force =    -0.00005897    0.00003405    0.00000000
     atom    3 type  2   force =    -0.00005591   -0.00009030    0.00185519
     atom    4 type  1   force =    -0.00000807   -0.00037044    0.00389650
     atom    5 type  1   force =    -0.00024407    0.00014092    0.00000000
     atom    6 type  1   force =     0.00031678    0.00019221   -0.00389650

     Total force =     0.006134     Total SCF correction =     0.000005


     Computing stress (Cartesian axis) and pressure

          total   stress  (Ry/bohr**3)                   (kbar)     P= -126.17
  -0.00090820   0.00000024  -0.00000522       -133.60      0.03     -0.77
   0.00000024  -0.00090793  -0.00000905          0.03   -133.56     -1.33
  -0.00000522  -0.00000905  -0.00075691         -0.77     -1.33   -111.35


     BFGS Geometry Optimization

     number of scf cycles    =   1
     number of bfgs steps    =   0

     enthalpy new            =    -703.6438893676 Ry

     new trust radius        =       0.1291090054 bohr
     new conv_thr            =            1.0E-10 Ry

     new unit-cell volume =    757.44853 a.u.^3 (   112.24229 Ang^3 )
     density =      6.24790 g/cm^3

CELL_PARAMETERS (alat=  1.88972599)
   2.975217999  -0.001106312   4.877970904
  -1.488567093   2.576061398   4.877970904
  -1.488598428  -2.578328294   4.879163515

ATOMIC_POSITIONS (angstrom)
Ti      -0.001272233  -0.002200191   9.755773718
Ti      -0.001013215  -1.719799753   7.317950199
Ti      -0.001976566  -0.003420132  14.636068487
Nb       1.486962093   0.857194486   7.319178092
Nb      -0.000775399  -0.001051527   4.878368441
Nb      -1.488736543   0.857468311   7.315529693


     NEW-OLD atomic charge density approx. for the potential

     Check: negative/imaginary core charge=   -0.000001    0.000000
     extrapolated charge   70.16276, renormalised to   75.00000

     total cpu time spent up to now is     2010.6 secs

     Self-consistent Calculation

     iteration #  1     ecut=    40.00 Ry     beta= 0.60
     Davidson diagonalization with overlap
     c_bands:  1 eigenvalues not converged
     c_bands:  1 eigenvalues not converged
     c_bands:  1 eigenvalues not converged
     c_bands:  1 eigenvalues not converged
     c_bands:  1 eigenvalues not converged
     c_bands:  1 eigenvalues not converged
     c_bands:  1 eigenvalues not converged
     c_bands:  1 eigenvalues not converged
     c_bands:  2 eigenvalues not converged
     c_bands:  1 eigenvalues not converged
     c_bands:  1 eigenvalues not converged
     c_bands:  1 eigenvalues not converged
     c_bands:  1 eigenvalues not converged
     c_bands:  1 eigenvalues not converged
     c_bands:  1 eigenvalues not converged
     c_bands:  1 eigenvalues not converged
     c_bands:  1 eigenvalues not converged
     c_bands:  1 eigenvalues not converged
     c_bands:  1 eigenvalues not converged
     c_bands:  1 eigenvalues not converged
     c_bands:  1 eigenvalues not converged
     c_bands:  1 eigenvalues not converged
     c_bands:  1 eigenvalues not converged
     c_bands:  1 eigenvalues not converged
     c_bands:  1 eigenvalues not converged
     c_bands:  1 eigenvalues not converged
     c_bands:  1 eigenvalues not converged
     c_bands:  1 eigenvalues not converged
     c_bands:  1 eigenvalues not converged
     c_bands:  2 eigenvalues not converged
     c_bands:  1 eigenvalues not converged
     c_bands:  1 eigenvalues not converged
     c_bands:  2 eigenvalues not converged
     c_bands:  2 eigenvalues not converged
     c_bands:  1 eigenvalues not converged
     c_bands:  2 eigenvalues not converged
     c_bands:  1 eigenvalues not converged
     c_bands:  1 eigenvalues not converged
     c_bands:  1 eigenvalues not converged
     c_bands:  1 eigenvalues not converged
     c_bands:  1 eigenvalues not converged
     c_bands:  1 eigenvalues not converged
     c_bands:  1 eigenvalues not converged
     c_bands:  1 eigenvalues not converged
     c_bands:  1 eigenvalues not converged
     c_bands:  1 eigenvalues not converged
     c_bands:  2 eigenvalues not converged
     c_bands:  1 eigenvalues not converged
     c_bands:  1 eigenvalues not converged
     c_bands:  1 eigenvalues not converged
     c_bands:  2 eigenvalues not converged
     c_bands:  1 eigenvalues not converged
     c_bands:  2 eigenvalues not converged
     c_bands:  1 eigenvalues not converged
     c_bands:  1 eigenvalues not converged
     c_bands:  1 eigenvalues not converged
     c_bands:  2 eigenvalues not converged
     c_bands:  2 eigenvalues not converged
     c_bands:  1 eigenvalues not converged
     c_bands:  1 eigenvalues not converged
     c_bands:  1 eigenvalues not converged
     c_bands:  1 eigenvalues not converged
     c_bands:  1 eigenvalues not converged
     c_bands:  2 eigenvalues not converged
     c_bands:  1 eigenvalues not converged
     c_bands:  1 eigenvalues not converged
     c_bands:  2 eigenvalues not converged
     c_bands:  2 eigenvalues not converged
     c_bands:  1 eigenvalues not converged
     c_bands:  1 eigenvalues not converged
     c_bands:  1 eigenvalues not converged
     c_bands:  1 eigenvalues not converged
     c_bands:  1 eigenvalues not converged
     c_bands:  1 eigenvalues not converged
     c_bands:  1 eigenvalues not converged
     c_bands:  1 eigenvalues not converged
     c_bands:  1 eigenvalues not converged
     c_bands:  1 eigenvalues not converged
     c_bands:  1 eigenvalues not converged
     c_bands:  1 eigenvalues not converged
     c_bands:  1 eigenvalues not converged
     c_bands:  1 eigenvalues not converged
     c_bands:  1 eigenvalues not converged
     c_bands:  1 eigenvalues not converged
     c_bands:  2 eigenvalues not converged
     c_bands:  2 eigenvalues not converged
     c_bands:  1 eigenvalues not converged
     c_bands:  1 eigenvalues not converged
     c_bands:  1 eigenvalues not converged
     c_bands:  1 eigenvalues not converged
     c_bands:  1 eigenvalues not converged
     c_bands:  2 eigenvalues not converged
     c_bands:  2 eigenvalues not converged
     c_bands:  1 eigenvalues not converged
     c_bands:  1 eigenvalues not converged
     c_bands:  1 eigenvalues not converged
     c_bands:  2 eigenvalues not converged
     c_bands:  2 eigenvalues not converged
     c_bands:  1 eigenvalues not converged
     c_bands:  2 eigenvalues not converged
     c_bands:  2 eigenvalues not converged
     c_bands:  2 eigenvalues not converged
     c_bands:  2 eigenvalues not converged
     c_bands:  1 eigenvalues not converged
     c_bands:  1 eigenvalues not converged
     c_bands:  1 eigenvalues not converged
     c_bands:  1 eigenvalues not converged
     c_bands:  1 eigenvalues not converged
     c_bands:  1 eigenvalues not converged
     c_bands:  2 eigenvalues not converged
     c_bands:  1 eigenvalues not converged
     c_bands:  1 eigenvalues not converged
     c_bands:  1 eigenvalues not converged
     c_bands:  1 eigenvalues not converged
     c_bands:  1 eigenvalues not converged
     c_bands:  1 eigenvalues not converged
     c_bands:  2 eigenvalues not converged
     c_bands:  1 eigenvalues not converged
     c_bands:  1 eigenvalues not converged
     c_bands:  1 eigenvalues not converged
     c_bands:  1 eigenvalues not converged
     c_bands:  1 eigenvalues not converged
     c_bands:  1 eigenvalues not converged
     c_bands:  1 eigenvalues not converged
     c_bands:  1 eigenvalues not converged
     c_bands:  1 eigenvalues not converged
     c_bands:  1 eigenvalues not converged
     c_bands:  1 eigenvalues not converged
     c_bands:  1 eigenvalues not converged
     c_bands:  1 eigenvalues not converged
     c_bands:  1 eigenvalues not converged
     c_bands:  1 eigenvalues not converged
     c_bands:  1 eigenvalues not converged
     c_bands:  1 eigenvalues not converged
     c_bands:  1 eigenvalues not converged
     c_bands:  1 eigenvalues not converged
     c_bands:  1 eigenvalues not converged
     c_bands:  2 eigenvalues not converged
     c_bands:  1 eigenvalues not converged
     c_bands:  1 eigenvalues not converged
     c_bands:  1 eigenvalues not converged
     c_bands:  2 eigenvalues not converged
     c_bands:  1 eigenvalues not converged
     c_bands:  1 eigenvalues not converged
     c_bands:  2 eigenvalues not converged
     c_bands:  1 eigenvalues not converged
     c_bands:  1 eigenvalues not converged
     c_bands:  1 eigenvalues not converged
     c_bands:  1 eigenvalues not converged
     c_bands:  1 eigenvalues not converged
     c_bands:  1 eigenvalues not converged
     c_bands:  2 eigenvalues not converged
     c_bands:  1 eigenvalues not converged
     c_bands:  1 eigenvalues not converged
     c_bands:  1 eigenvalues not converged
     c_bands:  1 eigenvalues not converged
     c_bands:  1 eigenvalues not converged
     c_bands:  1 eigenvalues not converged
     c_bands:  1 eigenvalues not converged
     c_bands:  1 eigenvalues not converged
     c_bands:  1 eigenvalues not converged
     c_bands:  1 eigenvalues not converged
     c_bands:  1 eigenvalues not converged
     c_bands:  1 eigenvalues not converged
     c_bands:  1 eigenvalues not converged
     c_bands:  1 eigenvalues not converged
     c_bands:  1 eigenvalues not converged
     c_bands:  1 eigenvalues not converged
     c_bands:  1 eigenvalues not converged
     c_bands:  1 eigenvalues not converged
     c_bands:  1 eigenvalues not converged
     c_bands:  2 eigenvalues not converged
     c_bands:  1 eigenvalues not converged
     c_bands:  2 eigenvalues not converged
     c_bands:  1 eigenvalues not converged
     c_bands:  1 eigenvalues not converged
     c_bands:  1 eigenvalues not converged
     c_bands:  1 eigenvalues not converged
     c_bands:  1 eigenvalues not converged
     c_bands:  1 eigenvalues not converged
     c_bands:  2 eigenvalues not converged
     c_bands:  1 eigenvalues not converged
     c_bands:  1 eigenvalues not converged
     c_bands:  2 eigenvalues not converged
     c_bands:  2 eigenvalues not converged
     c_bands:  1 eigenvalues not converged
     c_bands:  1 eigenvalues not converged
     c_bands:  1 eigenvalues not converged
     c_bands:  1 eigenvalues not converged
     c_bands:  1 eigenvalues not converged
     c_bands:  2 eigenvalues not converged
     c_bands:  1 eigenvalues not converged
     c_bands:  2 eigenvalues not converged
     c_bands:  1 eigenvalues not converged
     c_bands:  1 eigenvalues not converged
     c_bands:  1 eigenvalues not converged
     c_bands:  1 eigenvalues not converged
     c_bands:  1 eigenvalues not converged
     c_bands:  1 eigenvalues not converged
     c_bands:  1 eigenvalues not converged
     c_bands:  1 eigenvalues not converged
     c_bands:  1 eigenvalues not converged
     c_bands:  1 eigenvalues not converged
     c_bands:  1 eigenvalues not converged
     c_bands:  1 eigenvalues not converged
     c_bands:  1 eigenvalues not converged
     c_bands:  1 eigenvalues not converged
     c_bands:  1 eigenvalues not converged
     c_bands:  1 eigenvalues not converged
     c_bands:  1 eigenvalues not converged
     c_bands:  1 eigenvalues not converged
     c_bands:  1 eigenvalues not converged
     c_bands:  1 eigenvalues not converged
     c_bands:  1 eigenvalues not converged
     c_bands:  1 eigenvalues not converged
     c_bands:  2 eigenvalues not converged
     c_bands:  2 eigenvalues not converged
     c_bands:  1 eigenvalues not converged
     c_bands:  2 eigenvalues not converged
     c_bands:  1 eigenvalues not converged
     c_bands:  1 eigenvalues not converged
     c_bands:  1 eigenvalues not converged
     c_bands:  1 eigenvalues not converged
     c_bands:  1 eigenvalues not converged
     c_bands:  1 eigenvalues not converged
     c_bands:  1 eigenvalues not converged
     c_bands:  1 eigenvalues not converged
     c_bands:  1 eigenvalues not converged
     c_bands:  1 eigenvalues not converged
     c_bands:  1 eigenvalues not converged
     c_bands:  1 eigenvalues not converged
     c_bands:  1 eigenvalues not converged
     c_bands:  1 eigenvalues not converged
     c_bands:  1 eigenvalues not converged
     c_bands:  1 eigenvalues not converged
     ethr =  1.00E-06,  avg # of iterations = 18.5

     total cpu time spent up to now is     2223.5 secs

     total energy              =    -695.66552154 Ry
     Harris-Foulkes estimate   =    -712.81778779 Ry
     estimated scf accuracy    <       8.58021859 Ry

     iteration #  2     ecut=    40.00 Ry     beta= 0.60
     Davidson diagonalization with overlap
     ethr =  1.00E-02,  avg # of iterations =  5.1

     total cpu time spent up to now is     2323.7 secs

     total energy              =    -703.24213534 Ry
     Harris-Foulkes estimate   =    -715.61328010 Ry
     estimated scf accuracy    <      38.94401125 Ry

     iteration #  3     ecut=    40.00 Ry     beta= 0.60
     Davidson diagonalization with overlap
     ethr =  1.00E-02,  avg # of iterations =  3.0

     total cpu time spent up to now is     2387.4 secs

     total energy              =    -703.86191741 Ry
     Harris-Foulkes estimate   =    -705.65189521 Ry
     estimated scf accuracy    <       9.43881266 Ry

     iteration #  4     ecut=    40.00 Ry     beta= 0.60
     Davidson diagonalization with overlap
     ethr =  1.00E-02,  avg # of iterations =  2.6

     total cpu time spent up to now is     2439.3 secs

     total energy              =    -703.61911952 Ry
     Harris-Foulkes estimate   =    -704.47605674 Ry
     estimated scf accuracy    <       7.38109434 Ry

     iteration #  5     ecut=    40.00 Ry     beta= 0.60
     Davidson diagonalization with overlap
     ethr =  9.84E-03,  avg # of iterations =  1.0

     total cpu time spent up to now is     2486.3 secs

     total energy              =    -703.45260892 Ry
     Harris-Foulkes estimate   =    -703.90153843 Ry
     estimated scf accuracy    <       3.32077045 Ry

     iteration #  6     ecut=    40.00 Ry     beta= 0.60
     Davidson diagonalization with overlap
     ethr =  4.43E-03,  avg # of iterations =  4.1

     total cpu time spent up to now is     2545.0 secs

     total energy              =    -703.67683420 Ry
     Harris-Foulkes estimate   =    -703.66132357 Ry
     estimated scf accuracy    <       0.76942715 Ry

     iteration #  7     ecut=    40.00 Ry     beta= 0.60
     Davidson diagonalization with overlap
     ethr =  1.03E-03,  avg # of iterations =  5.3

     total cpu time spent up to now is     2619.2 secs

     total energy              =    -703.79035954 Ry
     Harris-Foulkes estimate   =    -703.76564858 Ry
     estimated scf accuracy    <       0.47689809 Ry

     iteration #  8     ecut=    40.00 Ry     beta= 0.60
     Davidson diagonalization with overlap
     ethr =  6.36E-04,  avg # of iterations =  1.1

     total cpu time spent up to now is     2666.6 secs

     total energy              =    -703.77536163 Ry
     Harris-Foulkes estimate   =    -703.79589720 Ry
     estimated scf accuracy    <       0.67301823 Ry

     iteration #  9     ecut=    40.00 Ry     beta= 0.60
     Davidson diagonalization with overlap
     ethr =  6.36E-04,  avg # of iterations =  1.0

     total cpu time spent up to now is     2713.7 secs

     total energy              =    -703.75071099 Ry
     Harris-Foulkes estimate   =    -703.77660432 Ry
     estimated scf accuracy    <       0.62721633 Ry

     iteration # 10     ecut=    40.00 Ry     beta= 0.60
     Davidson diagonalization with overlap
     ethr =  6.36E-04,  avg # of iterations =  1.0

     total cpu time spent up to now is     2760.9 secs

     total energy              =    -703.60338786 Ry
     Harris-Foulkes estimate   =    -703.75188233 Ry
     estimated scf accuracy    <       0.53201249 Ry

     iteration # 11     ecut=    40.00 Ry     beta= 0.60
     Davidson diagonalization with overlap
     ethr =  6.36E-04,  avg # of iterations =  3.8

     total cpu time spent up to now is     2821.3 secs

     total energy              =    -703.66729502 Ry
     Harris-Foulkes estimate   =    -703.67086507 Ry
     estimated scf accuracy    <       0.01784586 Ry

     iteration # 12     ecut=    40.00 Ry     beta= 0.60
     Davidson diagonalization with overlap
     ethr =  2.38E-05,  avg # of iterations =  5.7

     total cpu time spent up to now is     2916.1 secs

     total energy              =    -703.67663908 Ry
     Harris-Foulkes estimate   =    -703.68011305 Ry
     estimated scf accuracy    <       0.04110965 Ry

     iteration # 13     ecut=    40.00 Ry     beta= 0.60
     Davidson diagonalization with overlap
     ethr =  2.38E-05,  avg # of iterations =  1.0

     total cpu time spent up to now is     2963.2 secs

     total energy              =    -703.67509971 Ry
     Harris-Foulkes estimate   =    -703.67741450 Ry
     estimated scf accuracy    <       0.01522480 Ry

     iteration # 14     ecut=    40.00 Ry     beta= 0.60
     Davidson diagonalization with overlap
     ethr =  2.03E-05,  avg # of iterations =  3.1

     total cpu time spent up to now is     3020.2 secs

     total energy              =    -703.67659379 Ry
     Harris-Foulkes estimate   =    -703.67658870 Ry
     estimated scf accuracy    <       0.00014268 Ry

     iteration # 15     ecut=    40.00 Ry     beta= 0.60
     Davidson diagonalization with overlap
     ethr =  1.90E-07,  avg # of iterations =  5.7

     total cpu time spent up to now is     3112.4 secs

     total energy              =    -703.67660038 Ry
     Harris-Foulkes estimate   =    -703.67681742 Ry
     estimated scf accuracy    <       0.00160086 Ry

     iteration # 16     ecut=    40.00 Ry     beta= 0.60
     Davidson diagonalization with overlap
     ethr =  1.90E-07,  avg # of iterations =  4.3

     total cpu time spent up to now is     3184.1 secs

     total energy              =    -703.67667585 Ry
     Harris-Foulkes estimate   =    -703.67670483 Ry
     estimated scf accuracy    <       0.00016647 Ry

     iteration # 17     ecut=    40.00 Ry     beta= 0.60
     Davidson diagonalization with overlap
     ethr =  1.90E-07,  avg # of iterations =  3.0

     total cpu time spent up to now is     3236.5 secs

     total energy              =    -703.67668948 Ry
     Harris-Foulkes estimate   =    -703.67668983 Ry
     estimated scf accuracy    <       0.00000328 Ry

     iteration # 18     ecut=    40.00 Ry     beta= 0.60
     Davidson diagonalization with overlap
     ethr =  4.37E-09,  avg # of iterations =  5.7

     total cpu time spent up to now is     3320.5 secs

     total energy              =    -703.67669253 Ry
     Harris-Foulkes estimate   =    -703.67669480 Ry
     estimated scf accuracy    <       0.00002494 Ry

     iteration # 19     ecut=    40.00 Ry     beta= 0.60
     Davidson diagonalization with overlap
     ethr =  4.37E-09,  avg # of iterations =  4.0

     total cpu time spent up to now is     3378.9 secs

     total energy              =    -703.67669244 Ry
     Harris-Foulkes estimate   =    -703.67669317 Ry
     estimated scf accuracy    <       0.00000489 Ry

     iteration # 20     ecut=    40.00 Ry     beta= 0.60
     Davidson diagonalization with overlap
     ethr =  4.37E-09,  avg # of iterations =  3.6

     total cpu time spent up to now is     3437.1 secs

     total energy              =    -703.67669285 Ry
     Harris-Foulkes estimate   =    -703.67669287 Ry
     estimated scf accuracy    <       0.00000013 Ry

     iteration # 21     ecut=    40.00 Ry     beta= 0.60
     Davidson diagonalization with overlap
     ethr =  1.70E-10,  avg # of iterations =  5.1

     total cpu time spent up to now is     3511.3 secs

     total energy              =    -703.67669291 Ry
     Harris-Foulkes estimate   =    -703.67669292 Ry
     estimated scf accuracy    <       0.00000013 Ry

     iteration # 22     ecut=    40.00 Ry     beta= 0.60
     Davidson diagonalization with overlap
     ethr =  1.70E-10,  avg # of iterations =  1.0

     total cpu time spent up to now is     3558.2 secs

     total energy              =    -703.67669290 Ry
     Harris-Foulkes estimate   =    -703.67669291 Ry
     estimated scf accuracy    <       0.00000004 Ry

     iteration # 23     ecut=    40.00 Ry     beta= 0.60
     Davidson diagonalization with overlap
     ethr =  5.64E-11,  avg # of iterations =  3.3

     total cpu time spent up to now is     3617.3 secs

     total energy              =    -703.67669291 Ry
     Harris-Foulkes estimate   =    -703.67669291 Ry
     estimated scf accuracy    <          2.5E-09 Ry

     iteration # 24     ecut=    40.00 Ry     beta= 0.60
     Davidson diagonalization with overlap
     ethr =  3.35E-12,  avg # of iterations =  2.9

     total cpu time spent up to now is     3673.6 secs

     total energy              =    -703.67669291 Ry
     Harris-Foulkes estimate   =    -703.67669291 Ry
     estimated scf accuracy    <          5.8E-10 Ry

     iteration # 25     ecut=    40.00 Ry     beta= 0.60
     Davidson diagonalization with overlap
     ethr =  7.75E-13,  avg # of iterations =  3.0

     total cpu time spent up to now is     3728.5 secs

     total energy              =    -703.67669291 Ry
     Harris-Foulkes estimate   =    -703.67669291 Ry
     estimated scf accuracy    <          2.1E-10 Ry

     iteration # 26     ecut=    40.00 Ry     beta= 0.60
     Davidson diagonalization with overlap
     ethr =  2.85E-13,  avg # of iterations =  3.6

     total cpu time spent up to now is     3789.2 secs

     End of self-consistent calculation

     Number of k-points >= 100: set verbosity='high' to print the bands.

     the Fermi energy is    14.9384 ev

!    total energy              =    -703.67669291 Ry
     Harris-Foulkes estimate   =    -703.67669291 Ry
     estimated scf accuracy    <          2.3E-11 Ry

     The total energy is the sum of the following terms:

     one-electron contribution =    -187.45626005 Ry
     hartree contribution      =     122.51905775 Ry
     xc contribution           =     -98.58125047 Ry
     ewald contribution        =    -540.15292050 Ry
     smearing contrib. (-TS)   =      -0.00531964 Ry

     convergence has been achieved in  26 iterations

     Forces acting on atoms (cartesian axes, Ry/au):

     atom    1 type  2   force =    -0.00099700   -0.00049067   -0.00145246
     atom    2 type  2   force =     0.00090943   -0.00052506    0.00000000
     atom    3 type  2   force =    -0.00007357    0.00110876    0.00145246
     atom    4 type  1   force =    -0.00002079    0.00136305    0.00379637
     atom    5 type  1   force =     0.00137275   -0.00079256    0.00000000
     atom    6 type  1   force =    -0.00119083   -0.00066352   -0.00379637

     Total force =     0.006546     Total SCF correction =     0.000005


     Computing stress (Cartesian axis) and pressure

          total   stress  (Ry/bohr**3)                   (kbar)     P=  -57.70
  -0.00045111   0.00000011  -0.00000396        -66.36      0.02     -0.58
   0.00000011  -0.00045098  -0.00000685          0.02    -66.34     -1.01
  -0.00000396  -0.00000685  -0.00027464         -0.58     -1.01    -40.40


     number of scf cycles    =   2
     number of bfgs steps    =   1

     enthalpy old            =    -703.6438893676 Ry
     enthalpy new            =    -703.6766929088 Ry

     CASE: enthalpy_new < enthalpy_old

     new trust radius        =       0.1108926108 bohr
     new conv_thr            =            1.0E-10 Ry

     new unit-cell volume =    718.34574 a.u.^3 (   106.44785 Ang^3 )
     density =      6.58801 g/cm^3

CELL_PARAMETERS (alat=  1.88972599)
   2.914403689  -0.002587830   4.817768333
  -1.459442972   2.522653906   4.817768333
  -1.459500097  -2.527928511   4.820544885

ATOMIC_POSITIONS (angstrom)
Ti      -0.003886366  -0.005628550   9.635113418
Ti      -0.001508648  -1.687909071   7.228966293
Ti      -0.004634348  -0.006924092  14.458355833
Nb       1.455674929   0.838866844   7.232566461
Nb      -0.000417317  -0.003253477   4.818693850
Nb      -1.461111702   0.837327298   7.222589573


     NEW-OLD atomic charge density approx. for the potential

     Check: negative/imaginary core charge=   -0.000001    0.000000
     extrapolated charge   71.08117, renormalised to   75.00000

     total cpu time spent up to now is     3810.3 secs

     Self-consistent Calculation

     iteration #  1     ecut=    40.00 Ry     beta= 0.60
     Davidson diagonalization with overlap
     c_bands:  1 eigenvalues not converged
     c_bands:  1 eigenvalues not converged
     c_bands:  2 eigenvalues not converged
     c_bands:  1 eigenvalues not converged
     c_bands:  1 eigenvalues not converged
     c_bands:  1 eigenvalues not converged
     c_bands:  1 eigenvalues not converged
     c_bands:  2 eigenvalues not converged
     c_bands:  2 eigenvalues not converged
     c_bands:  2 eigenvalues not converged
     c_bands:  1 eigenvalues not converged
     c_bands:  1 eigenvalues not converged
     c_bands:  1 eigenvalues not converged
     c_bands:  2 eigenvalues not converged
     c_bands:  1 eigenvalues not converged
     c_bands:  1 eigenvalues not converged
     c_bands:  2 eigenvalues not converged
     c_bands:  1 eigenvalues not converged
     c_bands:  1 eigenvalues not converged
     c_bands:  1 eigenvalues not converged
     c_bands:  1 eigenvalues not converged
     c_bands:  2 eigenvalues not converged
     c_bands:  1 eigenvalues not converged
     c_bands:  1 eigenvalues not converged
     c_bands:  1 eigenvalues not converged
     c_bands:  1 eigenvalues not converged
     c_bands:  1 eigenvalues not converged
     c_bands:  1 eigenvalues not converged
     c_bands:  1 eigenvalues not converged
     c_bands:  2 eigenvalues not converged
     c_bands:  1 eigenvalues not converged
     c_bands:  1 eigenvalues not converged
     c_bands:  1 eigenvalues not converged
     c_bands:  1 eigenvalues not converged
     c_bands:  1 eigenvalues not converged
     c_bands:  1 eigenvalues not converged
     c_bands:  1 eigenvalues not converged
     c_bands:  1 eigenvalues not converged
     c_bands:  1 eigenvalues not converged
     c_bands:  2 eigenvalues not converged
     c_bands:  2 eigenvalues not converged
     c_bands:  1 eigenvalues not converged
     c_bands:  1 eigenvalues not converged
     c_bands:  2 eigenvalues not converged
     c_bands:  2 eigenvalues not converged
     c_bands:  1 eigenvalues not converged
     c_bands:  1 eigenvalues not converged
     c_bands:  1 eigenvalues not converged
     c_bands:  2 eigenvalues not converged
     c_bands:  2 eigenvalues not converged
     c_bands:  1 eigenvalues not converged
     c_bands:  1 eigenvalues not converged
     c_bands:  2 eigenvalues not converged
     c_bands:  2 eigenvalues not converged
     c_bands:  1 eigenvalues not converged
     c_bands:  1 eigenvalues not converged
     c_bands:  1 eigenvalues not converged
     c_bands:  1 eigenvalues not converged
     c_bands:  1 eigenvalues not converged
     c_bands:  1 eigenvalues not converged
     c_bands:  1 eigenvalues not converged
     c_bands:  1 eigenvalues not converged
     c_bands:  1 eigenvalues not converged
     c_bands:  1 eigenvalues not converged
     c_bands:  1 eigenvalues not converged
     c_bands:  1 eigenvalues not converged
     c_bands:  1 eigenvalues not converged
     c_bands:  1 eigenvalues not converged
     c_bands:  1 eigenvalues not converged
     c_bands:  1 eigenvalues not converged
     c_bands:  1 eigenvalues not converged
     c_bands:  1 eigenvalues not converged
     c_bands:  1 eigenvalues not converged
     c_bands:  1 eigenvalues not converged
     c_bands:  1 eigenvalues not converged
     c_bands:  1 eigenvalues not converged
     c_bands:  2 eigenvalues not converged
     c_bands:  1 eigenvalues not converged
     c_bands:  1 eigenvalues not converged
     c_bands:  1 eigenvalues not converged
     c_bands:  1 eigenvalues not converged
     c_bands:  1 eigenvalues not converged
     c_bands:  1 eigenvalues not converged
     c_bands:  2 eigenvalues not converged
     c_bands:  2 eigenvalues not converged
     c_bands:  2 eigenvalues not converged
     c_bands:  2 eigenvalues not converged
     c_bands:  1 eigenvalues not converged
     c_bands:  2 eigenvalues not converged
     c_bands:  1 eigenvalues not converged
     c_bands:  1 eigenvalues not converged
     c_bands:  1 eigenvalues not converged
     c_bands:  2 eigenvalues not converged
     c_bands:  1 eigenvalues not converged
     c_bands:  1 eigenvalues not converged
     c_bands:  1 eigenvalues not converged
     c_bands:  1 eigenvalues not converged
     c_bands:  2 eigenvalues not converged
     c_bands:  1 eigenvalues not converged
     c_bands:  2 eigenvalues not converged
     c_bands:  2 eigenvalues not converged
     c_bands:  1 eigenvalues not converged
     c_bands:  1 eigenvalues not converged
     c_bands:  1 eigenvalues not converged
     c_bands:  1 eigenvalues not converged
     c_bands:  1 eigenvalues not converged
     c_bands:  2 eigenvalues not converged
     c_bands:  1 eigenvalues not converged
     c_bands:  1 eigenvalues not converged
     c_bands:  1 eigenvalues not converged
     c_bands:  1 eigenvalues not converged
     c_bands:  2 eigenvalues not converged
     c_bands:  1 eigenvalues not converged
     c_bands:  1 eigenvalues not converged
     c_bands:  2 eigenvalues not converged
     c_bands:  2 eigenvalues not converged
     c_bands:  1 eigenvalues not converged
     c_bands:  2 eigenvalues not converged
     c_bands:  2 eigenvalues not converged
     c_bands:  1 eigenvalues not converged
     c_bands:  1 eigenvalues not converged
     c_bands:  1 eigenvalues not converged
     c_bands:  1 eigenvalues not converged
     c_bands:  1 eigenvalues not converged
     c_bands:  2 eigenvalues not converged
     c_bands:  2 eigenvalues not converged
     c_bands:  1 eigenvalues not converged
     c_bands:  2 eigenvalues not converged
     c_bands:  1 eigenvalues not converged
     c_bands:  2 eigenvalues not converged
     c_bands:  1 eigenvalues not converged
     c_bands:  1 eigenvalues not converged
     c_bands:  1 eigenvalues not converged
     c_bands:  1 eigenvalues not converged
     c_bands:  1 eigenvalues not converged
     c_bands:  2 eigenvalues not converged
     c_bands:  2 eigenvalues not converged
     c_bands:  1 eigenvalues not converged
     c_bands:  1 eigenvalues not converged
     c_bands:  1 eigenvalues not converged
     c_bands:  1 eigenvalues not converged
     c_bands:  1 eigenvalues not converged
     c_bands:  2 eigenvalues not converged
     c_bands:  2 eigenvalues not converged
     c_bands:  1 eigenvalues not converged
     c_bands:  1 eigenvalues not converged
     c_bands:  1 eigenvalues not converged
     c_bands:  2 eigenvalues not converged
     c_bands:  2 eigenvalues not converged
     c_bands:  1 eigenvalues not converged
     c_bands:  1 eigenvalues not converged
     c_bands:  1 eigenvalues not converged
     c_bands:  1 eigenvalues not converged
     c_bands:  2 eigenvalues not converged
     c_bands:  2 eigenvalues not converged
     c_bands:  1 eigenvalues not converged
     c_bands:  1 eigenvalues not converged
     c_bands:  1 eigenvalues not converged
     c_bands:  1 eigenvalues not converged
     c_bands:  1 eigenvalues not converged
     c_bands:  2 eigenvalues not converged
     c_bands:  1 eigenvalues not converged
     c_bands:  1 eigenvalues not converged
     c_bands:  1 eigenvalues not converged
     c_bands:  1 eigenvalues not converged
     c_bands:  2 eigenvalues not converged
     c_bands:  1 eigenvalues not converged
     c_bands:  2 eigenvalues not converged
     c_bands:  1 eigenvalues not converged
     c_bands:  1 eigenvalues not converged
     c_bands:  1 eigenvalues not converged
     c_bands:  1 eigenvalues not converged
     c_bands:  1 eigenvalues not converged
     c_bands:  1 eigenvalues not converged
     c_bands:  1 eigenvalues not converged
     c_bands:  2 eigenvalues not converged
     c_bands:  1 eigenvalues not converged
     c_bands:  1 eigenvalues not converged
     c_bands:  1 eigenvalues not converged
     c_bands:  1 eigenvalues not converged
     c_bands:  1 eigenvalues not converged
     c_bands:  1 eigenvalues not converged
     c_bands:  1 eigenvalues not converged
     c_bands:  1 eigenvalues not converged
     c_bands:  1 eigenvalues not converged
     c_bands:  1 eigenvalues not converged
     c_bands:  1 eigenvalues not converged
     c_bands:  1 eigenvalues not converged
     c_bands:  1 eigenvalues not converged
     c_bands:  1 eigenvalues not converged
     c_bands:  2 eigenvalues not converged
     c_bands:  1 eigenvalues not converged
     c_bands:  1 eigenvalues not converged
     c_bands:  1 eigenvalues not converged
     c_bands:  1 eigenvalues not converged
     c_bands:  1 eigenvalues not converged
     c_bands:  1 eigenvalues not converged
     c_bands:  1 eigenvalues not converged
     c_bands:  1 eigenvalues not converged
     c_bands:  1 eigenvalues not converged
     c_bands:  1 eigenvalues not converged
     c_bands:  1 eigenvalues not converged
     c_bands:  1 eigenvalues not converged
     c_bands:  1 eigenvalues not converged
     c_bands:  1 eigenvalues not converged
     c_bands:  1 eigenvalues not converged
     c_bands:  1 eigenvalues not converged
     c_bands:  1 eigenvalues not converged
     c_bands:  1 eigenvalues not converged
     c_bands:  1 eigenvalues not converged
     c_bands:  1 eigenvalues not converged
     c_bands:  1 eigenvalues not converged
     c_bands:  1 eigenvalues not converged
     ethr =  1.00E-06,  avg # of iterations = 17.1

     total cpu time spent up to now is     4022.1 secs

     total energy              =    -700.13091347 Ry
     Harris-Foulkes estimate   =    -710.47093589 Ry
     estimated scf accuracy    <       3.66524095 Ry

     iteration #  2     ecut=    40.00 Ry     beta= 0.60
     Davidson diagonalization with overlap
     ethr =  4.89E-03,  avg # of iterations =  5.2

     total cpu time spent up to now is     4126.6 secs

     total energy              =    -703.07902690 Ry
     Harris-Foulkes estimate   =    -709.52210559 Ry
     estimated scf accuracy    <      22.67099164 Ry

     iteration #  3     ecut=    40.00 Ry     beta= 0.60
     Davidson diagonalization with overlap
     ethr =  4.89E-03,  avg # of iterations =  4.8

     total cpu time spent up to now is     4201.6 secs

     total energy              =    -703.76724809 Ry
     Harris-Foulkes estimate   =    -704.47379436 Ry
     estimated scf accuracy    <       3.73648371 Ry

     iteration #  4     ecut=    40.00 Ry     beta= 0.60
     Davidson diagonalization with overlap
     ethr =  4.89E-03,  avg # of iterations =  1.1

     total cpu time spent up to now is     4248.9 secs

     total energy              =    -703.75244690 Ry
     Harris-Foulkes estimate   =    -703.88199488 Ry
     estimated scf accuracy    <       2.12862160 Ry

     iteration #  5     ecut=    40.00 Ry     beta= 0.60
     Davidson diagonalization with overlap
     ethr =  2.84E-03,  avg # of iterations =  1.2

     total cpu time spent up to now is     4296.4 secs

     total energy              =    -703.62923732 Ry
     Harris-Foulkes estimate   =    -703.79724143 Ry
     estimated scf accuracy    <       1.47619934 Ry

     iteration #  6     ecut=    40.00 Ry     beta= 0.60
     Davidson diagonalization with overlap
     ethr =  1.97E-03,  avg # of iterations =  2.0

     total cpu time spent up to now is     4345.9 secs

     total energy              =    -703.66582536 Ry
     Harris-Foulkes estimate   =    -703.67012776 Ry
     estimated scf accuracy    <       0.64723276 Ry

     iteration #  7     ecut=    40.00 Ry     beta= 0.60
     Davidson diagonalization with overlap
     ethr =  8.63E-04,  avg # of iterations =  4.2

     total cpu time spent up to now is     4406.5 secs

     total energy              =    -703.74796799 Ry
     Harris-Foulkes estimate   =    -703.71316991 Ry
     estimated scf accuracy    <       0.27447496 Ry

     iteration #  8     ecut=    40.00 Ry     beta= 0.60
     Davidson diagonalization with overlap
     ethr =  3.66E-04,  avg # of iterations =  3.1

     total cpu time spent up to now is     4459.7 secs

     total energy              =    -703.75110350 Ry
     Harris-Foulkes estimate   =    -703.75727685 Ry
     estimated scf accuracy    <       0.45930015 Ry

     iteration #  9     ecut=    40.00 Ry     beta= 0.60
     Davidson diagonalization with overlap
     ethr =  3.66E-04,  avg # of iterations =  1.1

     total cpu time spent up to now is     4506.7 secs

     total energy              =    -703.72020841 Ry
     Harris-Foulkes estimate   =    -703.75332164 Ry
     estimated scf accuracy    <       0.46997226 Ry

     iteration # 10     ecut=    40.00 Ry     beta= 0.60
     Davidson diagonalization with overlap
     ethr =  3.66E-04,  avg # of iterations =  1.0

     total cpu time spent up to now is     4553.8 secs

     total energy              =    -703.65760491 Ry
     Harris-Foulkes estimate   =    -703.72292201 Ry
     estimated scf accuracy    <       0.33223591 Ry

     iteration # 11     ecut=    40.00 Ry     beta= 0.60
     Davidson diagonalization with overlap
     ethr =  3.66E-04,  avg # of iterations =  3.3

     total cpu time spent up to now is     4610.0 secs

     total energy              =    -703.67917139 Ry
     Harris-Foulkes estimate   =    -703.67925725 Ry
     estimated scf accuracy    <       0.04827832 Ry

     iteration # 12     ecut=    40.00 Ry     beta= 0.60
     Davidson diagonalization with overlap
     ethr =  6.44E-05,  avg # of iterations =  5.9

     total cpu time spent up to now is     4686.6 secs

     total energy              =    -703.68273707 Ry
     Harris-Foulkes estimate   =    -703.68504517 Ry
     estimated scf accuracy    <       0.01652016 Ry

     iteration # 13     ecut=    40.00 Ry     beta= 0.60
     Davidson diagonalization with overlap
     ethr =  2.20E-05,  avg # of iterations =  2.6

     total cpu time spent up to now is     4739.3 secs

     total energy              =    -703.68406590 Ry
     Harris-Foulkes estimate   =    -703.68365811 Ry
     estimated scf accuracy    <       0.00239865 Ry

     iteration # 14     ecut=    40.00 Ry     beta= 0.60
     Davidson diagonalization with overlap
     ethr =  3.20E-06,  avg # of iterations =  4.3

     total cpu time spent up to now is     4803.1 secs

     total energy              =    -703.68420010 Ry
     Harris-Foulkes estimate   =    -703.68436650 Ry
     estimated scf accuracy    <       0.00494146 Ry

     iteration # 15     ecut=    40.00 Ry     beta= 0.60
     Davidson diagonalization with overlap
     ethr =  3.20E-06,  avg # of iterations =  1.0

     total cpu time spent up to now is     4850.3 secs

     total energy              =    -703.68362227 Ry
     Harris-Foulkes estimate   =    -703.68422698 Ry
     estimated scf accuracy    <       0.00364577 Ry

     iteration # 16     ecut=    40.00 Ry     beta= 0.60
     Davidson diagonalization with overlap
     ethr =  3.20E-06,  avg # of iterations =  3.7

     total cpu time spent up to now is     4913.0 secs

     total energy              =    -703.68395327 Ry
     Harris-Foulkes estimate   =    -703.68398873 Ry
     estimated scf accuracy    <       0.00016671 Ry

     iteration # 17     ecut=    40.00 Ry     beta= 0.60
     Davidson diagonalization with overlap
     ethr =  2.22E-07,  avg # of iterations =  4.8

     total cpu time spent up to now is     4988.3 secs

     total energy              =    -703.68403843 Ry
     Harris-Foulkes estimate   =    -703.68405960 Ry
     estimated scf accuracy    <       0.00077513 Ry

     iteration # 18     ecut=    40.00 Ry     beta= 0.60
     Davidson diagonalization with overlap
     ethr =  2.22E-07,  avg # of iterations =  1.0

     total cpu time spent up to now is     5035.4 secs

     total energy              =    -703.68398922 Ry
     Harris-Foulkes estimate   =    -703.68403975 Ry
     estimated scf accuracy    <       0.00064503 Ry

     iteration # 19     ecut=    40.00 Ry     beta= 0.60
     Davidson diagonalization with overlap
     ethr =  2.22E-07,  avg # of iterations =  2.5

     total cpu time spent up to now is     5088.6 secs

     total energy              =    -703.68398887 Ry
     Harris-Foulkes estimate   =    -703.68400097 Ry
     estimated scf accuracy    <       0.00020951 Ry

     iteration # 20     ecut=    40.00 Ry     beta= 0.60
     Davidson diagonalization with overlap
     ethr =  2.22E-07,  avg # of iterations =  1.0

     total cpu time spent up to now is     5135.7 secs

     total energy              =    -703.68397861 Ry
     Harris-Foulkes estimate   =    -703.68399150 Ry
     estimated scf accuracy    <       0.00011788 Ry

     iteration # 21     ecut=    40.00 Ry     beta= 0.60
     Davidson diagonalization with overlap
     ethr =  1.57E-07,  avg # of iterations =  3.0

     total cpu time spent up to now is     5190.8 secs

     total energy              =    -703.68398236 Ry
     Harris-Foulkes estimate   =    -703.68398519 Ry
     estimated scf accuracy    <       0.00001095 Ry

     iteration # 22     ecut=    40.00 Ry     beta= 0.60
     Davidson diagonalization with overlap
     ethr =  1.46E-08,  avg # of iterations =  4.4

     total cpu time spent up to now is     5269.3 secs

     total energy              =    -703.68398604 Ry
     Harris-Foulkes estimate   =    -703.68398817 Ry
     estimated scf accuracy    <       0.00001361 Ry

     iteration # 23     ecut=    40.00 Ry     beta= 0.60
     Davidson diagonalization with overlap
     ethr =  1.46E-08,  avg # of iterations =  1.0

     total cpu time spent up to now is     5318.7 secs

     total energy              =    -703.68398643 Ry
     Harris-Foulkes estimate   =    -703.68398669 Ry
     estimated scf accuracy    <       0.00000143 Ry

     iteration # 24     ecut=    40.00 Ry     beta= 0.60
     Davidson diagonalization with overlap
     ethr =  1.91E-09,  avg # of iterations =  4.1

     total cpu time spent up to now is     5394.9 secs

     total energy              =    -703.68398693 Ry
     Harris-Foulkes estimate   =    -703.68398712 Ry
     estimated scf accuracy    <       0.00000139 Ry

     iteration # 25     ecut=    40.00 Ry     beta= 0.60
     Davidson diagonalization with overlap
     ethr =  1.86E-09,  avg # of iterations =  1.0

     total cpu time spent up to now is     5444.3 secs

     total energy              =    -703.68398695 Ry
     Harris-Foulkes estimate   =    -703.68398698 Ry
     estimated scf accuracy    <       0.00000023 Ry

     iteration # 26     ecut=    40.00 Ry     beta= 0.60
     Davidson diagonalization with overlap
     ethr =  3.08E-10,  avg # of iterations =  4.0

     total cpu time spent up to now is     5515.6 secs

     total energy              =    -703.68398700 Ry
     Harris-Foulkes estimate   =    -703.68398700 Ry
     estimated scf accuracy    <       0.00000001 Ry

     iteration # 27     ecut=    40.00 Ry     beta= 0.60
     Davidson diagonalization with overlap
     ethr =  1.88E-11,  avg # of iterations =  2.6

     total cpu time spent up to now is     5572.3 secs

     total energy              =    -703.68398700 Ry
     Harris-Foulkes estimate   =    -703.68398700 Ry
     estimated scf accuracy    <          1.9E-09 Ry

     iteration # 28     ecut=    40.00 Ry     beta= 0.60
     Davidson diagonalization with overlap
     ethr =  2.52E-12,  avg # of iterations =  4.1

     total cpu time spent up to now is     5641.5 secs

     total energy              =    -703.68398700 Ry
     Harris-Foulkes estimate   =    -703.68398700 Ry
     estimated scf accuracy    <          3.4E-10 Ry

     iteration # 29     ecut=    40.00 Ry     beta= 0.60
     Davidson diagonalization with overlap
     ethr =  4.53E-13,  avg # of iterations =  1.5

     total cpu time spent up to now is     5690.0 secs

     End of self-consistent calculation

     Number of k-points >= 100: set verbosity='high' to print the bands.

     the Fermi energy is    15.8828 ev

!    total energy              =    -703.68398700 Ry
     Harris-Foulkes estimate   =    -703.68398700 Ry
     estimated scf accuracy    <          5.1E-11 Ry

     The total energy is the sum of the following terms:

     one-electron contribution =    -173.48440198 Ry
     hartree contribution      =     118.45683776 Ry
     xc contribution           =     -98.87666820 Ry
     ewald contribution        =    -549.77519592 Ry
     smearing contrib. (-TS)   =      -0.00455866 Ry

     convergence has been achieved in  29 iterations

     Forces acting on atoms (cartesian axes, Ry/au):

     atom    1 type  2   force =    -0.00196746   -0.00113099   -0.00087722
     atom    2 type  2   force =     0.00158245   -0.00091363    0.00000000
     atom    3 type  2   force =    -0.00000426    0.00226936    0.00087722
     atom    4 type  1   force =    -0.00013199    0.00283714    0.00342232
     atom    5 type  1   force =     0.00304429   -0.00175762    0.00000000
     atom    6 type  1   force =    -0.00252303   -0.00130426   -0.00342232

     Total force =     0.008191     Total SCF correction =     0.000006


     Computing stress (Cartesian axis) and pressure

          total   stress  (Ry/bohr**3)                   (kbar)     P=   11.49
   0.00001821   0.00000057  -0.00000280          2.68      0.08     -0.41
   0.00000057   0.00001887  -0.00000485          0.08      2.78     -0.71
  -0.00000280  -0.00000485   0.00019733         -0.41     -0.71     29.03


     number of scf cycles    =   3
     number of bfgs steps    =   2

     enthalpy old            =    -703.6766929088 Ry
     enthalpy new            =    -703.6839869988 Ry

     CASE: enthalpy_new < enthalpy_old

     new trust radius        =       0.0236180502 bohr
     new conv_thr            =            1.0E-10 Ry

     new unit-cell volume =    722.90827 a.u.^3 (   107.12395 Ang^3 )
     density =      6.54643 g/cm^3

CELL_PARAMETERS (alat=  1.88972599)
   2.916954467  -0.002991312   4.838840456
  -1.461067786   2.524661204   4.838840456
  -1.461185915  -2.530848432   4.842078190

ATOMIC_POSITIONS (angstrom)
Ti      -0.005200048  -0.006972033   9.677213419
Ti      -0.001263256  -1.690582298   7.260958796
Ti      -0.005394121  -0.007308178  14.522385085
Nb       1.456650210   0.840210855   7.265662236
Nb       0.000583671  -0.004416334   4.839919701
Nb      -1.463919393   0.836940568   7.253017622


     NEW-OLD atomic charge density approx. for the potential

     Check: negative/imaginary core charge=   -0.000001    0.000000
     extrapolated charge   75.45437, renormalised to   75.00000

     total cpu time spent up to now is     5710.5 secs

     Self-consistent Calculation

     iteration #  1     ecut=    40.00 Ry     beta= 0.60
     Davidson diagonalization with overlap
     c_bands:  1 eigenvalues not converged
     c_bands:  3 eigenvalues not converged
     c_bands:  1 eigenvalues not converged
     c_bands:  1 eigenvalues not converged
     ethr =  1.00E-06,  avg # of iterations =  7.0

     total cpu time spent up to now is     5825.4 secs

     total energy              =    -703.66556942 Ry
     Harris-Foulkes estimate   =    -702.92996189 Ry
     estimated scf accuracy    <       0.01665813 Ry

     iteration #  2     ecut=    40.00 Ry     beta= 0.60
     Davidson diagonalization with overlap
     c_bands:  1 eigenvalues not converged
     c_bands:  1 eigenvalues not converged
     c_bands:  1 eigenvalues not converged
     ethr =  2.22E-05,  avg # of iterations =  5.4

     total cpu time spent up to now is     5930.3 secs

     total energy              =    -703.65385360 Ry
     Harris-Foulkes estimate   =    -703.72670561 Ry
     estimated scf accuracy    <       0.49475904 Ry

     iteration #  3     ecut=    40.00 Ry     beta= 0.60
     Davidson diagonalization with overlap
     ethr =  2.22E-05,  avg # of iterations =  5.0

     total cpu time spent up to now is     6019.4 secs

     total energy              =    -703.68268034 Ry
     Harris-Foulkes estimate   =    -703.68828438 Ry
     estimated scf accuracy    <       0.01870803 Ry

     iteration #  4     ecut=    40.00 Ry     beta= 0.60
     Davidson diagonalization with overlap
     ethr =  2.22E-05,  avg # of iterations =  4.5

     total cpu time spent up to now is     6083.6 secs

     total energy              =    -703.68309038 Ry
     Harris-Foulkes estimate   =    -703.68822283 Ry
     estimated scf accuracy    <       0.04694321 Ry

     iteration #  5     ecut=    40.00 Ry     beta= 0.60
     Davidson diagonalization with overlap
     ethr =  2.22E-05,  avg # of iterations =  1.7

     total cpu time spent up to now is     6132.4 secs

     total energy              =    -703.68475067 Ry
     Harris-Foulkes estimate   =    -703.68500367 Ry
     estimated scf accuracy    <       0.00625360 Ry

     iteration #  6     ecut=    40.00 Ry     beta= 0.60
     Davidson diagonalization with overlap
     ethr =  8.34E-06,  avg # of iterations =  4.1

     total cpu time spent up to now is     6191.1 secs

     total energy              =    -703.68475150 Ry
     Harris-Foulkes estimate   =    -703.68516297 Ry
     estimated scf accuracy    <       0.00416744 Ry

     iteration #  7     ecut=    40.00 Ry     beta= 0.60
     Davidson diagonalization with overlap
     ethr =  5.56E-06,  avg # of iterations =  1.6

     total cpu time spent up to now is     6239.7 secs

     total energy              =    -703.68445322 Ry
     Harris-Foulkes estimate   =    -703.68482073 Ry
     estimated scf accuracy    <       0.00254580 Ry

     iteration #  8     ecut=    40.00 Ry     beta= 0.60
     Davidson diagonalization with overlap
     ethr =  3.39E-06,  avg # of iterations =  2.3

     total cpu time spent up to now is     6291.5 secs

     total energy              =    -703.68446495 Ry
     Harris-Foulkes estimate   =    -703.68456477 Ry
     estimated scf accuracy    <       0.00074365 Ry

     iteration #  9     ecut=    40.00 Ry     beta= 0.60
     Davidson diagonalization with overlap
     ethr =  9.92E-07,  avg # of iterations =  3.9

     total cpu time spent up to now is     6350.9 secs

     total energy              =    -703.68451414 Ry
     Harris-Foulkes estimate   =    -703.68452560 Ry
     estimated scf accuracy    <       0.00010869 Ry

     iteration # 10     ecut=    40.00 Ry     beta= 0.60
     Davidson diagonalization with overlap
     ethr =  1.45E-07,  avg # of iterations =  4.3

     total cpu time spent up to now is     6414.5 secs

     total energy              =    -703.68451733 Ry
     Harris-Foulkes estimate   =    -703.68452952 Ry
     estimated scf accuracy    <       0.00003411 Ry

     iteration # 11     ecut=    40.00 Ry     beta= 0.60
     Davidson diagonalization with overlap
     ethr =  4.55E-08,  avg # of iterations =  4.2

     total cpu time spent up to now is     6481.6 secs

     total energy              =    -703.68452359 Ry
     Harris-Foulkes estimate   =    -703.68452446 Ry
     estimated scf accuracy    <       0.00000510 Ry

     iteration # 12     ecut=    40.00 Ry     beta= 0.60
     Davidson diagonalization with overlap
     ethr =  6.81E-09,  avg # of iterations =  2.9

     total cpu time spent up to now is     6536.7 secs

     total energy              =    -703.68452416 Ry
     Harris-Foulkes estimate   =    -703.68452422 Ry
     estimated scf accuracy    <       0.00000101 Ry

     iteration # 13     ecut=    40.00 Ry     beta= 0.60
     Davidson diagonalization with overlap
     ethr =  1.35E-09,  avg # of iterations =  4.1

     total cpu time spent up to now is     6603.4 secs

     total energy              =    -703.68452429 Ry
     Harris-Foulkes estimate   =    -703.68452437 Ry
     estimated scf accuracy    <       0.00000141 Ry

     iteration # 14     ecut=    40.00 Ry     beta= 0.60
     Davidson diagonalization with overlap
     ethr =  1.35E-09,  avg # of iterations =  1.0

     total cpu time spent up to now is     6650.3 secs

     total energy              =    -703.68452410 Ry
     Harris-Foulkes estimate   =    -703.68452431 Ry
     estimated scf accuracy    <       0.00000085 Ry

     iteration # 15     ecut=    40.00 Ry     beta= 0.60
     Davidson diagonalization with overlap
     ethr =  1.13E-09,  avg # of iterations =  3.4

     total cpu time spent up to now is     6712.4 secs

     total energy              =    -703.68452424 Ry
     Harris-Foulkes estimate   =    -703.68452427 Ry
     estimated scf accuracy    <       0.00000027 Ry

     iteration # 16     ecut=    40.00 Ry     beta= 0.60
     Davidson diagonalization with overlap
     ethr =  3.66E-10,  avg # of iterations =  1.0

     total cpu time spent up to now is     6759.4 secs

     total energy              =    -703.68452423 Ry
     Harris-Foulkes estimate   =    -703.68452425 Ry
     estimated scf accuracy    <       0.00000008 Ry

     iteration # 17     ecut=    40.00 Ry     beta= 0.60
     Davidson diagonalization with overlap
     ethr =  1.05E-10,  avg # of iterations =  3.7

     total cpu time spent up to now is     6822.9 secs

     total energy              =    -703.68452425 Ry
     Harris-Foulkes estimate   =    -703.68452425 Ry
     estimated scf accuracy    <       0.00000001 Ry

     iteration # 18     ecut=    40.00 Ry     beta= 0.60
     Davidson diagonalization with overlap
     ethr =  1.71E-11,  avg # of iterations =  1.9

     total cpu time spent up to now is     6872.7 secs

     total energy              =    -703.68452425 Ry
     Harris-Foulkes estimate   =    -703.68452425 Ry
     estimated scf accuracy    <          4.8E-09 Ry

     iteration # 19     ecut=    40.00 Ry     beta= 0.60
     Davidson diagonalization with overlap
     ethr =  6.43E-12,  avg # of iterations =  2.6

     total cpu time spent up to now is     6924.7 secs

     total energy              =    -703.68452425 Ry
     Harris-Foulkes estimate   =    -703.68452425 Ry
     estimated scf accuracy    <          1.3E-09 Ry

     iteration # 20     ecut=    40.00 Ry     beta= 0.60
     Davidson diagonalization with overlap
     ethr =  1.80E-12,  avg # of iterations =  3.7

     total cpu time spent up to now is     6986.5 secs

     End of self-consistent calculation

     Number of k-points >= 100: set verbosity='high' to print the bands.

     the Fermi energy is    15.7644 ev

!    total energy              =    -703.68452425 Ry
     Harris-Foulkes estimate   =    -703.68452425 Ry
     estimated scf accuracy    <          6.7E-11 Ry

     The total energy is the sum of the following terms:

     one-electron contribution =    -175.17526434 Ry
     hartree contribution      =     118.94800519 Ry
     xc contribution           =     -98.84109993 Ry
     ewald contribution        =    -548.61155580 Ry
     smearing contrib. (-TS)   =      -0.00460937 Ry

     convergence has been achieved in  20 iterations

     Forces acting on atoms (cartesian axes, Ry/au):

     atom    1 type  2   force =    -0.00176669   -0.00112237   -0.00089915
     atom    2 type  2   force =     0.00125101   -0.00072227    0.00000000
     atom    3 type  2   force =     0.00008866    0.00209118    0.00089915
     atom    4 type  1   force =    -0.00022720    0.00243178    0.00347487
     atom    5 type  1   force =     0.00287381   -0.00165919    0.00000000
     atom    6 type  1   force =    -0.00221959   -0.00101913   -0.00347487

     Total force =     0.007717     Total SCF correction =     0.000003


     Computing stress (Cartesian axis) and pressure

          total   stress  (Ry/bohr**3)                   (kbar)     P=    2.20
  -0.00003756   0.00000136  -0.00000293         -5.53      0.20     -0.43
   0.00000136  -0.00003599  -0.00000508          0.20     -5.29     -0.75
  -0.00000293  -0.00000508   0.00011834         -0.43     -0.75     17.41


     number of scf cycles    =   4
     number of bfgs steps    =   3

     enthalpy old            =    -703.6839869988 Ry
     enthalpy new            =    -703.6845242485 Ry

     CASE: enthalpy_new < enthalpy_old

     new trust radius        =       0.0353834406 bohr
     new conv_thr            =            1.0E-10 Ry

     new unit-cell volume =    725.50271 a.u.^3 (   107.50841 Ang^3 )
     density =      6.52302 g/cm^3

CELL_PARAMETERS (alat=  1.88972599)
   2.911824765  -0.004039425   4.870229880
  -1.459410628   2.519694695   4.870229880
  -1.459820117  -2.528482801   4.874751222

ATOMIC_POSITIONS (angstrom)
Ti      -0.008444729  -0.010538777   9.739880237
Ti      -0.001056983  -1.690746076   7.309112605
Ti      -0.007438814  -0.008796481  14.618804732
Nb       1.453225253   0.839810262   7.316670071
Nb       0.002831005  -0.007335606   4.871736994
Nb      -1.465032287   0.832707795   7.297033796


     NEW-OLD atomic charge density approx. for the potential

     Check: negative/imaginary core charge=   -0.000001    0.000000
     extrapolated charge   75.25745, renormalised to   75.00000

     total cpu time spent up to now is     7007.0 secs

     Self-consistent Calculation

     iteration #  1     ecut=    40.00 Ry     beta= 0.60
     Davidson diagonalization with overlap
     c_bands:  1 eigenvalues not converged
     c_bands:  2 eigenvalues not converged
     c_bands:  1 eigenvalues not converged
     c_bands:  1 eigenvalues not converged
     c_bands:  1 eigenvalues not converged
     ethr =  1.00E-06,  avg # of iterations =  5.8

     total cpu time spent up to now is     7122.2 secs

     total energy              =    -703.67921475 Ry
     Harris-Foulkes estimate   =    -703.25482791 Ry
     estimated scf accuracy    <       0.00518534 Ry

     iteration #  2     ecut=    40.00 Ry     beta= 0.60
     Davidson diagonalization with overlap
     c_bands:  2 eigenvalues not converged
     ethr =  6.91E-06,  avg # of iterations =  5.4

     total cpu time spent up to now is     7224.1 secs

     total energy              =    -703.67652450 Ry
     Harris-Foulkes estimate   =    -703.69756475 Ry
     estimated scf accuracy    <       0.13734638 Ry

     iteration #  3     ecut=    40.00 Ry     beta= 0.60
     Davidson diagonalization with overlap
     ethr =  6.91E-06,  avg # of iterations =  5.0

     total cpu time spent up to now is     7312.0 secs

     total energy              =    -703.68478413 Ry
     Harris-Foulkes estimate   =    -703.68629333 Ry
     estimated scf accuracy    <       0.00466285 Ry

     iteration #  4     ecut=    40.00 Ry     beta= 0.60
     Davidson diagonalization with overlap
     ethr =  6.22E-06,  avg # of iterations =  3.8

     total cpu time spent up to now is     7373.2 secs

     total energy              =    -703.68488496 Ry
     Harris-Foulkes estimate   =    -703.68613606 Ry
     estimated scf accuracy    <       0.01220216 Ry

     iteration #  5     ecut=    40.00 Ry     beta= 0.60
     Davidson diagonalization with overlap
     ethr =  6.22E-06,  avg # of iterations =  1.2

     total cpu time spent up to now is     7420.9 secs

     total energy              =    -703.68526794 Ry
     Harris-Foulkes estimate   =    -703.68536119 Ry
     estimated scf accuracy    <       0.00203316 Ry

     iteration #  6     ecut=    40.00 Ry     beta= 0.60
     Davidson diagonalization with overlap
     ethr =  2.71E-06,  avg # of iterations =  3.2

     total cpu time spent up to now is     7474.8 secs

     total energy              =    -703.68506763 Ry
     Harris-Foulkes estimate   =    -703.68534087 Ry
     estimated scf accuracy    <       0.00140514 Ry

     iteration #  7     ecut=    40.00 Ry     beta= 0.60
     Davidson diagonalization with overlap
     ethr =  1.87E-06,  avg # of iterations =  3.1

     total cpu time spent up to now is     7529.3 secs

     total energy              =    -703.68510096 Ry
     Harris-Foulkes estimate   =    -703.68515756 Ry
     estimated scf accuracy    <       0.00034260 Ry

     iteration #  8     ecut=    40.00 Ry     beta= 0.60
     Davidson diagonalization with overlap
     ethr =  4.57E-07,  avg # of iterations =  3.7

     total cpu time spent up to now is     7590.2 secs

     total energy              =    -703.68514036 Ry
     Harris-Foulkes estimate   =    -703.68514464 Ry
     estimated scf accuracy    <       0.00006049 Ry

     iteration #  9     ecut=    40.00 Ry     beta= 0.60
     Davidson diagonalization with overlap
     ethr =  8.07E-08,  avg # of iterations =  3.6

     total cpu time spent up to now is     7648.4 secs

     total energy              =    -703.68514193 Ry
     Harris-Foulkes estimate   =    -703.68514497 Ry
     estimated scf accuracy    <       0.00002277 Ry

     iteration # 10     ecut=    40.00 Ry     beta= 0.60
     Davidson diagonalization with overlap
     ethr =  3.04E-08,  avg # of iterations =  3.1

     total cpu time spent up to now is     7703.8 secs

     total energy              =    -703.68514381 Ry
     Harris-Foulkes estimate   =    -703.68514395 Ry
     estimated scf accuracy    <       0.00000089 Ry

     iteration # 11     ecut=    40.00 Ry     beta= 0.60
     Davidson diagonalization with overlap
     ethr =  1.19E-09,  avg # of iterations =  5.1

     total cpu time spent up to now is     7782.9 secs

     total energy              =    -703.68514429 Ry
     Harris-Foulkes estimate   =    -703.68514432 Ry
     estimated scf accuracy    <       0.00000023 Ry

     iteration # 12     ecut=    40.00 Ry     beta= 0.60
     Davidson diagonalization with overlap
     ethr =  3.04E-10,  avg # of iterations =  1.3

     total cpu time spent up to now is     7830.7 secs

     total energy              =    -703.68514428 Ry
     Harris-Foulkes estimate   =    -703.68514430 Ry
     estimated scf accuracy    <       0.00000010 Ry

     iteration # 13     ecut=    40.00 Ry     beta= 0.60
     Davidson diagonalization with overlap
     ethr =  1.31E-10,  avg # of iterations =  3.1

     total cpu time spent up to now is     7888.3 secs

     total energy              =    -703.68514429 Ry
     Harris-Foulkes estimate   =    -703.68514429 Ry
     estimated scf accuracy    <       0.00000002 Ry

     iteration # 14     ecut=    40.00 Ry     beta= 0.60
     Davidson diagonalization with overlap
     ethr =  2.87E-11,  avg # of iterations =  3.4

     total cpu time spent up to now is     7945.9 secs

[...]

     Total force =     0.000049     Total SCF correction =     0.000002


     Computing stress (Cartesian axis) and pressure

          total   stress  (Ry/bohr**3)                   (kbar)     P=    0.04
   0.00000016   0.00000006  -0.00000003          0.02      0.01     -0.00
   0.00000006   0.00000023  -0.00000005          0.01      0.03     -0.01
  -0.00000003  -0.00000005   0.00000032         -0.00     -0.01      0.05


     number of scf cycles    =  48
     number of bfgs steps    =  47

     enthalpy old            =    -703.7384868919 Ry
     enthalpy new            =    -703.7384869175 Ry

     CASE: enthalpy_new < enthalpy_old

     new trust radius        =       0.0001971203 bohr
     new conv_thr            =            2.2E-12 Ry

     new unit-cell volume =    709.68927 a.u.^3 (   105.16510 Ang^3 )
     density =      6.66836 g/cm^3

CELL_PARAMETERS (alat=  1.88972599)
   2.784488859   0.175861262   4.660059943
  -1.239944098   2.499368908   4.660059944
  -1.647989728  -2.854402101   4.707678433

ATOMIC_POSITIONS (angstrom)
Ti       0.294029099  -0.265271635   9.384672822
Ti      -0.523170689  -1.680513987   7.029771990
Ti       0.204338262  -0.420620713  13.994991044
Nb       1.057717419   1.057506133   6.934249446
Nb       0.300908392  -0.253361495   4.675932773
Nb      -1.695875840   0.935157617   7.077676045


     NEW-OLD atomic charge density approx. for the potential
     extrapolated charge   75.00084, renormalised to   75.00000

     total cpu time spent up to now is    56345.7 secs

     Self-consistent Calculation

     iteration #  1     ecut=    40.00 Ry     beta= 0.60
     Davidson diagonalization with overlap
     ethr =  1.00E-06,  avg # of iterations =  2.0

     Threshold (ethr) on eigenvalues was too large:
     Diagonalizing with lowered threshold

     Davidson diagonalization with overlap
     ethr =  9.43E-11,  avg # of iterations =  3.9

     total cpu time spent up to now is    56492.3 secs

     total energy              =    -703.73848687 Ry
     Harris-Foulkes estimate   =    -703.73710440 Ry
     estimated scf accuracy    <       0.00000008 Ry

     iteration #  2     ecut=    40.00 Ry     beta= 0.60
     Davidson diagonalization with overlap
     ethr =  1.05E-10,  avg # of iterations =  5.0

     total cpu time spent up to now is    56586.7 secs

     total energy              =    -703.73848685 Ry
     Harris-Foulkes estimate   =    -703.73848700 Ry
     estimated scf accuracy    <       0.00000068 Ry

     iteration #  3     ecut=    40.00 Ry     beta= 0.60
     Davidson diagonalization with overlap
     ethr =  1.05E-10,  avg # of iterations =  4.2

     total cpu time spent up to now is    56658.9 secs

     total energy              =    -703.73848690 Ry
     Harris-Foulkes estimate   =    -703.73848697 Ry
     estimated scf accuracy    <       0.00000045 Ry

     iteration #  4     ecut=    40.00 Ry     beta= 0.60
     Davidson diagonalization with overlap
     ethr =  1.05E-10,  avg # of iterations =  4.0

     total cpu time spent up to now is    56725.9 secs

     total energy              =    -703.73848693 Ry
     Harris-Foulkes estimate   =    -703.73848694 Ry
     estimated scf accuracy    <       0.00000005 Ry

     iteration #  5     ecut=    40.00 Ry     beta= 0.60
     Davidson diagonalization with overlap
     ethr =  6.25E-11,  avg # of iterations =  2.8

     total cpu time spent up to now is    56779.8 secs

     total energy              =    -703.73848693 Ry
     Harris-Foulkes estimate   =    -703.73848693 Ry
     estimated scf accuracy    <          7.3E-09 Ry

     iteration #  6     ecut=    40.00 Ry     beta= 0.60
     Davidson diagonalization with overlap
     ethr =  9.71E-12,  avg # of iterations =  3.2

     total cpu time spent up to now is    56839.7 secs

     total energy              =    -703.73848693 Ry
     Harris-Foulkes estimate   =    -703.73848693 Ry
     estimated scf accuracy    <          3.3E-09 Ry

     iteration #  7     ecut=    40.00 Ry     beta= 0.60
     Davidson diagonalization with overlap
     ethr =  4.39E-12,  avg # of iterations =  3.3

     total cpu time spent up to now is    56900.4 secs

     total energy              =    -703.73848693 Ry
     Harris-Foulkes estimate   =    -703.73848693 Ry
     estimated scf accuracy    <          3.0E-09 Ry

     iteration #  8     ecut=    40.00 Ry     beta= 0.60
     Davidson diagonalization with overlap
     ethr =  4.04E-12,  avg # of iterations =  1.3

     total cpu time spent up to now is    56948.3 secs

     total energy              =    -703.73848693 Ry
     Harris-Foulkes estimate   =    -703.73848693 Ry
     estimated scf accuracy    <          2.2E-10 Ry

     iteration #  9     ecut=    40.00 Ry     beta= 0.60
     Davidson diagonalization with overlap
     ethr =  2.97E-13,  avg # of iterations =  4.2

     total cpu time spent up to now is    57020.1 secs

     total energy              =    -703.73848693 Ry
     Harris-Foulkes estimate   =    -703.73848693 Ry
     estimated scf accuracy    <          8.7E-11 Ry

     iteration # 10     ecut=    40.00 Ry     beta= 0.60
     Davidson diagonalization with overlap
     ethr =  1.16E-13,  avg # of iterations =  3.0

     total cpu time spent up to now is    57074.8 secs

     total energy              =    -703.73848693 Ry
     Harris-Foulkes estimate   =    -703.73848693 Ry
     estimated scf accuracy    <          1.1E-11 Ry

     iteration # 11     ecut=    40.00 Ry     beta= 0.60
     Davidson diagonalization with overlap
     ethr =  1.00E-13,  avg # of iterations =  1.0

     total cpu time spent up to now is    57121.8 secs

     total energy              =    -703.73848693 Ry
     Harris-Foulkes estimate   =    -703.73848693 Ry
     estimated scf accuracy    <          9.0E-12 Ry

     iteration # 12     ecut=    40.00 Ry     beta= 0.60
     Davidson diagonalization with overlap
     ethr =  1.00E-13,  avg # of iterations =  1.0

     total cpu time spent up to now is    57168.8 secs

     End of self-consistent calculation

     Number of k-points >= 100: set verbosity='high' to print the bands.

     the Fermi energy is    15.7473 ev

!    total energy              =    -703.73848693 Ry
     Harris-Foulkes estimate   =    -703.73848693 Ry
     estimated scf accuracy    <          1.0E-12 Ry

     The total energy is the sum of the following terms:

     one-electron contribution =    -171.31737453 Ry
     hartree contribution      =     118.03340882 Ry
     xc contribution           =     -98.98184759 Ry
     ewald contribution        =    -551.47284020 Ry
     smearing contrib. (-TS)   =       0.00016658 Ry

     convergence has been achieved in  12 iterations

     Forces acting on atoms (cartesian axes, Ry/au):

     atom    1 type  2   force =    -0.00000048    0.00000028   -0.00000614
     atom    2 type  2   force =     0.00001012   -0.00000584    0.00000000
     atom    3 type  2   force =    -0.00000048    0.00000027    0.00000614
     atom    4 type  1   force =     0.00000011    0.00000778    0.00000785
     atom    5 type  1   force =    -0.00000258    0.00000149   -0.00000000
     atom    6 type  1   force =    -0.00000668   -0.00000398   -0.00000785

     Total force =     0.000022     Total SCF correction =     0.000001


     Computing stress (Cartesian axis) and pressure

          total   stress  (Ry/bohr**3)                   (kbar)     P=    0.01
   0.00000007   0.00000002   0.00000003          0.01      0.00      0.00
   0.00000002   0.00000010   0.00000005          0.00      0.01      0.01
   0.00000003   0.00000005   0.00000013          0.00      0.01      0.02


     number of scf cycles    =  49
     number of bfgs steps    =  48

     enthalpy old            =    -703.7384869175 Ry
     enthalpy new            =    -703.7384869299 Ry

     CASE: enthalpy_new < enthalpy_old

     small trust_radius: resetting bfgs history

     new trust radius        =       0.0000184694 bohr
     new conv_thr            =            1.0E-12 Ry

     new unit-cell volume =    709.69448 a.u.^3 (   105.16587 Ang^3 )
     density =      6.66831 g/cm^3

CELL_PARAMETERS (alat=  1.88972599)
   2.784497319   0.175868930   4.660076860
  -1.239941688   2.499380068   4.660076860
  -1.647990751  -2.854403873   4.707688512

ATOMIC_POSITIONS (angstrom)
Ti       0.294036012  -0.265260237   9.384699033
Ti      -0.523162059  -1.680512570   7.029791667
Ti       0.204348259  -0.420603974  13.995038020
Nb       1.057724922   1.057521982   6.934277540
Nb       0.300910813  -0.253355313   4.675947410
Nb      -1.695876839   0.935165725   7.077694141


     NEW-OLD atomic charge density approx. for the potential
     extrapolated charge   75.00053, renormalised to   75.00000

     total cpu time spent up to now is    57189.4 secs

     Self-consistent Calculation

     iteration #  1     ecut=    40.00 Ry     beta= 0.60
     Davidson diagonalization with overlap
     ethr =  1.00E-06,  avg # of iterations =  2.0

     Threshold (ethr) on eigenvalues was too large:
     Diagonalizing with lowered threshold

     Davidson diagonalization with overlap
     ethr =  1.97E-11,  avg # of iterations =  1.8

     total cpu time spent up to now is    57306.8 secs

     total energy              =    -703.73848691 Ry
     Harris-Foulkes estimate   =    -703.73762087 Ry
     estimated scf accuracy    <       0.00000002 Ry

     iteration #  2     ecut=    40.00 Ry     beta= 0.60
     Davidson diagonalization with overlap
     ethr =  2.17E-11,  avg # of iterations =  5.0

     total cpu time spent up to now is    57410.9 secs

     total energy              =    -703.73848691 Ry
     Harris-Foulkes estimate   =    -703.73848696 Ry
     estimated scf accuracy    <       0.00000025 Ry

     iteration #  3     ecut=    40.00 Ry     beta= 0.60
     Davidson diagonalization with overlap
     ethr =  2.17E-11,  avg # of iterations =  4.4

     total cpu time spent up to now is    57488.8 secs

     total energy              =    -703.73848693 Ry
     Harris-Foulkes estimate   =    -703.73848694 Ry
     estimated scf accuracy    <       0.00000003 Ry

     iteration #  4     ecut=    40.00 Ry     beta= 0.60
     Davidson diagonalization with overlap
     ethr =  2.17E-11,  avg # of iterations =  3.8

     total cpu time spent up to now is    57553.6 secs

     total energy              =    -703.73848693 Ry
     Harris-Foulkes estimate   =    -703.73848693 Ry
     estimated scf accuracy    <       0.00000002 Ry

     iteration #  5     ecut=    40.00 Ry     beta= 0.60
     Davidson diagonalization with overlap
     ethr =  2.17E-11,  avg # of iterations =  1.0

     total cpu time spent up to now is    57601.7 secs

     total energy              =    -703.73848693 Ry
     Harris-Foulkes estimate   =    -703.73848693 Ry
     estimated scf accuracy    <          5.1E-09 Ry

     iteration #  6     ecut=    40.00 Ry     beta= 0.60
     Davidson diagonalization with overlap
     ethr =  6.79E-12,  avg # of iterations =  3.4

     total cpu time spent up to now is    57658.2 secs

     total energy              =    -703.73848693 Ry
     Harris-Foulkes estimate   =    -703.73848693 Ry
     estimated scf accuracy    <          3.5E-09 Ry

     iteration #  7     ecut=    40.00 Ry     beta= 0.60
     Davidson diagonalization with overlap
     ethr =  4.60E-12,  avg # of iterations =  1.1

     total cpu time spent up to now is    57707.0 secs

     total energy              =    -703.73848693 Ry
     Harris-Foulkes estimate   =    -703.73848693 Ry
     estimated scf accuracy    <          2.4E-09 Ry

     iteration #  8     ecut=    40.00 Ry     beta= 0.60
     Davidson diagonalization with overlap
     ethr =  3.22E-12,  avg # of iterations =  2.0

     total cpu time spent up to now is    57758.8 secs

     total energy              =    -703.73848693 Ry
     Harris-Foulkes estimate   =    -703.73848693 Ry
     estimated scf accuracy    <          7.9E-10 Ry

     iteration #  9     ecut=    40.00 Ry     beta= 0.60
     Davidson diagonalization with overlap
     ethr =  1.06E-12,  avg # of iterations =  3.7

     total cpu time spent up to now is    57822.0 secs

     total energy              =    -703.73848693 Ry
     Harris-Foulkes estimate   =    -703.73848693 Ry
     estimated scf accuracy    <          3.6E-11 Ry

     iteration # 10     ecut=    40.00 Ry     beta= 0.60
     Davidson diagonalization with overlap
     ethr =  1.00E-13,  avg # of iterations =  3.6

     total cpu time spent up to now is    57881.8 secs

     total energy              =    -703.73848693 Ry
     Harris-Foulkes estimate   =    -703.73848693 Ry
     estimated scf accuracy    <          5.9E-12 Ry

     iteration # 11     ecut=    40.00 Ry     beta= 0.60
     Davidson diagonalization with overlap
     ethr =  1.00E-13,  avg # of iterations =  1.3

     total cpu time spent up to now is    57929.7 secs

     total energy              =    -703.73848693 Ry
     Harris-Foulkes estimate   =    -703.73848693 Ry
     estimated scf accuracy    <          6.5E-12 Ry

     iteration # 12     ecut=    40.00 Ry     beta= 0.60
     Davidson diagonalization with overlap
     ethr =  1.00E-13,  avg # of iterations =  1.0

     total cpu time spent up to now is    57976.6 secs

     total energy              =    -703.73848693 Ry
     Harris-Foulkes estimate   =    -703.73848693 Ry
     estimated scf accuracy    <          2.5E-12 Ry

     iteration # 13     ecut=    40.00 Ry     beta= 0.60
     Davidson diagonalization with overlap
     ethr =  1.00E-13,  avg # of iterations =  1.0

     total cpu time spent up to now is    58023.4 secs

     total energy              =    -703.73848693 Ry
     Harris-Foulkes estimate   =    -703.73848693 Ry
     estimated scf accuracy    <          1.9E-12 Ry

     iteration # 14     ecut=    40.00 Ry     beta= 0.60
     Davidson diagonalization with overlap
     ethr =  1.00E-13,  avg # of iterations =  1.0

     total cpu time spent up to now is    58070.4 secs

     total energy              =    -703.73848693 Ry
     Harris-Foulkes estimate   =    -703.73848693 Ry
     estimated scf accuracy    <          1.0E-12 Ry

     iteration # 15     ecut=    40.00 Ry     beta= 0.60
     Davidson diagonalization with overlap
     ethr =  1.00E-13,  avg # of iterations =  1.0

     total cpu time spent up to now is    58117.2 secs

     End of self-consistent calculation

     Number of k-points >= 100: set verbosity='high' to print the bands.

     the Fermi energy is    15.7472 ev

!    total energy              =    -703.73848693 Ry
     Harris-Foulkes estimate   =    -703.73848693 Ry
     estimated scf accuracy    <          3.2E-13 Ry

     The total energy is the sum of the following terms:

     one-electron contribution =    -171.31925931 Ry
     hartree contribution      =     118.03393760 Ry
     xc contribution           =     -98.98180298 Ry
     ewald contribution        =    -551.47152887 Ry
     smearing contrib. (-TS)   =       0.00016663 Ry

     convergence has been achieved in  15 iterations

     Forces acting on atoms (cartesian axes, Ry/au):

     atom    1 type  2   force =    -0.00000022    0.00000094   -0.00000559
     atom    2 type  2   force =     0.00000903   -0.00000521    0.00000000
     atom    3 type  2   force =    -0.00000093   -0.00000028    0.00000559
     atom    4 type  1   force =    -0.00000040    0.00000572    0.00000641
     atom    5 type  1   force =    -0.00000233    0.00000134   -0.00000000
     atom    6 type  1   force =    -0.00000515   -0.00000252   -0.00000641

     Total force =     0.000018     Total SCF correction =     0.000001


     Computing stress (Cartesian axis) and pressure

          total   stress  (Ry/bohr**3)                   (kbar)     P=    0.00
   0.00000000   0.00000001   0.00000002          0.00      0.00      0.00
   0.00000001   0.00000002   0.00000004          0.00      0.00      0.01
   0.00000002   0.00000004   0.00000005          0.00      0.01      0.01


     number of scf cycles    =  50
     number of bfgs steps    =  49

     enthalpy old            =    -703.7384869299 Ry
     enthalpy new            =    -703.7384869307 Ry

     CASE: enthalpy_new < enthalpy_old

     Message from routine bfgs:
     history already reset at previous step: stopping
     small trust_radius: resetting bfgs history

     new trust radius        =       0.0000104242 bohr
     new conv_thr            =            1.0E-12 Ry

     new unit-cell volume =    709.69562 a.u.^3 (   105.16604 Ang^3 )
     density =      6.66830 g/cm^3

CELL_PARAMETERS (alat=  1.88972599)
   2.784500139   0.175874586   4.660084052
  -1.239938200   2.499385338   4.660084052
  -1.647989052  -2.854400930   4.707690190

ATOMIC_POSITIONS (angstrom)
Ti       0.294041212  -0.265250399   9.384706884
Ti      -0.523153819  -1.680509201   7.029797860
Ti       0.204355685  -0.420590280  13.995056939
Nb       1.057729088   1.057532719   6.934290650
Nb       0.300912195  -0.253349947   4.675952764
Nb      -1.695875228   0.935171265   7.077698932


     NEW-OLD atomic charge density approx. for the potential
     extrapolated charge   75.00012, renormalised to   75.00000
 
     init_run     :     28.54s CPU     29.15s WALL (       1 calls)
     electrons    :  56236.68s CPU  57070.75s WALL (      50 calls)
     update_pot   :     68.94s CPU     69.21s WALL (      50 calls)
     forces       :    254.34s CPU    259.51s WALL (      50 calls)
     stress       :    675.68s CPU    690.11s WALL (      50 calls)

     Called by init_run:
     wfcinit      :     27.14s CPU     27.63s WALL (       1 calls)
     potinit      :      0.42s CPU      0.43s WALL (       1 calls)
     hinit0       :      0.80s CPU      0.81s WALL (       1 calls)

     Called by electrons:
     c_bands      :  48602.38s CPU  49200.76s WALL (     852 calls)
     sum_band     :   7421.11s CPU   7577.02s WALL (     852 calls)
     v_of_rho     :     42.36s CPU     42.63s WALL (     891 calls)
     newd         :    175.25s CPU    251.15s WALL (     891 calls)
     mix_rho      :      4.80s CPU      4.83s WALL (     852 calls)

     Called by c_bands:
     init_us_2    :    516.98s CPU    518.86s WALL (  859180 calls)
     cegterg      :  45306.75s CPU  45833.67s WALL (  405552 calls)

     Called by sum_band:
     sum_band:bec :     16.97s CPU     17.84s WALL (  405552 calls)
     addusdens    :    198.04s CPU    264.97s WALL (     852 calls)

     Called by *egterg:
     h_psi        :  31547.30s CPU  32025.59s WALL ( 1806854 calls)
     s_psi        :   1212.43s CPU   1214.32s WALL ( 1806854 calls)
     g_psi        :    215.49s CPU    218.18s WALL ( 1400826 calls)
     cdiaghg      :   7440.15s CPU   7450.45s WALL ( 1777342 calls)

     Called by h_psi:
     h_psi:pot    :  31461.80s CPU  31937.17s WALL ( 1806854 calls)
     h_psi:calbec :   1362.32s CPU   1367.79s WALL ( 1806854 calls)
     vloc_psi     :  28861.92s CPU  29324.51s WALL ( 1806854 calls)
     add_vuspsi   :   1230.38s CPU   1234.89s WALL ( 1806854 calls)

     General routines
     calbec       :   1979.66s CPU   1985.51s WALL ( 2331406 calls)
     fft          :     26.04s CPU     26.35s WALL (   12846 calls)
     ffts         :      0.93s CPU      0.93s WALL (    1743 calls)
     fftw         :  31582.71s CPU  32046.81s WALL (******** calls)
     interpolate  :      2.41s CPU      2.42s WALL (     891 calls)
     davcio       :      0.00s CPU      0.15s WALL (     476 calls)
 
     Parallel routines
     fft_scatt_xy :   5952.09s CPU   5981.35s WALL (******** calls)
     fft_scatt_yz :   5725.42s CPU   5831.44s WALL (******** calls)
 
     PWSCF        :    15h54m CPU       54h16m WALL

       9h
 
   This run was terminated on:  10:47:40  12Feb2020            

=------------------------------------------------------------------------------=
   JOB DONE.
=------------------------------------------------------------------------------=
