
     Program PWSCF v.6.3MaX starts on 27Jan2020 at  9: 8:41 

     This program is part of the open-source Quantum ESPRESSO suite
     for quantum simulation of materials; please cite
         "P. Giannozzi et al., J. Phys.:Condens. Matter 21 395502 (2009);
         "P. Giannozzi et al., J. Phys.:Condens. Matter 29 465901 (2017);
          URL http://www.quantum-espresso.org", 
     in publications or presentations arising from this work. More details at
     http://www.quantum-espresso.org/quote

     Parallel version (MPI), running on     4 processors

     MPI processes distributed on     1 nodes
     R & G space division:  proc/nbgrp/npool/nimage =       4
     Waiting for input...
     Reading input from standard input

     Current dimensions of program PWSCF are:
     Max number of different atomic species (ntypx) = 10
     Max number of k-points (npk) =  40000
     Max angular momentum in pseudopotentials (lmaxx) =  3
     Message from routine iosys:
     minimal I/O required, wf_collect reset to FALSE

     Subspace diagonalization in iterative solution of the eigenvalue problem:
     a serial algorithm will be used

 
     Parallelization info
     --------------------
     sticks:   dense  smooth     PW     G-vecs:    dense   smooth      PW
     Min        1204     482    153                41531    10522    1901
     Max        1205     483    154                41532    10523    1902
     Sum        4817    1929    615               166125    42089    7605
 


     bravais-lattice index     =            0
     lattice parameter (alat)  =       1.8897  a.u.
     unit-cell volume          =     880.0102 (a.u.)^3
     number of atoms/cell      =            6
     number of atomic types    =            2
     number of electrons       =        74.00
     number of Kohn-Sham states=           44
     kinetic-energy cutoff     =      50.0000  Ry
     charge density cutoff     =     500.0000  Ry
     convergence threshold     =      1.0E-10
     mixing beta               =       0.6000
     number of iterations used =            8  plain     mixing
     Exchange-correlation      = SLA PW PBE PBE ( 1  4  3  4 0 0)
     nstep                     =           50


     celldm(1)=   1.889726  celldm(2)=   0.000000  celldm(3)=   0.000000
     celldm(4)=   0.000000  celldm(5)=   0.000000  celldm(6)=   0.000000

     crystal axes: (cart. coord. in units of alat)
               a(1) = (   5.274095   1.758031   1.758031 )  
               a(2) = (   1.758031  -5.274095   1.758031 )  
               a(3) = (  -1.758031   1.758031  -5.274095 )  

     reciprocal axes: (cart. coord. in units 2 pi/alat)
               b(1) = (  0.189606  0.047402 -0.047402 )  
               b(2) = (  0.094803 -0.189606 -0.094803 )  
               b(3) = (  0.094803 -0.047402 -0.237008 )  


     PseudoPot. # 1 for Nb read from file:
     ./Nb.pbe-nsp-van.UPF
     MD5 check sum: 0a22fc7fb0ba19a08ca5db297a5d2854
     Pseudo is Ultrasoft + core correction, Zval = 13.0
     Generated by new atomic code, or converted to UPF format
     Using radial grid of  887 points,  6 beta functions with: 
                l(1) =   0
                l(2) =   0
                l(3) =   1
                l(4) =   1
                l(5) =   2
                l(6) =   2
     Q(r) pseudized with  6 coefficients,  rinner =    1.000   1.000   1.000
                                                       1.000   1.000

     PseudoPot. # 2 for Ti read from file:
     ./Ti.pbe-sp-van_ak.UPF
     MD5 check sum: f98fea3e8887528921fefa5636a534ca
     Pseudo is Ultrasoft, Zval = 12.0
     Generated by new atomic code, or converted to UPF format
     Using radial grid of  851 points,  6 beta functions with: 
                l(1) =   0
                l(2) =   0
                l(3) =   1
                l(4) =   1
                l(5) =   2
                l(6) =   2
     Q(r) pseudized with  8 coefficients,  rinner =    1.000   1.000   1.000
                                                       1.000   1.000

     atomic species   valence    mass     pseudopotential
        Nb            13.00    92.90638     Nb( 1.00)
        Ti            12.00    47.86700     Ti( 1.00)

      2 Sym. Ops. (no inversion) found
          (note:  2 additional sym.ops. were found but ignored
           their fractional translations are incommensurate with FFT grid)


   Cartesian axes

     site n.     atom                  positions (alat units)
         1           Ti  tau(   1) = (   3.5160633  -3.5160633   0.0000000  )
         2           Ti  tau(   2) = (   3.5160633   0.0000000   0.0000000  )
         3           Ti  tau(   3) = (   1.7580316  -1.7580316  -1.7580316  )
         4           Ti  tau(   4) = (   5.2740949  -1.7580316   1.7580316  )
         5           Nb  tau(   5) = (   5.2740949  -1.7580316  -1.7580316  )
         6           Nb  tau(   6) = (   0.0000000   0.0000000  -3.5160633  )

     number of k points=   476  Marzari-Vanderbilt smearing, width (Ry)=  0.0200

     Number of k-points >= 100: set verbosity='high' to print them.

     Dense  grid:   166125 G-vectors     FFT dimensions: (  80,  80,  80)

     Smooth grid:    42089 G-vectors     FFT dimensions: (  50,  50,  50)

     Estimated max dynamical RAM per process >     580.26 MB

     Estimated total dynamical RAM >       2.27 GB

     Initial potential from superposition of free atoms

     starting charge   69.99436, renormalised to   74.00000
     Starting wfcs are   66 randomized atomic wfcs

     total cpu time spent up to now is       44.0 secs

     Self-consistent Calculation

     iteration #  1     ecut=    50.00 Ry     beta= 0.60
     Davidson diagonalization with overlap
     ethr =  1.00E-02,  avg # of iterations =  3.7

     total cpu time spent up to now is      138.6 secs

     total energy              =    -696.86891423 Ry
     Harris-Foulkes estimate   =    -704.40678907 Ry
     estimated scf accuracy    <       9.75133377 Ry

     iteration #  2     ecut=    50.00 Ry     beta= 0.60
     Davidson diagonalization with overlap
     ethr =  1.00E-02,  avg # of iterations =  5.0

     total cpu time spent up to now is      260.6 secs

     total energy              =    -697.23011261 Ry
     Harris-Foulkes estimate   =    -714.85417613 Ry
     estimated scf accuracy    <      59.99726550 Ry

     iteration #  3     ecut=    50.00 Ry     beta= 0.60
     Davidson diagonalization with overlap
     ethr =  1.00E-02,  avg # of iterations =  5.1

     total cpu time spent up to now is      367.1 secs

     total energy              =    -702.21424519 Ry
     Harris-Foulkes estimate   =    -702.33307969 Ry
     estimated scf accuracy    <       0.72868639 Ry

     iteration #  4     ecut=    50.00 Ry     beta= 0.60
     Davidson diagonalization with overlap
     ethr =  9.85E-04,  avg # of iterations =  6.8

     total cpu time spent up to now is      490.5 secs

     total energy              =    -702.31749988 Ry
     Harris-Foulkes estimate   =    -702.38331020 Ry
     estimated scf accuracy    <       0.26530590 Ry

     iteration #  5     ecut=    50.00 Ry     beta= 0.60
     Davidson diagonalization with overlap
     ethr =  3.59E-04,  avg # of iterations =  5.6

     total cpu time spent up to now is      603.8 secs

     total energy              =    -702.36709072 Ry
     Harris-Foulkes estimate   =    -702.48303756 Ry
     estimated scf accuracy    <       1.62511405 Ry

     iteration #  6     ecut=    50.00 Ry     beta= 0.60
     Davidson diagonalization with overlap
     ethr =  3.59E-04,  avg # of iterations =  4.1

     total cpu time spent up to now is      684.1 secs

     total energy              =    -702.36224064 Ry
     Harris-Foulkes estimate   =    -702.41167541 Ry
     estimated scf accuracy    <       1.11622861 Ry

     iteration #  7     ecut=    50.00 Ry     beta= 0.60
     Davidson diagonalization with overlap
     ethr =  3.59E-04,  avg # of iterations =  2.4

     total cpu time spent up to now is      754.6 secs

     total energy              =    -702.25553071 Ry
     Harris-Foulkes estimate   =    -702.37047228 Ry
     estimated scf accuracy    <       0.77456353 Ry

     iteration #  8     ecut=    50.00 Ry     beta= 0.60
     Davidson diagonalization with overlap
     ethr =  3.59E-04,  avg # of iterations =  5.0

     total cpu time spent up to now is      851.4 secs

     total energy              =    -702.31290155 Ry
     Harris-Foulkes estimate   =    -702.31783514 Ry
     estimated scf accuracy    <       0.06114485 Ry

     iteration #  9     ecut=    50.00 Ry     beta= 0.60
     Davidson diagonalization with overlap
     ethr =  8.26E-05,  avg # of iterations =  4.7

     total cpu time spent up to now is      933.8 secs

     total energy              =    -702.31557206 Ry
     Harris-Foulkes estimate   =    -702.31746958 Ry
     estimated scf accuracy    <       0.03517196 Ry

     iteration # 10     ecut=    50.00 Ry     beta= 0.60
     Davidson diagonalization with overlap
     ethr =  4.75E-05,  avg # of iterations =  2.5

     total cpu time spent up to now is     1006.1 secs

     total energy              =    -702.31286602 Ry
     Harris-Foulkes estimate   =    -702.31815458 Ry
     estimated scf accuracy    <       0.02873090 Ry

     iteration # 11     ecut=    50.00 Ry     beta= 0.60
     Davidson diagonalization with overlap
     ethr =  3.88E-05,  avg # of iterations =  1.4

     total cpu time spent up to now is     1073.8 secs

     total energy              =    -702.31398772 Ry
     Harris-Foulkes estimate   =    -702.31467856 Ry
     estimated scf accuracy    <       0.00877763 Ry

     iteration # 12     ecut=    50.00 Ry     beta= 0.60
     Davidson diagonalization with overlap
     c_bands:  1 eigenvalues not converged
     c_bands:  1 eigenvalues not converged
     c_bands:  1 eigenvalues not converged
     c_bands:  1 eigenvalues not converged
     c_bands:  1 eigenvalues not converged
     c_bands:  1 eigenvalues not converged
     c_bands:  1 eigenvalues not converged
     c_bands:  1 eigenvalues not converged
     c_bands:  1 eigenvalues not converged
     c_bands:  1 eigenvalues not converged
     c_bands:  1 eigenvalues not converged
     c_bands:  1 eigenvalues not converged
     c_bands:  1 eigenvalues not converged
     ethr =  1.19E-05,  avg # of iterations =  7.1

     total cpu time spent up to now is     1169.6 secs

     total energy              =    -702.31406298 Ry
     Harris-Foulkes estimate   =    -702.31487751 Ry
     estimated scf accuracy    <       0.00536980 Ry

     iteration # 13     ecut=    50.00 Ry     beta= 0.60
     Davidson diagonalization with overlap
     c_bands:  1 eigenvalues not converged
     c_bands:  1 eigenvalues not converged
     c_bands:  1 eigenvalues not converged
     c_bands:  1 eigenvalues not converged
     c_bands:  1 eigenvalues not converged
     ethr =  7.26E-06,  avg # of iterations =  5.8

     total cpu time spent up to now is     1266.1 secs

     total energy              =    -702.31418051 Ry
     Harris-Foulkes estimate   =    -702.31505426 Ry
     estimated scf accuracy    <       0.00810115 Ry

     iteration # 14     ecut=    50.00 Ry     beta= 0.60
     Davidson diagonalization with overlap
     ethr =  7.26E-06,  avg # of iterations =  1.1

     total cpu time spent up to now is     1332.7 secs

     total energy              =    -702.31430440 Ry
     Harris-Foulkes estimate   =    -702.31450910 Ry
     estimated scf accuracy    <       0.00178948 Ry

     iteration # 15     ecut=    50.00 Ry     beta= 0.60
     Davidson diagonalization with overlap
     c_bands:  1 eigenvalues not converged
     c_bands:  1 eigenvalues not converged
     c_bands:  1 eigenvalues not converged
     c_bands:  2 eigenvalues not converged
     c_bands:  1 eigenvalues not converged
     c_bands:  1 eigenvalues not converged
     c_bands:  2 eigenvalues not converged
     c_bands:  2 eigenvalues not converged
     c_bands:  1 eigenvalues not converged
     c_bands:  1 eigenvalues not converged
     c_bands:  1 eigenvalues not converged
     c_bands:  1 eigenvalues not converged
     c_bands:  1 eigenvalues not converged
     c_bands:  1 eigenvalues not converged
     ethr =  2.42E-06,  avg # of iterations =  6.1

     total cpu time spent up to now is     1429.3 secs

     total energy              =    -702.31450892 Ry
     Harris-Foulkes estimate   =    -702.31454899 Ry
     estimated scf accuracy    <       0.00042887 Ry

     iteration # 16     ecut=    50.00 Ry     beta= 0.60
     Davidson diagonalization with overlap
     c_bands:  1 eigenvalues not converged
     c_bands:  1 eigenvalues not converged
     c_bands:  1 eigenvalues not converged
     c_bands:  1 eigenvalues not converged
     ethr =  5.80E-07,  avg # of iterations =  3.0

     total cpu time spent up to now is     1583.2 secs

     total energy              =    -702.31451225 Ry
     Harris-Foulkes estimate   =    -702.31453127 Ry
     estimated scf accuracy    <       0.00015993 Ry

     iteration # 17     ecut=    50.00 Ry     beta= 0.60
     Davidson diagonalization with overlap
     c_bands:  1 eigenvalues not converged
     ethr =  2.16E-07,  avg # of iterations =  3.2

     total cpu time spent up to now is     1667.4 secs

     total energy              =    -702.31452606 Ry
     Harris-Foulkes estimate   =    -702.31452904 Ry
     estimated scf accuracy    <       0.00001793 Ry

     iteration # 18     ecut=    50.00 Ry     beta= 0.60
     Davidson diagonalization with overlap
     ethr =  2.42E-08,  avg # of iterations =  5.1

     total cpu time spent up to now is     1768.3 secs

     total energy              =    -702.31452954 Ry
     Harris-Foulkes estimate   =    -702.31453087 Ry
     estimated scf accuracy    <       0.00001264 Ry

     iteration # 19     ecut=    50.00 Ry     beta= 0.60
     Davidson diagonalization with overlap
     ethr =  1.71E-08,  avg # of iterations =  1.0

     total cpu time spent up to now is     2116.6 secs

     total energy              =    -702.31452965 Ry
     Harris-Foulkes estimate   =    -702.31453004 Ry
     estimated scf accuracy    <       0.00000278 Ry

     iteration # 20     ecut=    50.00 Ry     beta= 0.60
     Davidson diagonalization with overlap
     ethr =  3.75E-09,  avg # of iterations =  4.2

     total cpu time spent up to now is     2211.6 secs

     total energy              =    -702.31453011 Ry
     Harris-Foulkes estimate   =    -702.31453027 Ry
     estimated scf accuracy    <       0.00000167 Ry

     iteration # 21     ecut=    50.00 Ry     beta= 0.60
     Davidson diagonalization with overlap
     ethr =  2.26E-09,  avg # of iterations =  1.6

     total cpu time spent up to now is     2280.1 secs

     total energy              =    -702.31453014 Ry
     Harris-Foulkes estimate   =    -702.31453026 Ry
     estimated scf accuracy    <       0.00000115 Ry

     iteration # 22     ecut=    50.00 Ry     beta= 0.60
     Davidson diagonalization with overlap
     ethr =  1.56E-09,  avg # of iterations =  1.0

     total cpu time spent up to now is     2346.9 secs

     total energy              =    -702.31453013 Ry
     Harris-Foulkes estimate   =    -702.31453019 Ry
     estimated scf accuracy    <       0.00000041 Ry

     iteration # 23     ecut=    50.00 Ry     beta= 0.60
     Davidson diagonalization with overlap
     ethr =  5.57E-10,  avg # of iterations =  4.0

     total cpu time spent up to now is     2436.3 secs

     total energy              =    -702.31453019 Ry
     Harris-Foulkes estimate   =    -702.31453019 Ry
     estimated scf accuracy    <       0.00000010 Ry

     iteration # 24     ecut=    50.00 Ry     beta= 0.60
     Davidson diagonalization with overlap
     ethr =  1.41E-10,  avg # of iterations =  1.8

     total cpu time spent up to now is     2505.8 secs

     total energy              =    -702.31453018 Ry
     Harris-Foulkes estimate   =    -702.31453019 Ry
     estimated scf accuracy    <       0.00000006 Ry

     iteration # 25     ecut=    50.00 Ry     beta= 0.60
     Davidson diagonalization with overlap
     ethr =  7.57E-11,  avg # of iterations =  3.0

     total cpu time spent up to now is     2580.4 secs

     total energy              =    -702.31453019 Ry
     Harris-Foulkes estimate   =    -702.31453019 Ry
     estimated scf accuracy    <          4.8E-09 Ry

     iteration # 26     ecut=    50.00 Ry     beta= 0.60
     Davidson diagonalization with overlap
     ethr =  6.55E-12,  avg # of iterations =  5.0

     total cpu time spent up to now is     2685.9 secs

     total energy              =    -702.31453019 Ry
     Harris-Foulkes estimate   =    -702.31453019 Ry
     estimated scf accuracy    <          5.1E-09 Ry

     iteration # 27     ecut=    50.00 Ry     beta= 0.60
     Davidson diagonalization with overlap
     ethr =  6.55E-12,  avg # of iterations =  1.0

     total cpu time spent up to now is     2752.7 secs

     total energy              =    -702.31453019 Ry
     Harris-Foulkes estimate   =    -702.31453019 Ry
     estimated scf accuracy    <          1.2E-09 Ry

     iteration # 28     ecut=    50.00 Ry     beta= 0.60
     Davidson diagonalization with overlap
     ethr =  1.67E-12,  avg # of iterations =  4.0

     total cpu time spent up to now is     2844.2 secs

     total energy              =    -702.31453019 Ry
     Harris-Foulkes estimate   =    -702.31453019 Ry
     estimated scf accuracy    <          5.5E-10 Ry

     iteration # 29     ecut=    50.00 Ry     beta= 0.60
     Davidson diagonalization with overlap
     ethr =  7.39E-13,  avg # of iterations =  2.6

     total cpu time spent up to now is     2917.4 secs

     total energy              =    -702.31453019 Ry
     Harris-Foulkes estimate   =    -702.31453019 Ry
     estimated scf accuracy    <          3.0E-10 Ry

     iteration # 30     ecut=    50.00 Ry     beta= 0.60
     Davidson diagonalization with overlap
     ethr =  4.00E-13,  avg # of iterations =  2.5

     total cpu time spent up to now is     2990.5 secs

     total energy              =    -702.31453019 Ry
     Harris-Foulkes estimate   =    -702.31453019 Ry
     estimated scf accuracy    <          1.1E-10 Ry

     iteration # 31     ecut=    50.00 Ry     beta= 0.60
     Davidson diagonalization with overlap
     ethr =  1.48E-13,  avg # of iterations =  3.7

     total cpu time spent up to now is     3070.4 secs

     End of self-consistent calculation

     Number of k-points >= 100: set verbosity='high' to print the bands.

     the Fermi energy is    11.4302 ev

!    total energy              =    -702.31453019 Ry
     Harris-Foulkes estimate   =    -702.31453019 Ry
     estimated scf accuracy    <          1.6E-11 Ry

     The total energy is the sum of the following terms:

     one-electron contribution =    -252.67483477 Ry
     hartree contribution      =     144.58174307 Ry
     xc contribution           =     -93.99720151 Ry
     ewald contribution        =    -500.22337300 Ry
     smearing contrib. (-TS)   =      -0.00086398 Ry

     convergence has been achieved in  31 iterations

     Forces acting on atoms (cartesian axes, Ry/au):

     atom    1 type  2   force =    -0.01131485   -0.00059709    0.00059709
     atom    2 type  2   force =     0.01131129    0.00059640   -0.00059640
     atom    3 type  2   force =    -0.01592920    0.00241195   -0.00241195
     atom    4 type  2   force =     0.01593424   -0.00241081    0.00241081
     atom    5 type  1   force =     0.00659275   -0.00700563    0.00700563
     atom    6 type  1   force =    -0.00659422    0.00700517   -0.00700517

     Total force =     0.032734     Total SCF correction =     0.000004


     Computing stress (Cartesian axis) and pressure

          total   stress  (Ry/bohr**3)                   (kbar)     P= -190.12
  -0.00131175   0.00001567  -0.00001567       -192.97      2.31     -2.31
   0.00001567  -0.00128272   0.00001433          2.31   -188.70      2.11
  -0.00001567   0.00001433  -0.00128272         -2.31      2.11   -188.70


     BFGS Geometry Optimization

     number of scf cycles    =   1
     number of bfgs steps    =   0

     enthalpy new            =    -702.3145301887 Ry

     new trust radius        =       0.1945933764 bohr
     new conv_thr            =            1.0E-10 Ry

     new unit-cell volume =    797.43660 a.u.^3 (   118.16791 Ang^3 )
     density =      5.30169 g/cm^3

CELL_PARAMETERS (alat=  1.88972599)
   5.101136699   1.704350607   1.700218469
   1.697624141  -5.103645861   1.699076784
  -1.697624141   1.699076784  -5.103645861

ATOMIC_POSITIONS (angstrom)
Ti       3.393588965  -3.402240230  -0.002328846
Ti       3.406547430   0.001685093  -0.001685093
Ti       1.692226959  -1.700364191  -1.704204886
Ti       5.107913838  -1.700190012   1.700190012
Nb       5.104508117  -1.703804109  -1.700764968
Nb      -0.001994791   0.002325876  -3.406894952


     NEW-OLD atomic charge density approx. for the potential
     extrapolated charge   66.75217, renormalised to   74.00000

     total cpu time spent up to now is     3101.0 secs

     Self-consistent Calculation

     iteration #  1     ecut=    50.00 Ry     beta= 0.60
     Davidson diagonalization with overlap
     c_bands:  2 eigenvalues not converged
     c_bands:  1 eigenvalues not converged
     c_bands:  2 eigenvalues not converged
     c_bands:  1 eigenvalues not converged
     c_bands:  2 eigenvalues not converged
     c_bands:  3 eigenvalues not converged
     c_bands:  2 eigenvalues not converged
     c_bands:  1 eigenvalues not converged
     c_bands:  1 eigenvalues not converged
     c_bands:  1 eigenvalues not converged
     c_bands:  1 eigenvalues not converged
     c_bands:  1 eigenvalues not converged
     c_bands:  2 eigenvalues not converged
     c_bands:  1 eigenvalues not converged
     c_bands:  1 eigenvalues not converged
     c_bands:  4 eigenvalues not converged
     c_bands:  1 eigenvalues not converged
     c_bands:  3 eigenvalues not converged
     c_bands:  2 eigenvalues not converged
     c_bands:  1 eigenvalues not converged
     c_bands:  3 eigenvalues not converged
     c_bands:  1 eigenvalues not converged
     c_bands:  1 eigenvalues not converged
     c_bands:  2 eigenvalues not converged
     c_bands:  1 eigenvalues not converged
     c_bands:  1 eigenvalues not converged
     c_bands:  1 eigenvalues not converged
     c_bands:  1 eigenvalues not converged
     c_bands:  1 eigenvalues not converged
     c_bands:  1 eigenvalues not converged
     c_bands:  3 eigenvalues not converged
     c_bands:  2 eigenvalues not converged
     c_bands:  1 eigenvalues not converged
     c_bands:  1 eigenvalues not converged
     c_bands:  2 eigenvalues not converged
     c_bands:  2 eigenvalues not converged
     c_bands:  1 eigenvalues not converged
     c_bands:  1 eigenvalues not converged
     c_bands:  1 eigenvalues not converged
     c_bands:  1 eigenvalues not converged
     c_bands:  1 eigenvalues not converged
     c_bands:  1 eigenvalues not converged
     c_bands:  3 eigenvalues not converged
     c_bands:  2 eigenvalues not converged
     c_bands:  1 eigenvalues not converged
     c_bands:  1 eigenvalues not converged
     c_bands:  3 eigenvalues not converged
     c_bands:  1 eigenvalues not converged
     c_bands:  2 eigenvalues not converged
     c_bands:  2 eigenvalues not converged
     c_bands:  1 eigenvalues not converged
     c_bands:  2 eigenvalues not converged
     c_bands:  1 eigenvalues not converged
     c_bands:  1 eigenvalues not converged
     ethr =  1.00E-06,  avg # of iterations = 17.0

     total cpu time spent up to now is     3395.5 secs

     total energy              =    -678.56586764 Ry
     Harris-Foulkes estimate   =    -720.37378796 Ry
     estimated scf accuracy    <      25.91168248 Ry

     iteration #  2     ecut=    50.00 Ry     beta= 0.60
     Davidson diagonalization with overlap
     ethr =  1.00E-02,  avg # of iterations =  5.5

     total cpu time spent up to now is     3542.9 secs

     total energy              =    -701.42548413 Ry
     Harris-Foulkes estimate   =    -734.74667092 Ry
     estimated scf accuracy    <      99.16844620 Ry

     iteration #  3     ecut=    50.00 Ry     beta= 0.60
     Davidson diagonalization with overlap
     ethr =  1.00E-02,  avg # of iterations =  3.7

     total cpu time spent up to now is     3653.7 secs

     total energy              =    -703.98586024 Ry
     Harris-Foulkes estimate   =    -707.76674425 Ry
     estimated scf accuracy    <      17.44208574 Ry

     iteration #  4     ecut=    50.00 Ry     beta= 0.60
     Davidson diagonalization with overlap
     ethr =  1.00E-02,  avg # of iterations =  1.4

     total cpu time spent up to now is     3721.7 secs

     total energy              =    -702.01022032 Ry
     Harris-Foulkes estimate   =    -704.26851487 Ry
     estimated scf accuracy    <      10.86377773 Ry

     iteration #  5     ecut=    50.00 Ry     beta= 0.60
     Davidson diagonalization with overlap
     ethr =  1.00E-02,  avg # of iterations =  2.8

     total cpu time spent up to now is     3799.4 secs

     total energy              =    -703.08547038 Ry
     Harris-Foulkes estimate   =    -702.69954031 Ry
     estimated scf accuracy    <       1.68332243 Ry

     iteration #  6     ecut=    50.00 Ry     beta= 0.60
     Davidson diagonalization with overlap
     ethr =  2.27E-03,  avg # of iterations =  3.0

     total cpu time spent up to now is     3877.7 secs

     total energy              =    -702.88650857 Ry
     Harris-Foulkes estimate   =    -703.31107938 Ry
     estimated scf accuracy    <       4.94302317 Ry

     iteration #  7     ecut=    50.00 Ry     beta= 0.60
     Davidson diagonalization with overlap
     ethr =  2.27E-03,  avg # of iterations =  1.2

     total cpu time spent up to now is     3945.2 secs

     total energy              =    -702.91275591 Ry
     Harris-Foulkes estimate   =    -702.91453790 Ry
     estimated scf accuracy    <       3.46780160 Ry

     iteration #  8     ecut=    50.00 Ry     beta= 0.60
     Davidson diagonalization with overlap
     ethr =  2.27E-03,  avg # of iterations =  1.0

     total cpu time spent up to now is     4011.3 secs

     total energy              =    -702.91741551 Ry
     Harris-Foulkes estimate   =    -702.91816758 Ry
     estimated scf accuracy    <       3.45037199 Ry

     iteration #  9     ecut=    50.00 Ry     beta= 0.60
     Davidson diagonalization with overlap
     ethr =  2.27E-03,  avg # of iterations =  1.0

     total cpu time spent up to now is     4078.5 secs

     total energy              =    -702.83212077 Ry
     Harris-Foulkes estimate   =    -702.92030445 Ry
     estimated scf accuracy    <       3.26262834 Ry

     iteration # 10     ecut=    50.00 Ry     beta= 0.60
     Davidson diagonalization with overlap
     ethr =  2.27E-03,  avg # of iterations =  1.0

     total cpu time spent up to now is     4145.8 secs

     total energy              =    -701.58166193 Ry
     Harris-Foulkes estimate   =    -702.83644778 Ry
     estimated scf accuracy    <       2.84997298 Ry

     iteration # 11     ecut=    50.00 Ry     beta= 0.60
     Davidson diagonalization with overlap
     ethr =  2.27E-03,  avg # of iterations =  5.5

     total cpu time spent up to now is     4272.2 secs

     total energy              =    -702.60448192 Ry
     Harris-Foulkes estimate   =    -702.99571872 Ry
     estimated scf accuracy    <       7.82433699 Ry

     iteration # 12     ecut=    50.00 Ry     beta= 0.60
     Davidson diagonalization with overlap
     ethr =  2.27E-03,  avg # of iterations =  1.0

     total cpu time spent up to now is     4339.3 secs

     total energy              =    -702.35957196 Ry
     Harris-Foulkes estimate   =    -702.63817973 Ry
     estimated scf accuracy    <       4.92869564 Ry

     iteration # 13     ecut=    50.00 Ry     beta= 0.60
     Davidson diagonalization with overlap
     ethr =  2.27E-03,  avg # of iterations =  2.4

     total cpu time spent up to now is     4416.5 secs

     total energy              =    -702.39064759 Ry
     Harris-Foulkes estimate   =    -702.46843278 Ry
     estimated scf accuracy    <       1.30806452 Ry

     iteration # 14     ecut=    50.00 Ry     beta= 0.60
     Davidson diagonalization with overlap
     ethr =  1.77E-03,  avg # of iterations =  1.0

     total cpu time spent up to now is     4483.6 secs

     total energy              =    -702.39232940 Ry
     Harris-Foulkes estimate   =    -702.41088445 Ry
     estimated scf accuracy    <       0.69195148 Ry

     iteration # 15     ecut=    50.00 Ry     beta= 0.60
     Davidson diagonalization with overlap
     ethr =  9.35E-04,  avg # of iterations =  1.2

     total cpu time spent up to now is     4551.1 secs

     total energy              =    -702.38948372 Ry
     Harris-Foulkes estimate   =    -702.40398047 Ry
     estimated scf accuracy    <       0.49287130 Ry

     iteration # 16     ecut=    50.00 Ry     beta= 0.60
     Davidson diagonalization with overlap
     ethr =  6.66E-04,  avg # of iterations =  1.7

     total cpu time spent up to now is     4620.3 secs

     total energy              =    -702.39994606 Ry
     Harris-Foulkes estimate   =    -702.40053681 Ry
     estimated scf accuracy    <       0.29934653 Ry

     iteration # 17     ecut=    50.00 Ry     beta= 0.60
     Davidson diagonalization with overlap
     ethr =  4.05E-04,  avg # of iterations =  2.7

     total cpu time spent up to now is     4692.9 secs

     total energy              =    -702.41153582 Ry
     Harris-Foulkes estimate   =    -702.40890257 Ry
     estimated scf accuracy    <       0.20705224 Ry

     iteration # 18     ecut=    50.00 Ry     beta= 0.60
     Davidson diagonalization with overlap
     ethr =  2.80E-04,  avg # of iterations =  1.2

     total cpu time spent up to now is     4760.6 secs

     total energy              =    -702.38928675 Ry
     Harris-Foulkes estimate   =    -702.41449674 Ry
     estimated scf accuracy    <       0.21878256 Ry

     iteration # 19     ecut=    50.00 Ry     beta= 0.60
     Davidson diagonalization with overlap
     ethr =  2.80E-04,  avg # of iterations =  4.3

     total cpu time spent up to now is     4843.2 secs

     total energy              =    -702.40381015 Ry
     Harris-Foulkes estimate   =    -702.40567656 Ry
     estimated scf accuracy    <       0.01838056 Ry

     iteration # 20     ecut=    50.00 Ry     beta= 0.60
     Davidson diagonalization with overlap
     c_bands:  1 eigenvalues not converged
     c_bands:  1 eigenvalues not converged
     c_bands:  1 eigenvalues not converged
     ethr =  2.48E-05,  avg # of iterations =  8.9

     total cpu time spent up to now is     4970.3 secs

     total energy              =    -702.40750410 Ry
     Harris-Foulkes estimate   =    -702.40904116 Ry
     estimated scf accuracy    <       0.01244923 Ry

     iteration # 21     ecut=    50.00 Ry     beta= 0.60
     Davidson diagonalization with overlap
     ethr =  1.68E-05,  avg # of iterations =  1.2

     total cpu time spent up to now is     5038.2 secs

     total energy              =    -702.40469710 Ry
     Harris-Foulkes estimate   =    -702.40832504 Ry
     estimated scf accuracy    <       0.00980251 Ry

     iteration # 22     ecut=    50.00 Ry     beta= 0.60
     Davidson diagonalization with overlap
     ethr =  1.32E-05,  avg # of iterations =  4.9

     total cpu time spent up to now is     6506.4 secs

     total energy              =    -702.40521047 Ry
     Harris-Foulkes estimate   =    -702.40831697 Ry
     estimated scf accuracy    <       0.02583124 Ry

     iteration # 23     ecut=    50.00 Ry     beta= 0.60
     Davidson diagonalization with overlap
     ethr =  1.32E-05,  avg # of iterations =  2.9

     total cpu time spent up to now is     6588.1 secs

     total energy              =    -702.40580238 Ry
     Harris-Foulkes estimate   =    -702.40667273 Ry
     estimated scf accuracy    <       0.00617219 Ry

     iteration # 24     ecut=    50.00 Ry     beta= 0.60
     Davidson diagonalization with overlap
     c_bands:  1 eigenvalues not converged
     ethr =  8.34E-06,  avg # of iterations =  2.0

     total cpu time spent up to now is     6659.1 secs

     total energy              =    -702.40612880 Ry
     Harris-Foulkes estimate   =    -702.40618306 Ry
     estimated scf accuracy    <       0.00069958 Ry

     iteration # 25     ecut=    50.00 Ry     beta= 0.60
     Davidson diagonalization with overlap
     ethr =  9.45E-07,  avg # of iterations =  6.0

     total cpu time spent up to now is     6768.9 secs

     total energy              =    -702.40631018 Ry
     Harris-Foulkes estimate   =    -702.40633129 Ry
     estimated scf accuracy    <       0.00024066 Ry

     iteration # 26     ecut=    50.00 Ry     beta= 0.60
     Davidson diagonalization with overlap
     ethr =  3.25E-07,  avg # of iterations =  1.1

     total cpu time spent up to now is     6836.6 secs

     total energy              =    -702.40631449 Ry
     Harris-Foulkes estimate   =    -702.40632441 Ry
     estimated scf accuracy    <       0.00011473 Ry

     iteration # 27     ecut=    50.00 Ry     beta= 0.60
     Davidson diagonalization with overlap
     ethr =  1.55E-07,  avg # of iterations =  2.4

     total cpu time spent up to now is     6907.9 secs

     total energy              =    -702.40631423 Ry
     Harris-Foulkes estimate   =    -702.40631909 Ry
     estimated scf accuracy    <       0.00005878 Ry

     iteration # 28     ecut=    50.00 Ry     beta= 0.60
     Davidson diagonalization with overlap
     ethr =  7.94E-08,  avg # of iterations =  3.5

     total cpu time spent up to now is     6985.6 secs

     total energy              =    -702.40631501 Ry
     Harris-Foulkes estimate   =    -702.40631761 Ry
     estimated scf accuracy    <       0.00001918 Ry

     iteration # 29     ecut=    50.00 Ry     beta= 0.60
     Davidson diagonalization with overlap
     ethr =  2.59E-08,  avg # of iterations =  4.0

     total cpu time spent up to now is     7077.3 secs

     total energy              =    -702.40631692 Ry
     Harris-Foulkes estimate   =    -702.40631887 Ry
     estimated scf accuracy    <       0.00001584 Ry

     iteration # 30     ecut=    50.00 Ry     beta= 0.60
     Davidson diagonalization with overlap
     ethr =  2.14E-08,  avg # of iterations =  1.0

     total cpu time spent up to now is     7144.5 secs

     total energy              =    -702.40631739 Ry
     Harris-Foulkes estimate   =    -702.40631773 Ry
     estimated scf accuracy    <       0.00000202 Ry

     iteration # 31     ecut=    50.00 Ry     beta= 0.60
     Davidson diagonalization with overlap
     ethr =  2.73E-09,  avg # of iterations =  4.5

     total cpu time spent up to now is     7245.0 secs

     total energy              =    -702.40631788 Ry
     Harris-Foulkes estimate   =    -702.40631819 Ry
     estimated scf accuracy    <       0.00000306 Ry

     iteration # 32     ecut=    50.00 Ry     beta= 0.60
     Davidson diagonalization with overlap
     ethr =  2.73E-09,  avg # of iterations =  1.1

     total cpu time spent up to now is     7312.4 secs

     total energy              =    -702.40631787 Ry
     Harris-Foulkes estimate   =    -702.40631801 Ry
     estimated scf accuracy    <       0.00000134 Ry

     iteration # 33     ecut=    50.00 Ry     beta= 0.60
     Davidson diagonalization with overlap
     ethr =  1.82E-09,  avg # of iterations =  3.0

     total cpu time spent up to now is     7392.3 secs

     total energy              =    -702.40631797 Ry
     Harris-Foulkes estimate   =    -702.40631800 Ry
     estimated scf accuracy    <       0.00000020 Ry

     iteration # 34     ecut=    50.00 Ry     beta= 0.60
     Davidson diagonalization with overlap
     ethr =  2.75E-10,  avg # of iterations =  4.1

     total cpu time spent up to now is     7482.6 secs

     total energy              =    -702.40631799 Ry
     Harris-Foulkes estimate   =    -702.40631800 Ry
     estimated scf accuracy    <       0.00000013 Ry

     iteration # 35     ecut=    50.00 Ry     beta= 0.60
     Davidson diagonalization with overlap
     ethr =  1.79E-10,  avg # of iterations =  1.0

     total cpu time spent up to now is     7550.2 secs

     total energy              =    -702.40631799 Ry
     Harris-Foulkes estimate   =    -702.40631799 Ry
     estimated scf accuracy    <       0.00000005 Ry

     iteration # 36     ecut=    50.00 Ry     beta= 0.60
     Davidson diagonalization with overlap
     ethr =  7.10E-11,  avg # of iterations =  2.8

     total cpu time spent up to now is     7625.2 secs

     total energy              =    -702.40631799 Ry
     Harris-Foulkes estimate   =    -702.40631799 Ry
     estimated scf accuracy    <       0.00000002 Ry

     iteration # 37     ecut=    50.00 Ry     beta= 0.60
     Davidson diagonalization with overlap
     ethr =  2.53E-11,  avg # of iterations =  4.0

     total cpu time spent up to now is     7714.6 secs

     total energy              =    -702.40631799 Ry
     Harris-Foulkes estimate   =    -702.40631799 Ry
     estimated scf accuracy    <          4.5E-09 Ry

     iteration # 38     ecut=    50.00 Ry     beta= 0.60
     Davidson diagonalization with overlap
     ethr =  6.07E-12,  avg # of iterations =  1.9

     total cpu time spent up to now is     7786.6 secs

     total energy              =    -702.40631799 Ry
     Harris-Foulkes estimate   =    -702.40631799 Ry
     estimated scf accuracy    <          1.6E-09 Ry

     iteration # 39     ecut=    50.00 Ry     beta= 0.60
     Davidson diagonalization with overlap
     ethr =  2.19E-12,  avg # of iterations =  2.8

     total cpu time spent up to now is     7861.8 secs

     total energy              =    -702.40631799 Ry
     Harris-Foulkes estimate   =    -702.40631799 Ry
     estimated scf accuracy    <          1.0E-09 Ry

     iteration # 40     ecut=    50.00 Ry     beta= 0.60
     Davidson diagonalization with overlap
     ethr =  1.37E-12,  avg # of iterations =  4.1

     total cpu time spent up to now is     7961.1 secs

     total energy              =    -702.40631799 Ry
     Harris-Foulkes estimate   =    -702.40631799 Ry
     estimated scf accuracy    <          2.2E-09 Ry

     iteration # 41     ecut=    50.00 Ry     beta= 0.60
     Davidson diagonalization with overlap
     ethr =  1.37E-12,  avg # of iterations =  1.1

     total cpu time spent up to now is     8029.3 secs

     total energy              =    -702.40631799 Ry
     Harris-Foulkes estimate   =    -702.40631799 Ry
     estimated scf accuracy    <          3.4E-10 Ry

     iteration # 42     ecut=    50.00 Ry     beta= 0.60
     Davidson diagonalization with overlap
     ethr =  4.64E-13,  avg # of iterations =  4.1

     total cpu time spent up to now is     8127.4 secs

     total energy              =    -702.40631799 Ry
     Harris-Foulkes estimate   =    -702.40631799 Ry
     estimated scf accuracy    <          1.3E-10 Ry

     iteration # 43     ecut=    50.00 Ry     beta= 0.60
     Davidson diagonalization with overlap
     ethr =  1.74E-13,  avg # of iterations =  1.0

     total cpu time spent up to now is     8195.4 secs

     End of self-consistent calculation

     Number of k-points >= 100: set verbosity='high' to print the bands.

     the Fermi energy is    12.8996 ev

!    total energy              =    -702.40631799 Ry
     Harris-Foulkes estimate   =    -702.40631799 Ry
     estimated scf accuracy    <          3.6E-11 Ry

     The total energy is the sum of the following terms:

     one-electron contribution =    -227.80200457 Ry
     hartree contribution      =     136.72042222 Ry
     xc contribution           =     -94.42810891 Ry
     ewald contribution        =    -516.89616654 Ry
     smearing contrib. (-TS)   =      -0.00046020 Ry

     convergence has been achieved in  43 iterations

     Forces acting on atoms (cartesian axes, Ry/au):

     atom    1 type  2   force =    -0.01030755   -0.00120323    0.00120323
     atom    2 type  2   force =     0.01030811    0.00120342   -0.00120342
     atom    3 type  2   force =    -0.01411180    0.00231517   -0.00231517
     atom    4 type  2   force =     0.01411137   -0.00231553    0.00231553
     atom    5 type  1   force =     0.00494084   -0.00739098    0.00739098
     atom    6 type  1   force =    -0.00494096    0.00739115   -0.00739115

     Total force =     0.030089     Total SCF correction =     0.000006


     Computing stress (Cartesian axis) and pressure

          total   stress  (Ry/bohr**3)                   (kbar)     P= -127.37
  -0.00088852   0.00001778  -0.00001778       -130.71      2.62     -2.62
   0.00001778  -0.00085455   0.00001203          2.62   -125.71      1.77
  -0.00001778   0.00001203  -0.00085455         -2.62      1.77   -125.71


     number of scf cycles    =   2
     number of bfgs steps    =   1

     enthalpy old            =    -702.3145301887 Ry
     enthalpy new            =    -702.4063179923 Ry

     CASE: enthalpy_new < enthalpy_old

     new trust radius        =       0.2872850670 bohr
     new conv_thr            =            1.0E-10 Ry

     new unit-cell volume =    684.77539 a.u.^3 (   101.47324 Ang^3 )
     density =      6.17394 g/cm^3

CELL_PARAMETERS (alat=  1.88972599)
   4.841774186   1.627746022   1.613042617
   1.604121634  -4.851410498   1.610621859
  -1.604121634   1.610621859  -4.851410498

ATOMIC_POSITIONS (angstrom)
Ti       3.206011381  -3.233883260  -0.006905379
Ti       3.244784861   0.006557706  -0.006557706
Ti       1.590545038  -1.614238580  -1.626550059
Ti       4.860254307  -1.613086677   1.613086677
Nb       4.850418548  -1.624649719  -1.616138919
Nb      -0.003743667   0.007946122  -3.248734761


     NEW-OLD atomic charge density approx. for the potential
     extrapolated charge   62.48433, renormalised to   74.00000

     total cpu time spent up to now is     8228.1 secs

     Self-consistent Calculation

     iteration #  1     ecut=    50.00 Ry     beta= 0.60
     Davidson diagonalization with overlap
     ethr =  1.00E-06,  avg # of iterations = 14.2

     total cpu time spent up to now is     8515.6 secs

     total energy              =    -661.39966328 Ry
     Harris-Foulkes estimate   =    -728.35214060 Ry
     estimated scf accuracy    <      44.44028173 Ry

     iteration #  2     ecut=    50.00 Ry     beta= 0.60
     Davidson diagonalization with overlap
     ethr =  1.00E-02,  avg # of iterations =  6.3

     total cpu time spent up to now is     8671.7 secs

     total energy              =    -698.93557486 Ry
     Harris-Foulkes estimate   =    -749.96567807 Ry
     estimated scf accuracy    <     143.90075112 Ry

     iteration #  3     ecut=    50.00 Ry     beta= 0.60
     Davidson diagonalization with overlap
     ethr =  1.00E-02,  avg # of iterations =  4.0

     total cpu time spent up to now is     8791.6 secs

     total energy              =    -704.43617421 Ry
     Harris-Foulkes estimate   =    -709.87320618 Ry
     estimated scf accuracy    <      22.81041412 Ry

     iteration #  4     ecut=    50.00 Ry     beta= 0.60
     Davidson diagonalization with overlap
     ethr =  1.00E-02,  avg # of iterations =  1.3

     total cpu time spent up to now is     8859.0 secs

     total energy              =    -702.05780634 Ry
     Harris-Foulkes estimate   =    -704.84393493 Ry
     estimated scf accuracy    <      11.91563326 Ry

     iteration #  5     ecut=    50.00 Ry     beta= 0.60
     Davidson diagonalization with overlap
     ethr =  1.00E-02,  avg # of iterations =  2.7

     total cpu time spent up to now is     8937.9 secs

     total energy              =    -703.52387154 Ry
     Harris-Foulkes estimate   =    -702.94099184 Ry
     estimated scf accuracy    <       1.83611423 Ry

     iteration #  6     ecut=    50.00 Ry     beta= 0.60
     Davidson diagonalization with overlap
     ethr =  2.48E-03,  avg # of iterations =  3.3

     total cpu time spent up to now is     9022.2 secs

     total energy              =    -703.13333044 Ry
     Harris-Foulkes estimate   =    -703.92201732 Ry
     estimated scf accuracy    <       6.94856205 Ry

     iteration #  7     ecut=    50.00 Ry     beta= 0.60
     Davidson diagonalization with overlap
     ethr =  2.48E-03,  avg # of iterations =  1.0

     total cpu time spent up to now is     9088.6 secs

     total energy              =    -702.60227341 Ry
     Harris-Foulkes estimate   =    -703.18444663 Ry
     estimated scf accuracy    <       4.45516046 Ry

     iteration #  8     ecut=    50.00 Ry     beta= 0.60
     Davidson diagonalization with overlap
     ethr =  2.48E-03,  avg # of iterations =  2.2

     total cpu time spent up to now is     9160.0 secs

     total energy              =    -702.74253708 Ry
     Harris-Foulkes estimate   =    -702.70698638 Ry
     estimated scf accuracy    <       1.71575529 Ry

     iteration #  9     ecut=    50.00 Ry     beta= 0.60
     Davidson diagonalization with overlap
     ethr =  2.32E-03,  avg # of iterations =  1.0

     total cpu time spent up to now is     9226.6 secs

     total energy              =    -702.49091797 Ry
     Harris-Foulkes estimate   =    -702.75433864 Ry
     estimated scf accuracy    <       1.84715230 Ry

     iteration # 10     ecut=    50.00 Ry     beta= 0.60
     Davidson diagonalization with overlap
     ethr =  2.32E-03,  avg # of iterations =  1.1

     total cpu time spent up to now is     9293.3 secs

     total energy              =    -702.15518131 Ry
     Harris-Foulkes estimate   =    -702.52223844 Ry
     estimated scf accuracy    <       0.88251843 Ry

     iteration # 11     ecut=    50.00 Ry     beta= 0.60
     Davidson diagonalization with overlap
     ethr =  1.19E-03,  avg # of iterations =  4.9

     total cpu time spent up to now is     9404.7 secs

     total energy              =    -702.50460323 Ry
     Harris-Foulkes estimate   =    -702.57434347 Ry
     estimated scf accuracy    <       1.43214577 Ry

     iteration # 12     ecut=    50.00 Ry     beta= 0.60
     Davidson diagonalization with overlap
     ethr =  1.19E-03,  avg # of iterations =  1.0

     total cpu time spent up to now is     9471.3 secs

     total energy              =    -702.46497297 Ry
     Harris-Foulkes estimate   =    -702.51365499 Ry
     estimated scf accuracy    <       0.89048514 Ry

     iteration # 13     ecut=    50.00 Ry     beta= 0.60
     Davidson diagonalization with overlap
     ethr =  1.19E-03,  avg # of iterations =  1.0

     total cpu time spent up to now is     9538.5 secs

     total energy              =    -702.43675433 Ry
     Harris-Foulkes estimate   =    -702.47603406 Ry
     estimated scf accuracy    <       0.43173879 Ry

     iteration # 14     ecut=    50.00 Ry     beta= 0.60
     Davidson diagonalization with overlap
     ethr =  5.83E-04,  avg # of iterations =  1.0

     total cpu time spent up to now is     9611.3 secs

     total energy              =    -702.41881974 Ry
     Harris-Foulkes estimate   =    -702.44579026 Ry
     estimated scf accuracy    <       0.17882547 Ry

     iteration # 15     ecut=    50.00 Ry     beta= 0.60
     Davidson diagonalization with overlap
     ethr =  2.42E-04,  avg # of iterations =  3.9

     total cpu time spent up to now is     9706.8 secs

     total energy              =    -702.45177666 Ry
     Harris-Foulkes estimate   =    -702.45218606 Ry
     estimated scf accuracy    <       0.02163387 Ry

     iteration # 16     ecut=    50.00 Ry     beta= 0.60
     Davidson diagonalization with overlap
     c_bands:  1 eigenvalues not converged
     c_bands:  1 eigenvalues not converged
     c_bands:  1 eigenvalues not converged
     c_bands:  1 eigenvalues not converged
     ethr =  2.92E-05,  avg # of iterations =  4.4

     total cpu time spent up to now is     9788.9 secs

     total energy              =    -702.45290467 Ry
     Harris-Foulkes estimate   =    -702.45247384 Ry
     estimated scf accuracy    <       0.02027287 Ry

     iteration # 17     ecut=    50.00 Ry     beta= 0.60
     Davidson diagonalization with overlap
     ethr =  2.74E-05,  avg # of iterations =  1.0

     total cpu time spent up to now is     9904.8 secs

     total energy              =    -702.45286833 Ry
     Harris-Foulkes estimate   =    -702.45312304 Ry
     estimated scf accuracy    <       0.02464221 Ry

     iteration # 18     ecut=    50.00 Ry     beta= 0.60
     Davidson diagonalization with overlap
     ethr =  2.74E-05,  avg # of iterations =  1.0

     total cpu time spent up to now is     9983.9 secs

     total energy              =    -702.45230752 Ry
     Harris-Foulkes estimate   =    -702.45295407 Ry
     estimated scf accuracy    <       0.02450424 Ry

     iteration # 19     ecut=    50.00 Ry     beta= 0.60
     Davidson diagonalization with overlap
     ethr =  2.74E-05,  avg # of iterations =  1.0

     total cpu time spent up to now is    10056.6 secs

     total energy              =    -702.45176373 Ry
     Harris-Foulkes estimate   =    -702.45236592 Ry
     estimated scf accuracy    <       0.02058541 Ry

     iteration # 20     ecut=    50.00 Ry     beta= 0.60
     Davidson diagonalization with overlap
     ethr =  2.74E-05,  avg # of iterations =  1.0

     total cpu time spent up to now is    10137.1 secs

     total energy              =    -702.45123158 Ry
     Harris-Foulkes estimate   =    -702.45181903 Ry
     estimated scf accuracy    <       0.01558946 Ry

     iteration # 21     ecut=    50.00 Ry     beta= 0.60
     Davidson diagonalization with overlap
     ethr =  2.11E-05,  avg # of iterations =  1.0

     total cpu time spent up to now is    10207.7 secs

     total energy              =    -702.45025194 Ry
     Harris-Foulkes estimate   =    -702.45130225 Ry
     estimated scf accuracy    <       0.01121882 Ry

     iteration # 22     ecut=    50.00 Ry     beta= 0.60
     Davidson diagonalization with overlap
     ethr =  1.52E-05,  avg # of iterations =  1.1

     total cpu time spent up to now is    10277.6 secs

     total energy              =    -702.45013291 Ry
     Harris-Foulkes estimate   =    -702.45053810 Ry
     estimated scf accuracy    <       0.00388347 Ry

     iteration # 23     ecut=    50.00 Ry     beta= 0.60
     Davidson diagonalization with overlap
     c_bands:  1 eigenvalues not converged
     ethr =  5.25E-06,  avg # of iterations =  6.7

     total cpu time spent up to now is    10393.8 secs

     total energy              =    -702.45052436 Ry
     Harris-Foulkes estimate   =    -702.45056123 Ry
     estimated scf accuracy    <       0.00018014 Ry

     iteration # 24     ecut=    50.00 Ry     beta= 0.60
     Davidson diagonalization with overlap
     c_bands:  1 eigenvalues not converged
     ethr =  2.43E-07,  avg # of iterations =  5.7

     total cpu time spent up to now is    10516.3 secs

     total energy              =    -702.45057987 Ry
     Harris-Foulkes estimate   =    -702.45058891 Ry
     estimated scf accuracy    <       0.00004734 Ry

     iteration # 25     ecut=    50.00 Ry     beta= 0.60
     Davidson diagonalization with overlap
     ethr =  6.40E-08,  avg # of iterations =  2.5

     total cpu time spent up to now is    10599.9 secs

     total energy              =    -702.45058409 Ry
     Harris-Foulkes estimate   =    -702.45058471 Ry
     estimated scf accuracy    <       0.00000308 Ry

     iteration # 26     ecut=    50.00 Ry     beta= 0.60
     Davidson diagonalization with overlap
     ethr =  4.16E-09,  avg # of iterations =  4.8

     total cpu time spent up to now is    10723.1 secs

     total energy              =    -702.45058555 Ry
     Harris-Foulkes estimate   =    -702.45058590 Ry
     estimated scf accuracy    <       0.00000523 Ry

     iteration # 27     ecut=    50.00 Ry     beta= 0.60
     Davidson diagonalization with overlap
     ethr =  4.16E-09,  avg # of iterations =  1.0

     total cpu time spent up to now is    10791.6 secs

     total energy              =    -702.45058523 Ry
     Harris-Foulkes estimate   =    -702.45058566 Ry
     estimated scf accuracy    <       0.00000326 Ry

     iteration # 28     ecut=    50.00 Ry     beta= 0.60
     Davidson diagonalization with overlap
     ethr =  4.16E-09,  avg # of iterations =  2.5

     total cpu time spent up to now is    10871.0 secs

     total energy              =    -702.45058538 Ry
     Harris-Foulkes estimate   =    -702.45058544 Ry
     estimated scf accuracy    <       0.00000059 Ry

     iteration # 29     ecut=    50.00 Ry     beta= 0.60
     Davidson diagonalization with overlap
     ethr =  8.00E-10,  avg # of iterations =  3.4

     total cpu time spent up to now is    10958.3 secs

     total energy              =    -702.45058544 Ry
     Harris-Foulkes estimate   =    -702.45058545 Ry
     estimated scf accuracy    <       0.00000012 Ry

     iteration # 30     ecut=    50.00 Ry     beta= 0.60
     Davidson diagonalization with overlap
     ethr =  1.64E-10,  avg # of iterations =  3.4

     total cpu time spent up to now is    11052.4 secs

     total energy              =    -702.45058545 Ry
     Harris-Foulkes estimate   =    -702.45058545 Ry
     estimated scf accuracy    <       0.00000001 Ry

     iteration # 31     ecut=    50.00 Ry     beta= 0.60
     Davidson diagonalization with overlap
     ethr =  1.81E-11,  avg # of iterations =  4.5

     total cpu time spent up to now is    11159.5 secs

     total energy              =    -702.45058545 Ry
     Harris-Foulkes estimate   =    -702.45058545 Ry
     estimated scf accuracy    <       0.00000001 Ry

     iteration # 32     ecut=    50.00 Ry     beta= 0.60
     Davidson diagonalization with overlap
     ethr =  1.81E-11,  avg # of iterations =  1.0

     total cpu time spent up to now is    11228.1 secs

     total energy              =    -702.45058545 Ry
     Harris-Foulkes estimate   =    -702.45058545 Ry
     estimated scf accuracy    <          3.9E-09 Ry

     iteration # 33     ecut=    50.00 Ry     beta= 0.60
     Davidson diagonalization with overlap
     ethr =  5.25E-12,  avg # of iterations =  3.8

     total cpu time spent up to now is    11317.7 secs

     total energy              =    -702.45058545 Ry
     Harris-Foulkes estimate   =    -702.45058545 Ry
     estimated scf accuracy    <          4.3E-10 Ry

     iteration # 34     ecut=    50.00 Ry     beta= 0.60
     Davidson diagonalization with overlap
     ethr =  5.82E-13,  avg # of iterations =  2.2

     total cpu time spent up to now is    11392.5 secs

     total energy              =    -702.45058545 Ry
     Harris-Foulkes estimate   =    -702.45058545 Ry
     estimated scf accuracy    <          1.2E-10 Ry

     iteration # 35     ecut=    50.00 Ry     beta= 0.60
     Davidson diagonalization with overlap
     ethr =  1.57E-13,  avg # of iterations =  4.0

     total cpu time spent up to now is    11484.2 secs

     End of self-consistent calculation

     Number of k-points >= 100: set verbosity='high' to print the bands.

     the Fermi energy is    15.4502 ev

!    total energy              =    -702.45058545 Ry
     Harris-Foulkes estimate   =    -702.45058545 Ry
     estimated scf accuracy    <          9.1E-11 Ry

     The total energy is the sum of the following terms:

     one-electron contribution =    -188.43013514 Ry
     hartree contribution      =     124.92018461 Ry
     xc contribution           =     -95.21360938 Ry
     ewald contribution        =    -543.72591333 Ry
     smearing contrib. (-TS)   =      -0.00111221 Ry

     convergence has been achieved in  35 iterations

     Forces acting on atoms (cartesian axes, Ry/au):

     atom    1 type  2   force =    -0.00664749   -0.00190193    0.00190193
     atom    2 type  2   force =     0.00664931    0.00190204   -0.00190204
     atom    3 type  2   force =    -0.00723534    0.00320416   -0.00320416
     atom    4 type  2   force =     0.00723313   -0.00320429    0.00320429
     atom    5 type  1   force =     0.00029021   -0.00711650    0.00711650
     atom    6 type  1   force =    -0.00028981    0.00711652   -0.00711652

     Total force =     0.021245     Total SCF correction =     0.000007


     Computing stress (Cartesian axis) and pressure

          total   stress  (Ry/bohr**3)                   (kbar)     P=   35.77
   0.00021224   0.00002134  -0.00002134         31.22      3.14     -3.14
   0.00002134   0.00025865   0.00000531          3.14     38.05      0.78
  -0.00002134   0.00000531   0.00025865         -3.14      0.78     38.05


     number of scf cycles    =   3
     number of bfgs steps    =   2

     enthalpy old            =    -702.4063179923 Ry
     enthalpy new            =    -702.4505854522 Ry

     CASE: enthalpy_new < enthalpy_old

     new trust radius        =       0.0534126507 bohr
     new conv_thr            =            1.0E-10 Ry

     new unit-cell volume =    705.52760 a.u.^3 (   104.54840 Ang^3 )
     density =      5.99234 g/cm^3

CELL_PARAMETERS (alat=  1.88972599)
   4.888257377   1.645617468   1.628248121
   1.617835780  -4.900482747   1.626617158
  -1.617835780   1.626617158  -4.900482747

ATOMIC_POSITIONS (angstrom)
Ti       3.234744793  -3.266599870  -0.007265720
Ti       3.277139489   0.008024103  -0.008024103
Ti       1.604862417  -1.629409706  -1.644455883
Ti       4.907023667  -1.629165782   1.629165782
Nb       4.896486523  -1.641693526  -1.632172063
Nb      -0.002438179   0.009734984  -3.283600573


     NEW-OLD atomic charge density approx. for the potential
     extrapolated charge   76.05880, renormalised to   74.00000

     total cpu time spent up to now is    11516.6 secs

     Self-consistent Calculation

     iteration #  1     ecut=    50.00 Ry     beta= 0.60
     Davidson diagonalization with overlap
     c_bands:  1 eigenvalues not converged
     c_bands:  1 eigenvalues not converged
     c_bands:  1 eigenvalues not converged
     ethr =  1.00E-06,  avg # of iterations = 12.4

     total cpu time spent up to now is    11736.5 secs

     total energy              =    -702.08217467 Ry
     Harris-Foulkes estimate   =    -698.58715429 Ry
     estimated scf accuracy    <       0.31329249 Ry

     iteration #  2     ecut=    50.00 Ry     beta= 0.60
     Davidson diagonalization with overlap
     ethr =  4.23E-04,  avg # of iterations =  5.1

     total cpu time spent up to now is    11877.5 secs

     total energy              =    -702.01447815 Ry
     Harris-Foulkes estimate   =    -703.06181595 Ry
     estimated scf accuracy    <       6.01492067 Ry

     iteration #  3     ecut=    50.00 Ry     beta= 0.60
     Davidson diagonalization with overlap
     ethr =  4.23E-04,  avg # of iterations =  5.3

     total cpu time spent up to now is    11999.8 secs

     total energy              =    -702.38152803 Ry
     Harris-Foulkes estimate   =    -702.55933830 Ry
     estimated scf accuracy    <       0.80686105 Ry

     iteration #  4     ecut=    50.00 Ry     beta= 0.60
     Davidson diagonalization with overlap
     ethr =  4.23E-04,  avg # of iterations =  5.7

     total cpu time spent up to now is    12104.1 secs

     total energy              =    -702.42959831 Ry
     Harris-Foulkes estimate   =    -702.51553122 Ry
     estimated scf accuracy    <       0.65600455 Ry

     iteration #  5     ecut=    50.00 Ry     beta= 0.60
     Davidson diagonalization with overlap
     ethr =  4.23E-04,  avg # of iterations =  1.3

     total cpu time spent up to now is    12171.9 secs

     total energy              =    -702.44994022 Ry
     Harris-Foulkes estimate   =    -702.45726437 Ry
     estimated scf accuracy    <       0.10541732 Ry

     iteration #  6     ecut=    50.00 Ry     beta= 0.60
     Davidson diagonalization with overlap
     ethr =  1.42E-04,  avg # of iterations =  4.9

     total cpu time spent up to now is    12266.1 secs

     total energy              =    -702.45805327 Ry
     Harris-Foulkes estimate   =    -702.46567653 Ry
     estimated scf accuracy    <       0.07670824 Ry

     iteration #  7     ecut=    50.00 Ry     beta= 0.60
     Davidson diagonalization with overlap
     ethr =  1.04E-04,  avg # of iterations =  1.1

     total cpu time spent up to now is    12333.1 secs

     total energy              =    -702.45466212 Ry
     Harris-Foulkes estimate   =    -702.45903338 Ry
     estimated scf accuracy    <       0.04638307 Ry

     iteration #  8     ecut=    50.00 Ry     beta= 0.60
     Davidson diagonalization with overlap
     ethr =  6.27E-05,  avg # of iterations =  1.3

     total cpu time spent up to now is    12400.3 secs

     total energy              =    -702.45425051 Ry
     Harris-Foulkes estimate   =    -702.45560853 Ry
     estimated scf accuracy    <       0.02395035 Ry

     iteration #  9     ecut=    50.00 Ry     beta= 0.60
     Davidson diagonalization with overlap
     ethr =  3.24E-05,  avg # of iterations =  1.5

     total cpu time spent up to now is    12468.1 secs

     total energy              =    -702.45227815 Ry
     Harris-Foulkes estimate   =    -702.45458483 Ry
     estimated scf accuracy    <       0.01750912 Ry

     iteration # 10     ecut=    50.00 Ry     beta= 0.60
     Davidson diagonalization with overlap
     c_bands:  1 eigenvalues not converged
     c_bands:  2 eigenvalues not converged
     ethr =  2.37E-05,  avg # of iterations =  3.3

     total cpu time spent up to now is    12543.7 secs

     total energy              =    -702.45147995 Ry
     Harris-Foulkes estimate   =    -702.45305016 Ry
     estimated scf accuracy    <       0.00539419 Ry

     iteration # 11     ecut=    50.00 Ry     beta= 0.60
     Davidson diagonalization with overlap
     ethr =  7.29E-06,  avg # of iterations =  5.8

     total cpu time spent up to now is    12653.6 secs

     total energy              =    -702.45308971 Ry
     Harris-Foulkes estimate   =    -702.45315106 Ry
     estimated scf accuracy    <       0.00167885 Ry

     iteration # 12     ecut=    50.00 Ry     beta= 0.60
     Davidson diagonalization with overlap
     ethr =  2.27E-06,  avg # of iterations =  1.3

     total cpu time spent up to now is    12721.1 secs

     total energy              =    -702.45306219 Ry
     Harris-Foulkes estimate   =    -702.45311382 Ry
     estimated scf accuracy    <       0.00132706 Ry

     iteration # 13     ecut=    50.00 Ry     beta= 0.60
     Davidson diagonalization with overlap
     ethr =  1.79E-06,  avg # of iterations =  1.0

     total cpu time spent up to now is    12787.7 secs

     total energy              =    -702.45303437 Ry
     Harris-Foulkes estimate   =    -702.45307694 Ry
     estimated scf accuracy    <       0.00096420 Ry

     iteration # 14     ecut=    50.00 Ry     beta= 0.60
     Davidson diagonalization with overlap
     ethr =  1.30E-06,  avg # of iterations =  1.0

     total cpu time spent up to now is    12854.3 secs

     total energy              =    -702.45306162 Ry
     Harris-Foulkes estimate   =    -702.45305145 Ry
     estimated scf accuracy    <       0.00074391 Ry

     iteration # 15     ecut=    50.00 Ry     beta= 0.60
     Davidson diagonalization with overlap
     ethr =  1.01E-06,  avg # of iterations =  1.0

     total cpu time spent up to now is    12920.9 secs

     total energy              =    -702.45305408 Ry
     Harris-Foulkes estimate   =    -702.45308740 Ry
     estimated scf accuracy    <       0.00091017 Ry

     iteration # 16     ecut=    50.00 Ry     beta= 0.60
     Davidson diagonalization with overlap
     ethr =  1.01E-06,  avg # of iterations =  1.0

     total cpu time spent up to now is    12987.4 secs

     total energy              =    -702.45300443 Ry
     Harris-Foulkes estimate   =    -702.45305951 Ry
     estimated scf accuracy    <       0.00068744 Ry

     iteration # 17     ecut=    50.00 Ry     beta= 0.60
     Davidson diagonalization with overlap
     ethr =  9.29E-07,  avg # of iterations =  1.0

     total cpu time spent up to now is    13054.0 secs

     total energy              =    -702.45297554 Ry
     Harris-Foulkes estimate   =    -702.45301719 Ry
     estimated scf accuracy    <       0.00028378 Ry

     iteration # 18     ecut=    50.00 Ry     beta= 0.60
     Davidson diagonalization with overlap
     ethr =  3.83E-07,  avg # of iterations =  3.8

     total cpu time spent up to now is    13140.6 secs

     total energy              =    -702.45300486 Ry
     Harris-Foulkes estimate   =    -702.45301123 Ry
     estimated scf accuracy    <       0.00004067 Ry

     iteration # 19     ecut=    50.00 Ry     beta= 0.60
     Davidson diagonalization with overlap
     c_bands:  1 eigenvalues not converged
     ethr =  5.50E-08,  avg # of iterations =  4.0

     total cpu time spent up to now is    13229.8 secs

     total energy              =    -702.45300848 Ry
     Harris-Foulkes estimate   =    -702.45301256 Ry
     estimated scf accuracy    <       0.00002438 Ry

     iteration # 20     ecut=    50.00 Ry     beta= 0.60
     Davidson diagonalization with overlap
     ethr =  3.29E-08,  avg # of iterations =  1.2

     total cpu time spent up to now is    13297.0 secs

     total energy              =    -702.45300917 Ry
     Harris-Foulkes estimate   =    -702.45300986 Ry
     estimated scf accuracy    <       0.00000346 Ry

     iteration # 21     ecut=    50.00 Ry     beta= 0.60
     Davidson diagonalization with overlap
     ethr =  4.68E-09,  avg # of iterations =  4.3

     total cpu time spent up to now is    13395.7 secs

     total energy              =    -702.45301035 Ry
     Harris-Foulkes estimate   =    -702.45301060 Ry
     estimated scf accuracy    <       0.00000243 Ry

     iteration # 22     ecut=    50.00 Ry     beta= 0.60
     Davidson diagonalization with overlap
     ethr =  3.29E-09,  avg # of iterations =  1.0

     total cpu time spent up to now is    13462.2 secs

     total energy              =    -702.45301028 Ry
     Harris-Foulkes estimate   =    -702.45301040 Ry
     estimated scf accuracy    <       0.00000100 Ry

     iteration # 23     ecut=    50.00 Ry     beta= 0.60
     Davidson diagonalization with overlap
     ethr =  1.36E-09,  avg # of iterations =  3.0

     total cpu time spent up to now is    13543.3 secs

     total energy              =    -702.45301037 Ry
     Harris-Foulkes estimate   =    -702.45301037 Ry
     estimated scf accuracy    <       0.00000003 Ry

     iteration # 24     ecut=    50.00 Ry     beta= 0.60
     Davidson diagonalization with overlap
     ethr =  4.34E-11,  avg # of iterations =  5.0

     total cpu time spent up to now is    13649.3 secs

     total energy              =    -702.45301038 Ry
     Harris-Foulkes estimate   =    -702.45301038 Ry
     estimated scf accuracy    <       0.00000004 Ry

     iteration # 25     ecut=    50.00 Ry     beta= 0.60
     Davidson diagonalization with overlap
     ethr =  4.34E-11,  avg # of iterations =  1.0

     total cpu time spent up to now is    13715.9 secs

     total energy              =    -702.45301038 Ry
     Harris-Foulkes estimate   =    -702.45301038 Ry
     estimated scf accuracy    <       0.00000002 Ry

     iteration # 26     ecut=    50.00 Ry     beta= 0.60
     Davidson diagonalization with overlap
     ethr =  2.62E-11,  avg # of iterations =  3.2

     total cpu time spent up to now is    13802.0 secs

     total energy              =    -702.45301038 Ry
     Harris-Foulkes estimate   =    -702.45301038 Ry
     estimated scf accuracy    <          5.2E-09 Ry

     iteration # 27     ecut=    50.00 Ry     beta= 0.60
     Davidson diagonalization with overlap
     ethr =  7.01E-12,  avg # of iterations =  1.5

     total cpu time spent up to now is    13869.9 secs

     total energy              =    -702.45301038 Ry
     Harris-Foulkes estimate   =    -702.45301038 Ry
     estimated scf accuracy    <          9.2E-10 Ry

     iteration # 28     ecut=    50.00 Ry     beta= 0.60
     Davidson diagonalization with overlap
     ethr =  1.24E-12,  avg # of iterations =  4.0

     total cpu time spent up to now is    13962.6 secs

     total energy              =    -702.45301038 Ry
     Harris-Foulkes estimate   =    -702.45301038 Ry
     estimated scf accuracy    <          2.6E-10 Ry

     iteration # 29     ecut=    50.00 Ry     beta= 0.60
     Davidson diagonalization with overlap
     ethr =  3.48E-13,  avg # of iterations =  2.5

     total cpu time spent up to now is    14034.5 secs

     total energy              =    -702.45301038 Ry
     Harris-Foulkes estimate   =    -702.45301038 Ry
     estimated scf accuracy    <          2.0E-10 Ry

     iteration # 30     ecut=    50.00 Ry     beta= 0.60
     Davidson diagonalization with overlap
     ethr =  2.74E-13,  avg # of iterations =  1.3

     total cpu time spent up to now is    14101.9 secs

     End of self-consistent calculation

     Number of k-points >= 100: set verbosity='high' to print the bands.

     the Fermi energy is    14.9192 ev

!    total energy              =    -702.45301038 Ry
     Harris-Foulkes estimate   =    -702.45301038 Ry
     estimated scf accuracy    <          5.4E-11 Ry

     The total energy is the sum of the following terms:

     one-electron contribution =    -196.29321640 Ry
     hartree contribution      =     127.22570481 Ry
     xc contribution           =     -95.04925042 Ry
     ewald contribution        =    -538.33543094 Ry
     smearing contrib. (-TS)   =      -0.00081743 Ry

     convergence has been achieved in  30 iterations

     Forces acting on atoms (cartesian axes, Ry/au):

     atom    1 type  2   force =    -0.00703976   -0.00190407    0.00190407
     atom    2 type  2   force =     0.00703920    0.00190414   -0.00190414
     atom    3 type  2   force =    -0.00844930    0.00296008   -0.00296008
     atom    4 type  2   force =     0.00844926   -0.00296002    0.00296002
     atom    5 type  1   force =     0.00139416   -0.00711546    0.00711546
     atom    6 type  1   force =    -0.00139357    0.00711533   -0.00711533

     Total force =     0.022312     Total SCF correction =     0.000010


     Computing stress (Cartesian axis) and pressure

          total   stress  (Ry/bohr**3)                   (kbar)     P=   -3.44
  -0.00005199   0.00002056  -0.00002056         -7.65      3.02     -3.02
   0.00002056  -0.00000911   0.00000560          3.02     -1.34      0.82
  -0.00002056   0.00000560  -0.00000911         -3.02      0.82     -1.34


     number of scf cycles    =   4
     number of bfgs steps    =   3

     enthalpy old            =    -702.4505854522 Ry
     enthalpy new            =    -702.4530103811 Ry

     CASE: enthalpy_new < enthalpy_old

     new trust radius        =       0.0094788959 bohr
     new conv_thr            =            1.0E-10 Ry

     new unit-cell volume =    704.54647 a.u.^3 (   104.40301 Ang^3 )
     density =      6.00068 g/cm^3

CELL_PARAMETERS (alat=  1.88972599)
   4.882458697   1.648226765   1.625783625
   1.612517308  -4.898910523   1.624900133
  -1.612517308   1.624900133  -4.898910523

ATOMIC_POSITIONS (angstrom)
Ti       3.225719999  -3.265536154  -0.008474236
Ti       3.276739769   0.010670047  -0.010670047
Ti       1.598817606  -1.627198586  -1.646811804
Ti       4.903643994  -1.627667256   1.627667256
Nb       4.891308312  -1.642737314  -1.631273075
Nb      -0.001365587   0.012771313  -3.286781703


     NEW-OLD atomic charge density approx. for the potential
     extrapolated charge   73.90253, renormalised to   74.00000

     total cpu time spent up to now is    14134.1 secs

     Self-consistent Calculation

     iteration #  1     ecut=    50.00 Ry     beta= 0.60
     Davidson diagonalization with overlap
     ethr =  1.00E-06,  avg # of iterations =  4.1

     total cpu time spent up to now is    14280.7 secs

     total energy              =    -702.45254778 Ry
     Harris-Foulkes estimate   =    -702.63953986 Ry
     estimated scf accuracy    <       0.00102649 Ry

     iteration #  2     ecut=    50.00 Ry     beta= 0.60
     Davidson diagonalization with overlap
     ethr =  1.39E-06,  avg # of iterations =  5.0

     total cpu time spent up to now is    14417.5 secs

     total energy              =    -702.45232084 Ry
     Harris-Foulkes estimate   =    -702.45469984 Ry
     estimated scf accuracy    <       0.01160572 Ry

     iteration #  3     ecut=    50.00 Ry     beta= 0.60
     Davidson diagonalization with overlap
     ethr =  1.39E-06,  avg # of iterations =  5.3

     total cpu time spent up to now is    14533.8 secs

     total energy              =    -702.45320646 Ry
     Harris-Foulkes estimate   =    -702.45406989 Ry
     estimated scf accuracy    <       0.00563124 Ry

     iteration #  4     ecut=    50.00 Ry     beta= 0.60
     Davidson diagonalization with overlap
     ethr =  1.39E-06,  avg # of iterations =  4.9

     total cpu time spent up to now is    14631.8 secs

     total energy              =    -702.45357968 Ry
     Harris-Foulkes estimate   =    -702.45357379 Ry
     estimated scf accuracy    <       0.00014950 Ry

     iteration #  5     ecut=    50.00 Ry     beta= 0.60
     Davidson diagonalization with overlap
     ethr =  2.02E-07,  avg # of iterations =  2.0

     total cpu time spent up to now is    14703.3 secs

     total energy              =    -702.45354576 Ry
     Harris-Foulkes estimate   =    -702.45358450 Ry
     estimated scf accuracy    <       0.00017190 Ry

     iteration #  6     ecut=    50.00 Ry     beta= 0.60
     Davidson diagonalization with overlap
     ethr =  2.02E-07,  avg # of iterations =  1.1

     total cpu time spent up to now is    14771.2 secs

     total energy              =    -702.45351688 Ry
     Harris-Foulkes estimate   =    -702.45355143 Ry
     estimated scf accuracy    <       0.00010215 Ry

     iteration #  7     ecut=    50.00 Ry     beta= 0.60
     Davidson diagonalization with overlap
     ethr =  1.38E-07,  avg # of iterations =  3.0

     total cpu time spent up to now is    14856.5 secs

     total energy              =    -702.45353012 Ry
     Harris-Foulkes estimate   =    -702.45353385 Ry
     estimated scf accuracy    <       0.00002182 Ry

     iteration #  8     ecut=    50.00 Ry     beta= 0.60
     Davidson diagonalization with overlap
     ethr =  2.95E-08,  avg # of iterations =  3.9

     total cpu time spent up to now is    14945.5 secs

     total energy              =    -702.45353262 Ry
     Harris-Foulkes estimate   =    -702.45353498 Ry
     estimated scf accuracy    <       0.00002354 Ry

     iteration #  9     ecut=    50.00 Ry     beta= 0.60
     Davidson diagonalization with overlap
     ethr =  2.95E-08,  avg # of iterations =  1.0

     total cpu time spent up to now is    15013.2 secs

     total energy              =    -702.45353262 Ry
     Harris-Foulkes estimate   =    -702.45353316 Ry
     estimated scf accuracy    <       0.00001007 Ry

     iteration # 10     ecut=    50.00 Ry     beta= 0.60
     Davidson diagonalization with overlap
     ethr =  1.36E-08,  avg # of iterations =  1.0

     total cpu time spent up to now is    15080.9 secs

     total energy              =    -702.45353158 Ry
     Harris-Foulkes estimate   =    -702.45353281 Ry
     estimated scf accuracy    <       0.00000677 Ry

     iteration # 11     ecut=    50.00 Ry     beta= 0.60
     Davidson diagonalization with overlap
     ethr =  9.15E-09,  avg # of iterations =  3.8

     total cpu time spent up to now is    15168.2 secs

     total energy              =    -702.45353264 Ry
     Harris-Foulkes estimate   =    -702.45353263 Ry
     estimated scf accuracy    <       0.00000112 Ry

     iteration # 12     ecut=    50.00 Ry     beta= 0.60
     Davidson diagonalization with overlap
     ethr =  1.52E-09,  avg # of iterations =  3.9

     total cpu time spent up to now is    15254.9 secs

     total energy              =    -702.45353257 Ry
     Harris-Foulkes estimate   =    -702.45353281 Ry
     estimated scf accuracy    <       0.00000232 Ry

     iteration # 13     ecut=    50.00 Ry     beta= 0.60
     Davidson diagonalization with overlap
     ethr =  1.52E-09,  avg # of iterations =  1.0

     total cpu time spent up to now is    15322.6 secs

     total energy              =    -702.45353252 Ry
     Harris-Foulkes estimate   =    -702.45353262 Ry
     estimated scf accuracy    <       0.00000102 Ry

     iteration # 14     ecut=    50.00 Ry     beta= 0.60
     Davidson diagonalization with overlap
     ethr =  1.38E-09,  avg # of iterations =  2.0

     total cpu time spent up to now is    15393.5 secs

     total energy              =    -702.45353254 Ry
     Harris-Foulkes estimate   =    -702.45353256 Ry
     estimated scf accuracy    <       0.00000027 Ry

     iteration # 15     ecut=    50.00 Ry     beta= 0.60
     Davidson diagonalization with overlap
     ethr =  3.65E-10,  avg # of iterations =  3.9

     total cpu time spent up to now is    15482.5 secs

     total energy              =    -702.45353257 Ry
     Harris-Foulkes estimate   =    -702.45353257 Ry
     estimated scf accuracy    <       0.00000002 Ry

     iteration # 16     ecut=    50.00 Ry     beta= 0.60
     Davidson diagonalization with overlap
     ethr =  2.85E-11,  avg # of iterations =  4.0

     total cpu time spent up to now is    15570.0 secs

     total energy              =    -702.45353257 Ry
     Harris-Foulkes estimate   =    -702.45353257 Ry
     estimated scf accuracy    <          4.2E-09 Ry

     iteration # 17     ecut=    50.00 Ry     beta= 0.60
     Davidson diagonalization with overlap
     ethr =  5.72E-12,  avg # of iterations =  3.9

     total cpu time spent up to now is    15658.0 secs

     total energy              =    -702.45353257 Ry
     Harris-Foulkes estimate   =    -702.45353257 Ry
     estimated scf accuracy    <          4.0E-09 Ry

     iteration # 18     ecut=    50.00 Ry     beta= 0.60
     Davidson diagonalization with overlap
     ethr =  5.45E-12,  avg # of iterations =  1.5

     total cpu time spent up to now is    15726.8 secs

     total energy              =    -702.45353257 Ry
     Harris-Foulkes estimate   =    -702.45353257 Ry
     estimated scf accuracy    <          2.4E-09 Ry

     iteration # 19     ecut=    50.00 Ry     beta= 0.60
     Davidson diagonalization with overlap
     ethr =  3.21E-12,  avg # of iterations =  3.0

     total cpu time spent up to now is    15803.6 secs

     total energy              =    -702.45353257 Ry
     Harris-Foulkes estimate   =    -702.45353257 Ry
     estimated scf accuracy    <          1.2E-10 Ry

     iteration # 20     ecut=    50.00 Ry     beta= 0.60
     Davidson diagonalization with overlap
     ethr =  1.64E-13,  avg # of iterations =  5.0

     total cpu time spent up to now is    15912.8 secs

     total energy              =    -702.45353257 Ry
     Harris-Foulkes estimate   =    -702.45353257 Ry
     estimated scf accuracy    <          2.2E-10 Ry

     iteration # 21     ecut=    50.00 Ry     beta= 0.60
     Davidson diagonalization with overlap
     ethr =  1.64E-13,  avg # of iterations =  1.0

     total cpu time spent up to now is    15980.2 secs

     End of self-consistent calculation

     Number of k-points >= 100: set verbosity='high' to print the bands.

     the Fermi energy is    14.9413 ev

!    total energy              =    -702.45353257 Ry
     Harris-Foulkes estimate   =    -702.45353257 Ry
     estimated scf accuracy    <          8.9E-11 Ry

     The total energy is the sum of the following terms:

     one-electron contribution =    -195.98635828 Ry
     hartree contribution      =     127.14630071 Ry
     xc contribution           =     -95.05819948 Ry
     ewald contribution        =    -538.55454321 Ry
     smearing contrib. (-TS)   =      -0.00073231 Ry

[...]
     c_bands:  1 eigenvalues not converged
     c_bands:  2 eigenvalues not converged
     c_bands:  1 eigenvalues not converged
     c_bands:  1 eigenvalues not converged
     c_bands:  1 eigenvalues not converged
     c_bands:  2 eigenvalues not converged
     c_bands:  1 eigenvalues not converged
     c_bands:  1 eigenvalues not converged
     c_bands:  1 eigenvalues not converged
     c_bands:  1 eigenvalues not converged
     c_bands:  2 eigenvalues not converged
     c_bands:  2 eigenvalues not converged
     c_bands:  1 eigenvalues not converged
     c_bands:  2 eigenvalues not converged
     c_bands:  2 eigenvalues not converged
     c_bands:  1 eigenvalues not converged
     c_bands:  1 eigenvalues not converged
     c_bands:  2 eigenvalues not converged
     c_bands:  1 eigenvalues not converged
     c_bands:  1 eigenvalues not converged
     c_bands:  1 eigenvalues not converged
     c_bands:  2 eigenvalues not converged
     c_bands:  1 eigenvalues not converged
     c_bands:  1 eigenvalues not converged
     c_bands:  1 eigenvalues not converged
     c_bands:  1 eigenvalues not converged
     c_bands:  1 eigenvalues not converged
     c_bands:  1 eigenvalues not converged
     c_bands:  1 eigenvalues not converged
     c_bands:  1 eigenvalues not converged
     c_bands:  1 eigenvalues not converged
     c_bands:  2 eigenvalues not converged
     c_bands:  1 eigenvalues not converged
     c_bands:  1 eigenvalues not converged
     c_bands:  1 eigenvalues not converged
     c_bands:  1 eigenvalues not converged
     c_bands:  1 eigenvalues not converged
     c_bands:  1 eigenvalues not converged
     c_bands:  1 eigenvalues not converged
     c_bands:  1 eigenvalues not converged
     c_bands:  1 eigenvalues not converged
     c_bands:  1 eigenvalues not converged
     c_bands:  1 eigenvalues not converged
     c_bands:  1 eigenvalues not converged
     c_bands:  2 eigenvalues not converged
     c_bands:  1 eigenvalues not converged
     c_bands:  2 eigenvalues not converged
     c_bands:  1 eigenvalues not converged
     c_bands:  1 eigenvalues not converged
     c_bands:  1 eigenvalues not converged
     c_bands:  1 eigenvalues not converged
     c_bands:  1 eigenvalues not converged
     c_bands:  1 eigenvalues not converged
     c_bands:  1 eigenvalues not converged
     c_bands:  1 eigenvalues not converged
     c_bands:  1 eigenvalues not converged
     c_bands:  3 eigenvalues not converged
     c_bands:  3 eigenvalues not converged
     c_bands:  1 eigenvalues not converged
     c_bands:  3 eigenvalues not converged
     c_bands:  2 eigenvalues not converged
     c_bands:  1 eigenvalues not converged
     c_bands:  2 eigenvalues not converged
     c_bands:  2 eigenvalues not converged
     c_bands:  3 eigenvalues not converged
     c_bands:  2 eigenvalues not converged
     c_bands:  2 eigenvalues not converged
     c_bands:  1 eigenvalues not converged
     c_bands:  3 eigenvalues not converged
     c_bands:  2 eigenvalues not converged
     c_bands:  1 eigenvalues not converged
     c_bands:  1 eigenvalues not converged
     c_bands:  1 eigenvalues not converged
     c_bands:  1 eigenvalues not converged
     c_bands:  1 eigenvalues not converged
     c_bands:  1 eigenvalues not converged
     c_bands:  2 eigenvalues not converged
     c_bands:  1 eigenvalues not converged
     c_bands:  1 eigenvalues not converged
     c_bands:  1 eigenvalues not converged
     c_bands:  1 eigenvalues not converged
     c_bands:  1 eigenvalues not converged
     c_bands:  1 eigenvalues not converged
     c_bands:  1 eigenvalues not converged
     c_bands:  1 eigenvalues not converged
     c_bands:  1 eigenvalues not converged
     c_bands:  1 eigenvalues not converged
     c_bands:  1 eigenvalues not converged
     c_bands:  1 eigenvalues not converged
     c_bands:  1 eigenvalues not converged
     c_bands:  1 eigenvalues not converged
     c_bands:  1 eigenvalues not converged
     c_bands:  1 eigenvalues not converged
     c_bands:  1 eigenvalues not converged
     c_bands:  1 eigenvalues not converged
     c_bands:  1 eigenvalues not converged
     c_bands:  1 eigenvalues not converged
     c_bands:  1 eigenvalues not converged
     c_bands:  2 eigenvalues not converged
     c_bands:  2 eigenvalues not converged
     c_bands:  2 eigenvalues not converged
     c_bands:  2 eigenvalues not converged
     c_bands:  1 eigenvalues not converged
     c_bands:  2 eigenvalues not converged
     c_bands:  3 eigenvalues not converged
     c_bands:  2 eigenvalues not converged
     c_bands:  3 eigenvalues not converged
     c_bands:  1 eigenvalues not converged
     c_bands:  1 eigenvalues not converged
     c_bands:  2 eigenvalues not converged
     c_bands:  3 eigenvalues not converged
     c_bands:  3 eigenvalues not converged
     c_bands:  1 eigenvalues not converged
     c_bands:  2 eigenvalues not converged
     c_bands:  1 eigenvalues not converged
     c_bands:  1 eigenvalues not converged
     c_bands:  1 eigenvalues not converged
     c_bands:  1 eigenvalues not converged
     c_bands:  1 eigenvalues not converged
     c_bands:  1 eigenvalues not converged
     c_bands:  1 eigenvalues not converged
     c_bands:  1 eigenvalues not converged
     c_bands:  1 eigenvalues not converged
     c_bands:  1 eigenvalues not converged
     c_bands:  1 eigenvalues not converged
     c_bands:  2 eigenvalues not converged
     c_bands:  2 eigenvalues not converged
     c_bands:  2 eigenvalues not converged
     c_bands:  2 eigenvalues not converged
     c_bands:  2 eigenvalues not converged
     c_bands:  1 eigenvalues not converged
     c_bands:  1 eigenvalues not converged
     c_bands:  1 eigenvalues not converged
     c_bands:  1 eigenvalues not converged
     c_bands:  1 eigenvalues not converged
     c_bands:  1 eigenvalues not converged
     ethr =  1.00E-06,  avg # of iterations = 17.6

     total cpu time spent up to now is    65349.3 secs

     total energy              =    -698.52331594 Ry
     Harris-Foulkes estimate   =    -704.17166184 Ry
     estimated scf accuracy    <       7.36983464 Ry

     iteration #  2     ecut=    50.00 Ry     beta= 0.60
     Davidson diagonalization with overlap
     ethr =  9.96E-03,  avg # of iterations =  4.4

     total cpu time spent up to now is    65438.7 secs

     total energy              =    -697.46834682 Ry
     Harris-Foulkes estimate   =    -710.69134400 Ry
     estimated scf accuracy    <      45.40310311 Ry

     iteration #  3     ecut=    50.00 Ry     beta= 0.60
     Davidson diagonalization with overlap
     ethr =  9.96E-03,  avg # of iterations =  5.0

     total cpu time spent up to now is    65522.6 secs

     total energy              =    -702.35190346 Ry
     Harris-Foulkes estimate   =    -702.46602176 Ry
     estimated scf accuracy    <       0.36251045 Ry

     iteration #  4     ecut=    50.00 Ry     beta= 0.60
     Davidson diagonalization with overlap
     ethr =  4.90E-04,  avg # of iterations =  6.7

     total cpu time spent up to now is    65619.5 secs

     total energy              =    -702.40079059 Ry
     Harris-Foulkes estimate   =    -702.47598344 Ry
     estimated scf accuracy    <       0.24004272 Ry

     iteration #  5     ecut=    50.00 Ry     beta= 0.60
     Davidson diagonalization with overlap
     ethr =  3.24E-04,  avg # of iterations =  5.2

     total cpu time spent up to now is    65700.6 secs

     total energy              =    -702.40072504 Ry
     Harris-Foulkes estimate   =    -702.51005083 Ry
     estimated scf accuracy    <       0.80969804 Ry

     iteration #  6     ecut=    50.00 Ry     beta= 0.60
     Davidson diagonalization with overlap
     ethr =  3.24E-04,  avg # of iterations =  3.9

     total cpu time spent up to now is    65763.2 secs

     total energy              =    -702.44544828 Ry
     Harris-Foulkes estimate   =    -702.45085894 Ry
     estimated scf accuracy    <       0.02005344 Ry

     iteration #  7     ecut=    50.00 Ry     beta= 0.60
     Davidson diagonalization with overlap
     ethr =  2.71E-05,  avg # of iterations =  6.4

     total cpu time spent up to now is    65861.7 secs

     total energy              =    -702.45523956 Ry
     Harris-Foulkes estimate   =    -702.45951029 Ry
     estimated scf accuracy    <       0.02740775 Ry

     iteration #  8     ecut=    50.00 Ry     beta= 0.60
     Davidson diagonalization with overlap
     ethr =  2.71E-05,  avg # of iterations =  2.4

     total cpu time spent up to now is    65917.4 secs

     total energy              =    -702.45639450 Ry
     Harris-Foulkes estimate   =    -702.45704470 Ry
     estimated scf accuracy    <       0.00404653 Ry

     iteration #  9     ecut=    50.00 Ry     beta= 0.60
     Davidson diagonalization with overlap
     ethr =  5.47E-06,  avg # of iterations =  5.5

     total cpu time spent up to now is    66003.4 secs

     total energy              =    -702.45726374 Ry
     Harris-Foulkes estimate   =    -702.45761217 Ry
     estimated scf accuracy    <       0.00338345 Ry

     iteration # 10     ecut=    50.00 Ry     beta= 0.60
     Davidson diagonalization with overlap
     ethr =  4.57E-06,  avg # of iterations =  1.0

     total cpu time spent up to now is    66055.1 secs

     total energy              =    -702.45718474 Ry
     Harris-Foulkes estimate   =    -702.45742383 Ry
     estimated scf accuracy    <       0.00171824 Ry

     iteration # 11     ecut=    50.00 Ry     beta= 0.60
     Davidson diagonalization with overlap
     c_bands:  1 eigenvalues not converged
     ethr =  2.32E-06,  avg # of iterations =  3.0

     total cpu time spent up to now is    66116.9 secs

     total energy              =    -702.45730311 Ry
     Harris-Foulkes estimate   =    -702.45733659 Ry
     estimated scf accuracy    <       0.00024603 Ry

     iteration # 12     ecut=    50.00 Ry     beta= 0.60
     Davidson diagonalization with overlap
     c_bands:  1 eigenvalues not converged
     ethr =  3.32E-07,  avg # of iterations =  4.2

     total cpu time spent up to now is    66190.5 secs

     total energy              =    -702.45731769 Ry
     Harris-Foulkes estimate   =    -702.45735203 Ry
     estimated scf accuracy    <       0.00024917 Ry

     iteration # 13     ecut=    50.00 Ry     beta= 0.60
     Davidson diagonalization with overlap
     c_bands:  1 eigenvalues not converged
     ethr =  3.32E-07,  avg # of iterations =  1.1

     total cpu time spent up to now is    66242.5 secs

     total energy              =    -702.45732734 Ry
     Harris-Foulkes estimate   =    -702.45733263 Ry
     estimated scf accuracy    <       0.00003054 Ry

     iteration # 14     ecut=    50.00 Ry     beta= 0.60
     Davidson diagonalization with overlap
     ethr =  4.13E-08,  avg # of iterations =  4.2

     total cpu time spent up to now is    66318.1 secs

     total energy              =    -702.45733315 Ry
     Harris-Foulkes estimate   =    -702.45733660 Ry
     estimated scf accuracy    <       0.00001498 Ry

     iteration # 15     ecut=    50.00 Ry     beta= 0.60
     Davidson diagonalization with overlap
     ethr =  2.02E-08,  avg # of iterations =  3.0

     total cpu time spent up to now is    66383.0 secs

     total energy              =    -702.45733490 Ry
     Harris-Foulkes estimate   =    -702.45733565 Ry
     estimated scf accuracy    <       0.00000390 Ry

     iteration # 16     ecut=    50.00 Ry     beta= 0.60
     Davidson diagonalization with overlap
     ethr =  5.28E-09,  avg # of iterations =  2.2

     total cpu time spent up to now is    66443.0 secs

     total energy              =    -702.45733523 Ry
     Harris-Foulkes estimate   =    -702.45733532 Ry
     estimated scf accuracy    <       0.00000038 Ry

     iteration # 17     ecut=    50.00 Ry     beta= 0.60
     Davidson diagonalization with overlap
     ethr =  5.08E-10,  avg # of iterations =  4.2

     total cpu time spent up to now is    66520.8 secs

     total energy              =    -702.45733533 Ry
     Harris-Foulkes estimate   =    -702.45733535 Ry
     estimated scf accuracy    <       0.00000017 Ry

     iteration # 18     ecut=    50.00 Ry     beta= 0.60
     Davidson diagonalization with overlap
     ethr =  2.31E-10,  avg # of iterations =  1.8

     total cpu time spent up to now is    66574.9 secs

     total energy              =    -702.45733533 Ry
     Harris-Foulkes estimate   =    -702.45733534 Ry
     estimated scf accuracy    <       0.00000004 Ry

     iteration # 19     ecut=    50.00 Ry     beta= 0.60
     Davidson diagonalization with overlap
     ethr =  5.24E-11,  avg # of iterations =  4.0

     total cpu time spent up to now is    66647.7 secs

     total energy              =    -702.45733534 Ry
     Harris-Foulkes estimate   =    -702.45733534 Ry
     estimated scf accuracy    <       0.00000001 Ry

     iteration # 20     ecut=    50.00 Ry     beta= 0.60
     Davidson diagonalization with overlap
     ethr =  1.40E-11,  avg # of iterations =  2.6

     total cpu time spent up to now is    66703.9 secs

     total energy              =    -702.45733534 Ry
     Harris-Foulkes estimate   =    -702.45733534 Ry
     estimated scf accuracy    <          1.7E-09 Ry

     iteration # 21     ecut=    50.00 Ry     beta= 0.60
     Davidson diagonalization with overlap
     ethr =  2.25E-12,  avg # of iterations =  4.1

     total cpu time spent up to now is    66780.7 secs

     total energy              =    -702.45733534 Ry
     Harris-Foulkes estimate   =    -702.45733534 Ry
     estimated scf accuracy    <          1.5E-09 Ry

     iteration # 22     ecut=    50.00 Ry     beta= 0.60
     Davidson diagonalization with overlap
     ethr =  1.97E-12,  avg # of iterations =  1.0

     total cpu time spent up to now is    66832.8 secs

     total energy              =    -702.45733534 Ry
     Harris-Foulkes estimate   =    -702.45733534 Ry
     estimated scf accuracy    <          3.4E-10 Ry

     iteration # 23     ecut=    50.00 Ry     beta= 0.60
     Davidson diagonalization with overlap
     ethr =  4.59E-13,  avg # of iterations =  4.1

     total cpu time spent up to now is    66906.5 secs

     total energy              =    -702.45733534 Ry
     Harris-Foulkes estimate   =    -702.45733534 Ry
     estimated scf accuracy    <          2.2E-10 Ry

     iteration # 24     ecut=    50.00 Ry     beta= 0.60
     Davidson diagonalization with overlap
     ethr =  2.92E-13,  avg # of iterations =  1.0

     total cpu time spent up to now is    66958.0 secs

     total energy              =    -702.45733534 Ry
     Harris-Foulkes estimate   =    -702.45733534 Ry
     estimated scf accuracy    <          3.6E-11 Ry

     iteration # 25     ecut=    50.00 Ry     beta= 0.60
     Davidson diagonalization with overlap
     ethr =  1.00E-13,  avg # of iterations =  3.8

     total cpu time spent up to now is    67024.8 secs

     total energy              =    -702.45733534 Ry
     Harris-Foulkes estimate   =    -702.45733534 Ry
     estimated scf accuracy    <          1.1E-11 Ry

     iteration # 26     ecut=    50.00 Ry     beta= 0.60
     Davidson diagonalization with overlap
     ethr =  1.00E-13,  avg # of iterations =  1.0

     total cpu time spent up to now is    67076.8 secs

     total energy              =    -702.45733534 Ry
     Harris-Foulkes estimate   =    -702.45733534 Ry
     estimated scf accuracy    <          1.1E-12 Ry

     iteration # 27     ecut=    50.00 Ry     beta= 0.60
     Davidson diagonalization with overlap
     ethr =  1.00E-13,  avg # of iterations =  1.0

     total cpu time spent up to now is    67129.0 secs

     End of self-consistent calculation

     Number of k-points >= 100: set verbosity='high' to print the bands.

     the Fermi energy is    14.8985 ev

!    total energy              =    -702.45733534 Ry
     Harris-Foulkes estimate   =    -702.45733534 Ry
     estimated scf accuracy    <          5.5E-13 Ry

     The total energy is the sum of the following terms:

     one-electron contribution =    -197.28416547 Ry
     hartree contribution      =     127.66440061 Ry
     xc contribution           =     -95.06544596 Ry
     ewald contribution        =    -537.77391032 Ry
     smearing contrib. (-TS)   =       0.00178580 Ry

     convergence has been achieved in  27 iterations

     Forces acting on atoms (cartesian axes, Ry/au):

     atom    1 type  2   force =    -0.00000957   -0.00000678    0.00000678
     atom    2 type  2   force =     0.00001060    0.00000517   -0.00000517
     atom    3 type  2   force =    -0.00001459    0.00001594   -0.00001594
     atom    4 type  2   force =     0.00001378   -0.00001389    0.00001389
     atom    5 type  1   force =     0.00000318   -0.00000167    0.00000167
     atom    6 type  1   force =    -0.00000340    0.00000123   -0.00000123

     Total force =     0.000041     Total SCF correction =     0.000001


     Computing stress (Cartesian axis) and pressure

          total   stress  (Ry/bohr**3)                   (kbar)     P=   -0.45
  -0.00000235  -0.00000041   0.00000041         -0.35     -0.06      0.06
  -0.00000041  -0.00000340  -0.00000011         -0.06     -0.50     -0.02
   0.00000041  -0.00000011  -0.00000340          0.06     -0.02     -0.50

 
     init_run     :     68.78s CPU     70.76s WALL (       2 calls)
     electrons    :  63017.78s CPU  65863.21s WALL (      38 calls)
     update_pot   :     78.64s CPU     78.98s WALL (      36 calls)
     forces       :    268.05s CPU    274.17s WALL (      38 calls)
     stress       :    824.23s CPU    841.38s WALL (      38 calls)

     Called by init_run:
     wfcinit      :     65.39s CPU     66.44s WALL (       2 calls)
     potinit      :      1.05s CPU      1.10s WALL (       2 calls)
     hinit0       :      1.85s CPU      2.48s WALL (       2 calls)

     Called by electrons:
     c_bands      :  53721.08s CPU  56243.45s WALL (     728 calls)
     sum_band     :   9025.56s CPU   9212.23s WALL (     728 calls)
     v_of_rho     :     52.04s CPU     52.53s WALL (     748 calls)
     newd         :    222.91s CPU    325.37s WALL (     748 calls)
     mix_rho      :      6.08s CPU      6.12s WALL (     728 calls)

     Called by c_bands:
     init_us_2    :    656.28s CPU    659.44s WALL (  730184 calls)
     cegterg      :  49395.42s CPU  49936.19s WALL (  346528 calls)

     Called by sum_band:
     sum_band:bec :     13.92s CPU     14.36s WALL (  346528 calls)
     addusdens    :    256.28s CPU    352.27s WALL (     728 calls)

     Called by *egterg:
     h_psi        :  36988.32s CPU  37480.13s WALL ( 1452813 calls)
     s_psi        :   1428.16s CPU   1430.36s WALL ( 1452813 calls)
     g_psi        :    254.09s CPU    254.33s WALL ( 1105333 calls)
     cdiaghg      :   5459.88s CPU   5473.09s WALL ( 1426157 calls)

     Called by h_psi:
     h_psi:pot    :  36874.96s CPU  37364.57s WALL ( 1452813 calls)
     h_psi:calbec :   1567.34s CPU   1571.61s WALL ( 1452813 calls)
     vloc_psi     :  33862.12s CPU  34336.66s WALL ( 1452813 calls)
     add_vuspsi   :   1439.63s CPU   1448.18s WALL ( 1452813 calls)

     General routines
     calbec       :   2265.62s CPU   2270.89s WALL ( 1889781 calls)
     fft          :     33.76s CPU     34.90s WALL (   10690 calls)
     ffts         :      1.21s CPU      1.22s WALL (    1476 calls)
     fftw         :  37626.42s CPU  38106.32s WALL (93381182 calls)
     interpolate  :      3.07s CPU      3.09s WALL (     748 calls)
 
     Parallel routines
     fft_scatt_xy :   6643.69s CPU   6702.44s WALL (93393348 calls)
     fft_scatt_yz :   9133.19s CPU   9134.78s WALL (93393348 calls)
 
     PWSCF        :    17h51m CPU       51h18m WALL

      39h
 
   This run was terminated on:   3:47:53  28Jan2020            

=------------------------------------------------------------------------------=
   JOB DONE.
=------------------------------------------------------------------------------=
