
     Program PWSCF v.6.3MaX starts on 31Jan2020 at 12:11:38 

     This program is part of the open-source Quantum ESPRESSO suite
     for quantum simulation of materials; please cite
         "P. Giannozzi et al., J. Phys.:Condens. Matter 21 395502 (2009);
         "P. Giannozzi et al., J. Phys.:Condens. Matter 29 465901 (2017);
          URL http://www.quantum-espresso.org", 
     in publications or presentations arising from this work. More details at
     http://www.quantum-espresso.org/quote

     Parallel version (MPI), running on     4 processors

     MPI processes distributed on     1 nodes
     R & G space division:  proc/nbgrp/npool/nimage =       4
     Waiting for input...
     Reading input from standard input

     Current dimensions of program PWSCF are:
     Max number of different atomic species (ntypx) = 10
     Max number of k-points (npk) =  40000
     Max angular momentum in pseudopotentials (lmaxx) =  3
     Message from routine iosys:
     minimal I/O required, wf_collect reset to FALSE

     Subspace diagonalization in iterative solution of the eigenvalue problem:
     a serial algorithm will be used

 
     Parallelization info
     --------------------
     sticks:   dense  smooth     PW     G-vecs:    dense   smooth      PW
     Min         431     171     53                36427     9205    1551
     Max         432     172     54                36434     9212    1556
     Sum        1727     687    213               145721    36835    6213
 


     bravais-lattice index     =            0
     lattice parameter (alat)  =       1.8897  a.u.
     unit-cell volume          =    1077.7903 (a.u.)^3
     number of atoms/cell      =            8
     number of atomic types    =            2
     number of electrons       =       100.00
     number of Kohn-Sham states=           60
     kinetic-energy cutoff     =      40.0000  Ry
     charge density cutoff     =     400.0000  Ry
     convergence threshold     =      1.0E-10
     mixing beta               =       0.6000
     number of iterations used =            8  plain     mixing
     Exchange-correlation      = SLA PW PBE PBE ( 1  4  3  4 0 0)
     nstep                     =           50


     celldm(1)=   1.889726  celldm(2)=   0.000000  celldm(3)=   0.000000
     celldm(4)=   0.000000  celldm(5)=   0.000000  celldm(6)=   0.000000

     crystal axes: (cart. coord. in units of alat)
               a(1) = (   1.522502  -2.637051   0.000000 )  
               a(2) = (   0.000000   0.000000  -4.972461 )  
               a(3) = (   9.135012   5.274102   0.000000 )  

     reciprocal axes: (cart. coord. in units 2 pi/alat)
               b(1) = (  0.164203 -0.284409  0.000000 )  
               b(2) = (  0.000000  0.000000 -0.201108 )  
               b(3) = (  0.082102  0.047401  0.000000 )  


     PseudoPot. # 1 for Nb read from file:
     ./Nb.pbe-nsp-van.UPF
     MD5 check sum: 0a22fc7fb0ba19a08ca5db297a5d2854
     Pseudo is Ultrasoft + core correction, Zval = 13.0
     Generated by new atomic code, or converted to UPF format
     Using radial grid of  887 points,  6 beta functions with: 
                l(1) =   0
                l(2) =   0
                l(3) =   1
                l(4) =   1
                l(5) =   2
                l(6) =   2
     Q(r) pseudized with  6 coefficients,  rinner =    1.000   1.000   1.000
                                                       1.000   1.000

     PseudoPot. # 2 for Ti read from file:
     ./Ti.pbe-sp-van_ak.UPF
     MD5 check sum: f98fea3e8887528921fefa5636a534ca
     Pseudo is Ultrasoft, Zval = 12.0
     Generated by new atomic code, or converted to UPF format
     Using radial grid of  851 points,  6 beta functions with: 
                l(1) =   0
                l(2) =   0
                l(3) =   1
                l(4) =   1
                l(5) =   2
                l(6) =   2
     Q(r) pseudized with  8 coefficients,  rinner =    1.000   1.000   1.000
                                                       1.000   1.000

     atomic species   valence    mass     pseudopotential
        Nb            13.00    92.90638     Nb( 1.00)
        Ti            12.00    47.86700     Ti( 1.00)

      4 Sym. Ops. (no inversion) found
          (note:  4 additional sym.ops. were found but ignored
           their fractional translations are incommensurate with FFT grid)


   Cartesian axes

     site n.     atom                  positions (alat units)
         1           Nb  tau(   1) = (   3.0450042   0.0000000  -4.9724614  )
         2           Ti  tau(   2) = (   3.0450058  -1.7580350  -2.4862307  )
         3           Nb  tau(   3) = (   6.0900085   0.0000000  -4.9724614  )
         4           Ti  tau(   4) = (   4.5675079   0.8790162  -2.4862307  )
         5           Ti  tau(   5) = (   7.6125106   2.6370512  -4.9724614  )
         6           Nb  tau(   6) = (   7.6125121   0.8790162  -2.4862307  )
         7           Ti  tau(   7) = (  10.6575148   2.6370512  -4.9724614  )
         8           Nb  tau(   8) = (   9.1350142   3.5160674  -2.4862307  )

     number of k points=   240  Marzari-Vanderbilt smearing, width (Ry)=  0.0200

     Number of k-points >= 100: set verbosity='high' to print them.

     Dense  grid:   145721 G-vectors     FFT dimensions: (  40,  60, 128)

     Smooth grid:    36835 G-vectors     FFT dimensions: (  24,  40,  81)

     Estimated max dynamical RAM per process >     395.70 MB

     Estimated total dynamical RAM >       1.55 GB

     Initial potential from superposition of free atoms

     starting charge   95.98889, renormalised to  100.00000
     Starting wfcs are   92 randomized atomic wfcs

     total cpu time spent up to now is       20.2 secs

     Self-consistent Calculation

     iteration #  1     ecut=    40.00 Ry     beta= 0.60
     Davidson diagonalization with overlap
     ethr =  1.00E-02,  avg # of iterations =  3.0

     total cpu time spent up to now is       62.6 secs

     total energy              =    -845.80054808 Ry
     Harris-Foulkes estimate   =    -944.76831235 Ry
     estimated scf accuracy    <     120.71175309 Ry

     iteration #  2     ecut=    40.00 Ry     beta= 0.60
     Davidson diagonalization with overlap
     ethr =  1.00E-02,  avg # of iterations = 10.1

     total cpu time spent up to now is      179.1 secs

     total energy              =    -849.88780151 Ry
     Harris-Foulkes estimate   =   -1247.12219953 Ry
     estimated scf accuracy    <    1867.15024712 Ry

     iteration #  3     ecut=    40.00 Ry     beta= 0.60
     Davidson diagonalization with overlap
     ethr =  1.00E-02,  avg # of iterations =  8.3

     total cpu time spent up to now is      282.2 secs

     total energy              =    -936.53838047 Ry
     Harris-Foulkes estimate   =    -967.29632433 Ry
     estimated scf accuracy    <     108.83255826 Ry

     iteration #  4     ecut=    40.00 Ry     beta= 0.60
     Davidson diagonalization with overlap
     ethr =  1.00E-02,  avg # of iterations =  5.1

     total cpu time spent up to now is      338.4 secs

     total energy              =    -948.34542889 Ry
     Harris-Foulkes estimate   =    -950.41668904 Ry
     estimated scf accuracy    <     133.42529329 Ry

     iteration #  5     ecut=    40.00 Ry     beta= 0.60
     Davidson diagonalization with overlap
     ethr =  1.00E-02,  avg # of iterations =  1.1

     total cpu time spent up to now is      368.9 secs

     total energy              =    -943.79585944 Ry
     Harris-Foulkes estimate   =    -948.46805157 Ry
     estimated scf accuracy    <     123.79913488 Ry

     iteration #  6     ecut=    40.00 Ry     beta= 0.60
     Davidson diagonalization with overlap
     ethr =  1.00E-02,  avg # of iterations =  1.2

     total cpu time spent up to now is      399.6 secs

     total energy              =    -943.39712809 Ry
     Harris-Foulkes estimate   =    -944.26198760 Ry
     estimated scf accuracy    <      81.21562953 Ry

     iteration #  7     ecut=    40.00 Ry     beta= 0.60
     Davidson diagonalization with overlap
     ethr =  1.00E-02,  avg # of iterations =  1.0

     total cpu time spent up to now is      429.9 secs

     total energy              =    -942.83895598 Ry
     Harris-Foulkes estimate   =    -943.46622283 Ry
     estimated scf accuracy    <      71.34611528 Ry

     iteration #  8     ecut=    40.00 Ry     beta= 0.60
     Davidson diagonalization with overlap
     ethr =  1.00E-02,  avg # of iterations =  1.0

     total cpu time spent up to now is      460.3 secs

     total energy              =    -939.84006316 Ry
     Harris-Foulkes estimate   =    -942.89947773 Ry
     estimated scf accuracy    <      62.75116073 Ry

     iteration #  9     ecut=    40.00 Ry     beta= 0.60
     Davidson diagonalization with overlap
     ethr =  1.00E-02,  avg # of iterations =  1.6

     total cpu time spent up to now is      491.7 secs

     total energy              =    -938.97179513 Ry
     Harris-Foulkes estimate   =    -940.10307756 Ry
     estimated scf accuracy    <      49.08042043 Ry

     iteration # 10     ecut=    40.00 Ry     beta= 0.60
     Davidson diagonalization with overlap
     ethr =  1.00E-02,  avg # of iterations =  1.5

     total cpu time spent up to now is      523.0 secs

     total energy              =    -930.24209726 Ry
     Harris-Foulkes estimate   =    -939.19558061 Ry
     estimated scf accuracy    <      34.31245816 Ry

     iteration # 11     ecut=    40.00 Ry     beta= 0.60
     Davidson diagonalization with overlap
     ethr =  1.00E-02,  avg # of iterations =  5.3

     total cpu time spent up to now is      589.0 secs

     total energy              =    -932.66961587 Ry
     Harris-Foulkes estimate   =    -957.24346063 Ry
     estimated scf accuracy    <     279.38214833 Ry

     iteration # 12     ecut=    40.00 Ry     beta= 0.60
     Davidson diagonalization with overlap
     ethr =  1.00E-02,  avg # of iterations =  4.4

     total cpu time spent up to now is      637.1 secs

     total energy              =    -937.95918878 Ry
     Harris-Foulkes estimate   =    -938.82989693 Ry
     estimated scf accuracy    <      26.10331356 Ry

     iteration # 13     ecut=    40.00 Ry     beta= 0.60
     Davidson diagonalization with overlap
     ethr =  1.00E-02,  avg # of iterations =  1.8

     total cpu time spent up to now is      669.2 secs

     total energy              =    -938.31507593 Ry
     Harris-Foulkes estimate   =    -938.40572755 Ry
     estimated scf accuracy    <       8.57807397 Ry

     iteration # 14     ecut=    40.00 Ry     beta= 0.60
     Davidson diagonalization with overlap
     ethr =  8.58E-03,  avg # of iterations =  1.2

     total cpu time spent up to now is      699.8 secs

     total energy              =    -937.80829264 Ry
     Harris-Foulkes estimate   =    -938.46913833 Ry
     estimated scf accuracy    <      10.97742237 Ry

     iteration # 15     ecut=    40.00 Ry     beta= 0.60
     Davidson diagonalization with overlap
     ethr =  8.58E-03,  avg # of iterations =  5.3

     total cpu time spent up to now is      743.6 secs

     total energy              =    -939.73693413 Ry
     Harris-Foulkes estimate   =    -939.31649649 Ry
     estimated scf accuracy    <       7.34448999 Ry

     iteration # 16     ecut=    40.00 Ry     beta= 0.60
     Davidson diagonalization with overlap
     ethr =  7.34E-03,  avg # of iterations =  3.2

     total cpu time spent up to now is      779.5 secs

     total energy              =    -938.99824736 Ry
     Harris-Foulkes estimate   =    -939.90955017 Ry
     estimated scf accuracy    <      11.49603879 Ry

     iteration # 17     ecut=    40.00 Ry     beta= 0.60
     Davidson diagonalization with overlap
     ethr =  7.34E-03,  avg # of iterations =  1.4

     total cpu time spent up to now is      810.7 secs

     total energy              =    -939.04877089 Ry
     Harris-Foulkes estimate   =    -939.19969509 Ry
     estimated scf accuracy    <       7.20653489 Ry

     iteration # 18     ecut=    40.00 Ry     beta= 0.60
     Davidson diagonalization with overlap
     ethr =  7.21E-03,  avg # of iterations =  1.3

     total cpu time spent up to now is      841.6 secs

     total energy              =    -938.60259666 Ry
     Harris-Foulkes estimate   =    -939.27393872 Ry
     estimated scf accuracy    <       9.99438032 Ry

     iteration # 19     ecut=    40.00 Ry     beta= 0.60
     Davidson diagonalization with overlap
     ethr =  7.21E-03,  avg # of iterations =  1.0

     total cpu time spent up to now is      871.9 secs

     total energy              =    -938.91344769 Ry
     Harris-Foulkes estimate   =    -938.84716113 Ry
     estimated scf accuracy    <       4.99550417 Ry

     iteration # 20     ecut=    40.00 Ry     beta= 0.60
     Davidson diagonalization with overlap
     ethr =  5.00E-03,  avg # of iterations =  2.1

     total cpu time spent up to now is      904.4 secs

     total energy              =    -939.10543201 Ry
     Harris-Foulkes estimate   =    -939.19040053 Ry
     estimated scf accuracy    <       6.88894958 Ry

     iteration # 21     ecut=    40.00 Ry     beta= 0.60
     Davidson diagonalization with overlap
     ethr =  5.00E-03,  avg # of iterations =  1.3

     total cpu time spent up to now is      935.0 secs

     total energy              =    -938.45841073 Ry
     Harris-Foulkes estimate   =    -939.31693793 Ry
     estimated scf accuracy    <       6.77422459 Ry

     iteration # 22     ecut=    40.00 Ry     beta= 0.60
     Davidson diagonalization with overlap
     ethr =  5.00E-03,  avg # of iterations =  1.0

     total cpu time spent up to now is      965.2 secs

     total energy              =    -937.90785220 Ry
     Harris-Foulkes estimate   =    -938.56673723 Ry
     estimated scf accuracy    <       5.42575940 Ry

     iteration # 23     ecut=    40.00 Ry     beta= 0.60
     Davidson diagonalization with overlap
     ethr =  5.00E-03,  avg # of iterations =  3.2

     total cpu time spent up to now is     1003.2 secs

     total energy              =    -936.74521319 Ry
     Harris-Foulkes estimate   =    -938.54750035 Ry
     estimated scf accuracy    <       9.84579268 Ry

     iteration # 24     ecut=    40.00 Ry     beta= 0.60
     Davidson diagonalization with overlap
     ethr =  5.00E-03,  avg # of iterations =  5.5

     total cpu time spent up to now is     1065.2 secs

     total energy              =    -934.36262973 Ry
     Harris-Foulkes estimate   =    -942.78710081 Ry
     estimated scf accuracy    <     127.08662690 Ry

     iteration # 25     ecut=    40.00 Ry     beta= 0.60
     Davidson diagonalization with overlap
     ethr =  5.00E-03,  avg # of iterations =  5.5

     total cpu time spent up to now is     1114.3 secs

     total energy              =    -938.17022574 Ry
     Harris-Foulkes estimate   =    -938.21336843 Ry
     estimated scf accuracy    <       0.38872493 Ry

     iteration # 26     ecut=    40.00 Ry     beta= 0.60
     Davidson diagonalization with overlap
     ethr =  3.89E-04,  avg # of iterations =  7.0

     total cpu time spent up to now is     1172.6 secs

     total energy              =    -938.18816677 Ry
     Harris-Foulkes estimate   =    -938.23659460 Ry
     estimated scf accuracy    <       0.60902535 Ry

     iteration # 27     ecut=    40.00 Ry     beta= 0.60
     Davidson diagonalization with overlap
     ethr =  3.89E-04,  avg # of iterations =  1.2

     total cpu time spent up to now is     1203.1 secs

     total energy              =    -938.18646364 Ry
     Harris-Foulkes estimate   =    -938.20383194 Ry
     estimated scf accuracy    <       0.18556836 Ry

     iteration # 28     ecut=    40.00 Ry     beta= 0.60
     Davidson diagonalization with overlap
     ethr =  1.86E-04,  avg # of iterations =  3.8

     total cpu time spent up to now is     1242.3 secs

     total energy              =    -938.18297099 Ry
     Harris-Foulkes estimate   =    -938.20932811 Ry
     estimated scf accuracy    <       0.37271515 Ry

     iteration # 29     ecut=    40.00 Ry     beta= 0.60
     Davidson diagonalization with overlap
     ethr =  1.86E-04,  avg # of iterations =  1.6

     total cpu time spent up to now is     1273.7 secs

     total energy              =    -938.19052813 Ry
     Harris-Foulkes estimate   =    -938.19732937 Ry
     estimated scf accuracy    <       0.08096569 Ry

     iteration # 30     ecut=    40.00 Ry     beta= 0.60
     Davidson diagonalization with overlap
     ethr =  8.10E-05,  avg # of iterations =  3.0

     total cpu time spent up to now is     1308.8 secs

     total energy              =    -938.19040685 Ry
     Harris-Foulkes estimate   =    -938.19595039 Ry
     estimated scf accuracy    <       0.03580044 Ry

     iteration # 31     ecut=    40.00 Ry     beta= 0.60
     Davidson diagonalization with overlap
     c_bands:  1 eigenvalues not converged
     ethr =  3.58E-05,  avg # of iterations =  5.2

     total cpu time spent up to now is     1353.6 secs

     total energy              =    -938.19430929 Ry
     Harris-Foulkes estimate   =    -938.19506690 Ry
     estimated scf accuracy    <       0.00778340 Ry

     iteration # 32     ecut=    40.00 Ry     beta= 0.60
     Davidson diagonalization with overlap
     c_bands:  1 eigenvalues not converged
     c_bands:  2 eigenvalues not converged
     c_bands:  1 eigenvalues not converged
     c_bands:  1 eigenvalues not converged
     ethr =  7.78E-06,  avg # of iterations =  6.6

     total cpu time spent up to now is     1406.1 secs

     total energy              =    -938.19447201 Ry
     Harris-Foulkes estimate   =    -938.19524059 Ry
     estimated scf accuracy    <       0.00991969 Ry

     iteration # 33     ecut=    40.00 Ry     beta= 0.60
     Davidson diagonalization with overlap
     ethr =  7.78E-06,  avg # of iterations =  1.1

     total cpu time spent up to now is     1436.5 secs

     total energy              =    -938.19418427 Ry
     Harris-Foulkes estimate   =    -938.19493554 Ry
     estimated scf accuracy    <       0.00573190 Ry

     iteration # 34     ecut=    40.00 Ry     beta= 0.60
     Davidson diagonalization with overlap
     ethr =  5.73E-06,  avg # of iterations =  3.3

     total cpu time spent up to now is     1474.2 secs

     total energy              =    -938.19416203 Ry
     Harris-Foulkes estimate   =    -938.19508056 Ry
     estimated scf accuracy    <       0.01048707 Ry

     iteration # 35     ecut=    40.00 Ry     beta= 0.60
     Davidson diagonalization with overlap
     ethr =  5.73E-06,  avg # of iterations =  1.4

     total cpu time spent up to now is     1505.3 secs

     total energy              =    -938.19449052 Ry
     Harris-Foulkes estimate   =    -938.19460524 Ry
     estimated scf accuracy    <       0.00057512 Ry

     iteration # 36     ecut=    40.00 Ry     beta= 0.60
     Davidson diagonalization with overlap
     ethr =  5.75E-07,  avg # of iterations =  5.2

     total cpu time spent up to now is     1558.4 secs

     total energy              =    -938.19441605 Ry
     Harris-Foulkes estimate   =    -938.19485291 Ry
     estimated scf accuracy    <       0.00483196 Ry

     iteration # 37     ecut=    40.00 Ry     beta= 0.60
     Davidson diagonalization with overlap
     ethr =  5.75E-07,  avg # of iterations =  5.1

     total cpu time spent up to now is     1612.1 secs

     total energy              =    -938.19439840 Ry
     Harris-Foulkes estimate   =    -938.19497031 Ry
     estimated scf accuracy    <       0.00483972 Ry

     iteration # 38     ecut=    40.00 Ry     beta= 0.60
     Davidson diagonalization with overlap
     ethr =  5.75E-07,  avg # of iterations =  4.4

     total cpu time spent up to now is     1659.7 secs

     total energy              =    -938.19462179 Ry
     Harris-Foulkes estimate   =    -938.19466323 Ry
     estimated scf accuracy    <       0.00055975 Ry

     iteration # 39     ecut=    40.00 Ry     beta= 0.60
     Davidson diagonalization with overlap
     ethr =  5.60E-07,  avg # of iterations =  1.0

     total cpu time spent up to now is     1689.6 secs

     total energy              =    -938.19463502 Ry
     Harris-Foulkes estimate   =    -938.19464295 Ry
     estimated scf accuracy    <       0.00003944 Ry

     iteration # 40     ecut=    40.00 Ry     beta= 0.60
     Davidson diagonalization with overlap
     ethr =  3.94E-08,  avg # of iterations =  4.7

     total cpu time spent up to now is     1738.0 secs

     total energy              =    -938.19463518 Ry
     Harris-Foulkes estimate   =    -938.19465276 Ry
     estimated scf accuracy    <       0.00015342 Ry

     iteration # 41     ecut=    40.00 Ry     beta= 0.60
     Davidson diagonalization with overlap
     ethr =  3.94E-08,  avg # of iterations =  4.2

     total cpu time spent up to now is     1778.2 secs

     total energy              =    -938.19464326 Ry
     Harris-Foulkes estimate   =    -938.19464421 Ry
     estimated scf accuracy    <       0.00001349 Ry

     iteration # 42     ecut=    40.00 Ry     beta= 0.60
     Davidson diagonalization with overlap
     ethr =  1.35E-08,  avg # of iterations =  3.4

     total cpu time spent up to now is     1816.7 secs

     total energy              =    -938.19464447 Ry
     Harris-Foulkes estimate   =    -938.19464485 Ry
     estimated scf accuracy    <       0.00000298 Ry

     iteration # 43     ecut=    40.00 Ry     beta= 0.60
     Davidson diagonalization with overlap
     ethr =  2.98E-09,  avg # of iterations =  3.5

     total cpu time spent up to now is     1855.2 secs

     total energy              =    -938.19464459 Ry
     Harris-Foulkes estimate   =    -938.19464476 Ry
     estimated scf accuracy    <       0.00000133 Ry

     iteration # 44     ecut=    40.00 Ry     beta= 0.60
     Davidson diagonalization with overlap
     ethr =  1.33E-09,  avg # of iterations =  2.6

     total cpu time spent up to now is     1889.1 secs

     total energy              =    -938.19464466 Ry
     Harris-Foulkes estimate   =    -938.19464472 Ry
     estimated scf accuracy    <       0.00000044 Ry

     iteration # 45     ecut=    40.00 Ry     beta= 0.60
     Davidson diagonalization with overlap
     ethr =  4.40E-10,  avg # of iterations =  4.0

     total cpu time spent up to now is     1933.2 secs

     total energy              =    -938.19464468 Ry
     Harris-Foulkes estimate   =    -938.19464475 Ry
     estimated scf accuracy    <       0.00000036 Ry

     iteration # 46     ecut=    40.00 Ry     beta= 0.60
     Davidson diagonalization with overlap
     ethr =  3.63E-10,  avg # of iterations =  4.3

     total cpu time spent up to now is     1976.9 secs

     total energy              =    -938.19464463 Ry
     Harris-Foulkes estimate   =    -938.19464483 Ry
     estimated scf accuracy    <       0.00000377 Ry

     iteration # 47     ecut=    40.00 Ry     beta= 0.60
     Davidson diagonalization with overlap
     ethr =  3.63E-10,  avg # of iterations =  3.8

     total cpu time spent up to now is     2016.4 secs

     total energy              =    -938.19464471 Ry
     Harris-Foulkes estimate   =    -938.19464474 Ry
     estimated scf accuracy    <       0.00000027 Ry

     iteration # 48     ecut=    40.00 Ry     beta= 0.60
     Davidson diagonalization with overlap
     ethr =  2.67E-10,  avg # of iterations =  1.4

     total cpu time spent up to now is     2047.4 secs

     total energy              =    -938.19464472 Ry
     Harris-Foulkes estimate   =    -938.19464472 Ry
     estimated scf accuracy    <       0.00000003 Ry

     iteration # 49     ecut=    40.00 Ry     beta= 0.60
     Davidson diagonalization with overlap
     ethr =  3.26E-11,  avg # of iterations =  4.6

     total cpu time spent up to now is     2095.4 secs

     total energy              =    -938.19464472 Ry
     Harris-Foulkes estimate   =    -938.19464473 Ry
     estimated scf accuracy    <       0.00000006 Ry

     iteration # 50     ecut=    40.00 Ry     beta= 0.60
     Davidson diagonalization with overlap
     ethr =  3.26E-11,  avg # of iterations =  2.2

     total cpu time spent up to now is     2128.2 secs

     total energy              =    -938.19464473 Ry
     Harris-Foulkes estimate   =    -938.19464473 Ry
     estimated scf accuracy    <          9.7E-09 Ry

     iteration # 51     ecut=    40.00 Ry     beta= 0.60
     Davidson diagonalization with overlap
     ethr =  9.74E-12,  avg # of iterations =  4.2

     total cpu time spent up to now is     2173.7 secs

     total energy              =    -938.19464473 Ry
     Harris-Foulkes estimate   =    -938.19464473 Ry
     estimated scf accuracy    <       0.00000007 Ry

     iteration # 52     ecut=    40.00 Ry     beta= 0.60
     Davidson diagonalization with overlap
     ethr =  9.74E-12,  avg # of iterations =  4.3

     total cpu time spent up to now is     2216.9 secs

     total energy              =    -938.19464473 Ry
     Harris-Foulkes estimate   =    -938.19464473 Ry
     estimated scf accuracy    <       0.00000004 Ry

     iteration # 53     ecut=    40.00 Ry     beta= 0.60
     Davidson diagonalization with overlap
     ethr =  9.74E-12,  avg # of iterations =  3.0

     total cpu time spent up to now is     2251.8 secs

     total energy              =    -938.19464473 Ry
     Harris-Foulkes estimate   =    -938.19464473 Ry
     estimated scf accuracy    <          2.1E-09 Ry

     iteration # 54     ecut=    40.00 Ry     beta= 0.60
     Davidson diagonalization with overlap
     ethr =  2.10E-12,  avg # of iterations =  4.3

     total cpu time spent up to now is     2298.6 secs

     total energy              =    -938.19464473 Ry
     Harris-Foulkes estimate   =    -938.19464473 Ry
     estimated scf accuracy    <          3.2E-09 Ry

     iteration # 55     ecut=    40.00 Ry     beta= 0.60
     Davidson diagonalization with overlap
     ethr =  2.10E-12,  avg # of iterations =  2.0

     total cpu time spent up to now is     2331.0 secs

     total energy              =    -938.19464473 Ry
     Harris-Foulkes estimate   =    -938.19464473 Ry
     estimated scf accuracy    <          9.2E-10 Ry

     iteration # 56     ecut=    40.00 Ry     beta= 0.60
     Davidson diagonalization with overlap
     ethr =  9.22E-13,  avg # of iterations =  3.8

     total cpu time spent up to now is     2374.4 secs

     total energy              =    -938.19464473 Ry
     Harris-Foulkes estimate   =    -938.19464473 Ry
     estimated scf accuracy    <          2.6E-09 Ry

     iteration # 57     ecut=    40.00 Ry     beta= 0.60
     Davidson diagonalization with overlap
     ethr =  9.22E-13,  avg # of iterations =  1.7

     total cpu time spent up to now is     2406.2 secs

     total energy              =    -938.19464473 Ry
     Harris-Foulkes estimate   =    -938.19464473 Ry
     estimated scf accuracy    <          2.3E-10 Ry

     iteration # 58     ecut=    40.00 Ry     beta= 0.60
     Davidson diagonalization with overlap
     ethr =  2.34E-13,  avg # of iterations =  3.6

     total cpu time spent up to now is     2445.2 secs

     End of self-consistent calculation

     Number of k-points >= 100: set verbosity='high' to print the bands.

     the Fermi energy is    13.8136 ev

!    total energy              =    -938.19464473 Ry
     Harris-Foulkes estimate   =    -938.19464473 Ry
     estimated scf accuracy    <          5.5E-11 Ry

     The total energy is the sum of the following terms:

     one-electron contribution =    -272.67583654 Ry
     hartree contribution      =     170.13907400 Ry
     xc contribution           =    -130.98465132 Ry
     ewald contribution        =    -704.66685072 Ry
     smearing contrib. (-TS)   =      -0.00638014 Ry

     convergence has been achieved in  58 iterations

     Forces acting on atoms (cartesian axes, Ry/au):

     atom    1 type  1   force =    -0.00061758   -0.00035656    0.00000000
     atom    2 type  2   force =    -0.00550643   -0.00317914    0.00000000
     atom    3 type  1   force =    -0.00186222   -0.00107516    0.00000000
     atom    4 type  2   force =     0.00231794    0.00133826    0.00000000
     atom    5 type  2   force =    -0.00229727   -0.00132633    0.00000000
     atom    6 type  1   force =     0.00184591    0.00106574    0.00000000
     atom    7 type  2   force =     0.00551790    0.00318576    0.00000000
     atom    8 type  1   force =     0.00060175    0.00034742    0.00000000

     Total force =     0.010266     Total SCF correction =     0.000029


     Computing stress (Cartesian axis) and pressure

          total   stress  (Ry/bohr**3)                   (kbar)     P= -126.16
  -0.00088304   0.00003545   0.00000000       -129.90      5.21      0.00
   0.00003545  -0.00092397   0.00000000          5.21   -135.92      0.00
   0.00000000   0.00000000  -0.00076587          0.00      0.00   -112.66


     BFGS Geometry Optimization

     number of scf cycles    =   1
     number of bfgs steps    =   0

     enthalpy new            =    -938.1946447276 Ry

     new trust radius        =       0.1517792297 bohr
     new conv_thr            =            1.0E-10 Ry

     new unit-cell volume =   1009.93535 a.u.^3 (   149.65698 Ang^3 )
     density =      6.24788 g/cm^3

CELL_PARAMETERS (alat=  1.88972599)
   1.486554559  -2.574788211   0.000000000
   0.000000000   0.000000000  -4.877254255
   8.938022023   5.160369791   0.000000000

ATOMIC_POSITIONS (angstrom)
Nb       2.977463024   0.002513728  -4.877254255
Ti       2.973375346  -1.716373484  -2.438627127
Nb       5.954601375   0.004840006  -4.877254255
Ti       4.468654760   0.863452023  -2.438627127
Ti       7.445604350   2.582196511  -4.877254255
Nb       7.446193145   0.866009261  -2.438627127
Ti      10.427433563   2.587231059  -4.877254255
Nb       8.936777188   3.443123896  -2.438627127


     NEW-OLD atomic charge density approx. for the potential

     Check: negative/imaginary core charge=   -0.000001    0.000000
     extrapolated charge   93.55075, renormalised to  100.00000

     total cpu time spent up to now is     2469.2 secs

     Self-consistent Calculation

     iteration #  1     ecut=    40.00 Ry     beta= 0.60
     Davidson diagonalization with overlap
     c_bands:  2 eigenvalues not converged
     c_bands:  1 eigenvalues not converged
     c_bands:  1 eigenvalues not converged
     c_bands:  3 eigenvalues not converged
     c_bands:  2 eigenvalues not converged
     c_bands:  1 eigenvalues not converged
     c_bands:  1 eigenvalues not converged
     c_bands:  1 eigenvalues not converged
     c_bands:  1 eigenvalues not converged
     c_bands:  1 eigenvalues not converged
     c_bands:  1 eigenvalues not converged
     c_bands:  1 eigenvalues not converged
     c_bands:  3 eigenvalues not converged
     c_bands:  2 eigenvalues not converged
     c_bands:  2 eigenvalues not converged
     c_bands:  2 eigenvalues not converged
     c_bands:  1 eigenvalues not converged
     c_bands:  1 eigenvalues not converged
     c_bands:  1 eigenvalues not converged
     c_bands:  1 eigenvalues not converged
     c_bands:  2 eigenvalues not converged
     c_bands:  1 eigenvalues not converged
     c_bands:  1 eigenvalues not converged
     c_bands:  1 eigenvalues not converged
     c_bands:  1 eigenvalues not converged
     c_bands:  1 eigenvalues not converged
     c_bands:  1 eigenvalues not converged
     c_bands:  2 eigenvalues not converged
     c_bands:  2 eigenvalues not converged
     c_bands:  1 eigenvalues not converged
     c_bands:  2 eigenvalues not converged
     c_bands:  3 eigenvalues not converged
     c_bands:  2 eigenvalues not converged
     c_bands:  1 eigenvalues not converged
     c_bands:  1 eigenvalues not converged
     c_bands:  2 eigenvalues not converged
     c_bands:  1 eigenvalues not converged
     c_bands:  2 eigenvalues not converged
     c_bands:  1 eigenvalues not converged
     c_bands:  2 eigenvalues not converged
     c_bands:  1 eigenvalues not converged
     c_bands:  2 eigenvalues not converged
     c_bands:  2 eigenvalues not converged
     c_bands:  1 eigenvalues not converged
     c_bands:  1 eigenvalues not converged
     c_bands:  3 eigenvalues not converged
     c_bands:  2 eigenvalues not converged
     c_bands:  2 eigenvalues not converged
     c_bands:  3 eigenvalues not converged
     c_bands:  2 eigenvalues not converged
     c_bands:  1 eigenvalues not converged
     c_bands:  1 eigenvalues not converged
     c_bands:  4 eigenvalues not converged
     c_bands:  2 eigenvalues not converged
     c_bands:  1 eigenvalues not converged
     c_bands:  2 eigenvalues not converged
     c_bands:  2 eigenvalues not converged
     c_bands:  1 eigenvalues not converged
     c_bands:  1 eigenvalues not converged
     c_bands:  2 eigenvalues not converged
     c_bands:  1 eigenvalues not converged
     c_bands:  1 eigenvalues not converged
     c_bands:  1 eigenvalues not converged
     c_bands:  1 eigenvalues not converged
     c_bands:  1 eigenvalues not converged
     c_bands:  2 eigenvalues not converged
     c_bands:  2 eigenvalues not converged
     c_bands:  1 eigenvalues not converged
     c_bands:  2 eigenvalues not converged
     c_bands:  1 eigenvalues not converged
     c_bands:  1 eigenvalues not converged
     c_bands:  2 eigenvalues not converged
     c_bands:  1 eigenvalues not converged
     c_bands:  1 eigenvalues not converged
     c_bands:  1 eigenvalues not converged
     c_bands:  1 eigenvalues not converged
     c_bands:  1 eigenvalues not converged
     c_bands:  1 eigenvalues not converged
     c_bands:  2 eigenvalues not converged
     c_bands:  1 eigenvalues not converged
     c_bands:  1 eigenvalues not converged
     c_bands:  1 eigenvalues not converged
     c_bands:  2 eigenvalues not converged
     c_bands:  1 eigenvalues not converged
     c_bands:  1 eigenvalues not converged
     c_bands:  2 eigenvalues not converged
     c_bands:  1 eigenvalues not converged
     c_bands:  1 eigenvalues not converged
     c_bands:  1 eigenvalues not converged
     c_bands:  1 eigenvalues not converged
     c_bands:  1 eigenvalues not converged
     c_bands:  1 eigenvalues not converged
     c_bands:  1 eigenvalues not converged
     c_bands:  1 eigenvalues not converged
     c_bands:  1 eigenvalues not converged
     c_bands:  2 eigenvalues not converged
     c_bands:  1 eigenvalues not converged
     c_bands:  1 eigenvalues not converged
     c_bands:  1 eigenvalues not converged
     c_bands:  1 eigenvalues not converged
     c_bands:  1 eigenvalues not converged
     c_bands:  2 eigenvalues not converged
     c_bands:  2 eigenvalues not converged
     c_bands:  1 eigenvalues not converged
     c_bands:  1 eigenvalues not converged
     c_bands:  1 eigenvalues not converged
     c_bands:  2 eigenvalues not converged
     c_bands:  1 eigenvalues not converged
     c_bands:  1 eigenvalues not converged
     c_bands:  1 eigenvalues not converged
     c_bands:  1 eigenvalues not converged
     ethr =  1.00E-06,  avg # of iterations = 18.9

     total cpu time spent up to now is     2625.5 secs

     total energy              =    -925.57849307 Ry
     Harris-Foulkes estimate   =    -950.45718934 Ry
     estimated scf accuracy    <      13.94644251 Ry

     iteration #  2     ecut=    40.00 Ry     beta= 0.60
     Davidson diagonalization with overlap
     ethr =  1.00E-02,  avg # of iterations =  5.2

     total cpu time spent up to now is     2695.9 secs

     total energy              =    -926.98102566 Ry
     Harris-Foulkes estimate   =    -965.66064407 Ry
     estimated scf accuracy    <     195.01196643 Ry

     iteration #  3     ecut=    40.00 Ry     beta= 0.60
     Davidson diagonalization with overlap
     ethr =  1.00E-02,  avg # of iterations =  6.1

     total cpu time spent up to now is     2769.4 secs

     total energy              =    -934.56318858 Ry
     Harris-Foulkes estimate   =    -952.89051571 Ry
     estimated scf accuracy    <     130.28719445 Ry

     iteration #  4     ecut=    40.00 Ry     beta= 0.60
     Davidson diagonalization with overlap
     ethr =  1.00E-02,  avg # of iterations =  4.9

     total cpu time spent up to now is     2819.0 secs

     total energy              =    -938.65247027 Ry
     Harris-Foulkes estimate   =    -940.66354479 Ry
     estimated scf accuracy    <      11.37057516 Ry

     iteration #  5     ecut=    40.00 Ry     beta= 0.60
     Davidson diagonalization with overlap
     ethr =  1.00E-02,  avg # of iterations =  1.2

     total cpu time spent up to now is     2849.8 secs

     total energy              =    -938.31525271 Ry
     Harris-Foulkes estimate   =    -938.92629141 Ry
     estimated scf accuracy    <       5.31769280 Ry

     iteration #  6     ecut=    40.00 Ry     beta= 0.60
     Davidson diagonalization with overlap
     ethr =  5.32E-03,  avg # of iterations =  2.0

     total cpu time spent up to now is     2882.6 secs

     total energy              =    -938.01879492 Ry
     Harris-Foulkes estimate   =    -938.46429009 Ry
     estimated scf accuracy    <       3.19930330 Ry

     iteration #  7     ecut=    40.00 Ry     beta= 0.60
     Davidson diagonalization with overlap
     ethr =  3.20E-03,  avg # of iterations =  3.9

     total cpu time spent up to now is     2921.0 secs

     total energy              =    -938.21399095 Ry
     Harris-Foulkes estimate   =    -938.21029848 Ry
     estimated scf accuracy    <       1.25885160 Ry

     iteration #  8     ecut=    40.00 Ry     beta= 0.60
     Davidson diagonalization with overlap
     ethr =  1.26E-03,  avg # of iterations =  5.0

     total cpu time spent up to now is     2967.7 secs

     total energy              =    -938.37530214 Ry
     Harris-Foulkes estimate   =    -938.33622950 Ry
     estimated scf accuracy    <       0.81328543 Ry

     iteration #  9     ecut=    40.00 Ry     beta= 0.60
     Davidson diagonalization with overlap
     ethr =  8.13E-04,  avg # of iterations =  1.3

     total cpu time spent up to now is     2998.6 secs

     total energy              =    -938.38876218 Ry
     Harris-Foulkes estimate   =    -938.39416720 Ry
     estimated scf accuracy    <       0.99298098 Ry

     iteration # 10     ecut=    40.00 Ry     beta= 0.60
     Davidson diagonalization with overlap
     ethr =  8.13E-04,  avg # of iterations =  1.0

     total cpu time spent up to now is     3029.0 secs

     total energy              =    -938.14500690 Ry
     Harris-Foulkes estimate   =    -938.39311170 Ry
     estimated scf accuracy    <       0.96730973 Ry

     iteration # 11     ecut=    40.00 Ry     beta= 0.60
     Davidson diagonalization with overlap
     ethr =  8.13E-04,  avg # of iterations =  5.3

     total cpu time spent up to now is     3081.5 secs

     total energy              =    -938.23058774 Ry
     Harris-Foulkes estimate   =    -938.37694183 Ry
     estimated scf accuracy    <       2.14746744 Ry

     iteration # 12     ecut=    40.00 Ry     beta= 0.60
     Davidson diagonalization with overlap
     ethr =  8.13E-04,  avg # of iterations =  1.5

     total cpu time spent up to now is     3113.7 secs

     total energy              =    -938.23514796 Ry
     Harris-Foulkes estimate   =    -938.27574955 Ry
     estimated scf accuracy    <       0.96445421 Ry

     iteration # 13     ecut=    40.00 Ry     beta= 0.60
     Davidson diagonalization with overlap
     ethr =  8.13E-04,  avg # of iterations =  1.4

     total cpu time spent up to now is     3145.2 secs

     total energy              =    -938.18181840 Ry
     Harris-Foulkes estimate   =    -938.25238546 Ry
     estimated scf accuracy    <       0.53097615 Ry

     iteration # 14     ecut=    40.00 Ry     beta= 0.60
     Davidson diagonalization with overlap
     ethr =  5.31E-04,  avg # of iterations =  4.0

     total cpu time spent up to now is     3186.9 secs

     total energy              =    -938.21205491 Ry
     Harris-Foulkes estimate   =    -938.26407638 Ry
     estimated scf accuracy    <       0.83779345 Ry

     iteration # 15     ecut=    40.00 Ry     beta= 0.60
     Davidson diagonalization with overlap
     ethr =  5.31E-04,  avg # of iterations =  1.4

     total cpu time spent up to now is     3218.3 secs

     total energy              =    -938.23454254 Ry
     Harris-Foulkes estimate   =    -938.23497982 Ry
     estimated scf accuracy    <       0.03769243 Ry

     iteration # 16     ecut=    40.00 Ry     beta= 0.60
     Davidson diagonalization with overlap
     ethr =  3.77E-05,  avg # of iterations =  6.0

     total cpu time spent up to now is     3284.2 secs

     total energy              =    -938.21134723 Ry
     Harris-Foulkes estimate   =    -938.27379297 Ry
     estimated scf accuracy    <       0.48763942 Ry

     iteration # 17     ecut=    40.00 Ry     beta= 0.60
     Davidson diagonalization with overlap
     ethr =  3.77E-05,  avg # of iterations =  4.8

     total cpu time spent up to now is     3339.9 secs

     total energy              =    -938.23692855 Ry
     Harris-Foulkes estimate   =    -938.24010241 Ry
     estimated scf accuracy    <       0.04128496 Ry

     iteration # 18     ecut=    40.00 Ry     beta= 0.60
     Davidson diagonalization with overlap
     ethr =  3.77E-05,  avg # of iterations =  1.3

     total cpu time spent up to now is     3371.1 secs

     total energy              =    -938.23558601 Ry
     Harris-Foulkes estimate   =    -938.24023463 Ry
     estimated scf accuracy    <       0.07080958 Ry

     iteration # 19     ecut=    40.00 Ry     beta= 0.60
     Davidson diagonalization with overlap
     ethr =  3.77E-05,  avg # of iterations =  1.4

     total cpu time spent up to now is     3402.5 secs

     total energy              =    -938.23744786 Ry
     Harris-Foulkes estimate   =    -938.23885087 Ry
     estimated scf accuracy    <       0.01277190 Ry

     iteration # 20     ecut=    40.00 Ry     beta= 0.60
     Davidson diagonalization with overlap
     ethr =  1.28E-05,  avg # of iterations =  1.7

     total cpu time spent up to now is     3434.7 secs

     total energy              =    -938.23812011 Ry
     Harris-Foulkes estimate   =    -938.23824515 Ry
     estimated scf accuracy    <       0.00217677 Ry

     iteration # 21     ecut=    40.00 Ry     beta= 0.60
     Davidson diagonalization with overlap
     ethr =  2.18E-06,  avg # of iterations =  6.1

     total cpu time spent up to now is     3485.6 secs

     total energy              =    -938.23832141 Ry
     Harris-Foulkes estimate   =    -938.23834918 Ry
     estimated scf accuracy    <       0.00018418 Ry

     iteration # 22     ecut=    40.00 Ry     beta= 0.60
     Davidson diagonalization with overlap
     ethr =  1.84E-07,  avg # of iterations =  3.5

     total cpu time spent up to now is     3526.0 secs

     total energy              =    -938.23833409 Ry
     Harris-Foulkes estimate   =    -938.23834701 Ry
     estimated scf accuracy    <       0.00007991 Ry

     iteration # 23     ecut=    40.00 Ry     beta= 0.60
     Davidson diagonalization with overlap
     ethr =  7.99E-08,  avg # of iterations =  3.7

     total cpu time spent up to now is     3566.9 secs

     total energy              =    -938.23833984 Ry
     Harris-Foulkes estimate   =    -938.23834596 Ry
     estimated scf accuracy    <       0.00004203 Ry

     iteration # 24     ecut=    40.00 Ry     beta= 0.60
     Davidson diagonalization with overlap
     ethr =  4.20E-08,  avg # of iterations =  3.6

     total cpu time spent up to now is     3605.3 secs

     total energy              =    -938.23834148 Ry
     Harris-Foulkes estimate   =    -938.23834600 Ry
     estimated scf accuracy    <       0.00003884 Ry

     iteration # 25     ecut=    40.00 Ry     beta= 0.60
     Davidson diagonalization with overlap
     ethr =  3.88E-08,  avg # of iterations =  1.3

     total cpu time spent up to now is     3636.3 secs

     total energy              =    -938.23834254 Ry
     Harris-Foulkes estimate   =    -938.23834442 Ry
     estimated scf accuracy    <       0.00002761 Ry

     iteration # 26     ecut=    40.00 Ry     beta= 0.60
     Davidson diagonalization with overlap
     ethr =  2.76E-08,  avg # of iterations =  1.4

     total cpu time spent up to now is     3668.1 secs

     total energy              =    -938.23834350 Ry
     Harris-Foulkes estimate   =    -938.23834395 Ry
     estimated scf accuracy    <       0.00000297 Ry

     iteration # 27     ecut=    40.00 Ry     beta= 0.60
     Davidson diagonalization with overlap
     ethr =  2.97E-09,  avg # of iterations =  4.4

     total cpu time spent up to now is     3712.4 secs

     total energy              =    -938.23834397 Ry
     Harris-Foulkes estimate   =    -938.23834402 Ry
     estimated scf accuracy    <       0.00000048 Ry

     iteration # 28     ecut=    40.00 Ry     beta= 0.60
     Davidson diagonalization with overlap
     ethr =  4.79E-10,  avg # of iterations =  2.8

     total cpu time spent up to now is     3748.9 secs

     total energy              =    -938.23834399 Ry
     Harris-Foulkes estimate   =    -938.23834401 Ry
     estimated scf accuracy    <       0.00000014 Ry

     iteration # 29     ecut=    40.00 Ry     beta= 0.60
     Davidson diagonalization with overlap
     ethr =  1.44E-10,  avg # of iterations =  3.8

     total cpu time spent up to now is     3789.7 secs

     total energy              =    -938.23834399 Ry
     Harris-Foulkes estimate   =    -938.23834402 Ry
     estimated scf accuracy    <       0.00000041 Ry

     iteration # 30     ecut=    40.00 Ry     beta= 0.60
     Davidson diagonalization with overlap
     ethr =  1.44E-10,  avg # of iterations =  3.7

     total cpu time spent up to now is     3830.6 secs

     total energy              =    -938.23834400 Ry
     Harris-Foulkes estimate   =    -938.23834402 Ry
     estimated scf accuracy    <       0.00000014 Ry

     iteration # 31     ecut=    40.00 Ry     beta= 0.60
     Davidson diagonalization with overlap
     ethr =  1.43E-10,  avg # of iterations =  1.0

     total cpu time spent up to now is     3861.0 secs

     total energy              =    -938.23834401 Ry
     Harris-Foulkes estimate   =    -938.23834401 Ry
     estimated scf accuracy    <          9.5E-09 Ry

     iteration # 32     ecut=    40.00 Ry     beta= 0.60
     Davidson diagonalization with overlap
     ethr =  9.53E-12,  avg # of iterations =  4.8

     total cpu time spent up to now is     3911.9 secs

     total energy              =    -938.23834401 Ry
     Harris-Foulkes estimate   =    -938.23834401 Ry
     estimated scf accuracy    <       0.00000001 Ry

     iteration # 33     ecut=    40.00 Ry     beta= 0.60
     Davidson diagonalization with overlap
     ethr =  9.53E-12,  avg # of iterations =  1.2

     total cpu time spent up to now is     3943.1 secs

     total energy              =    -938.23834401 Ry
     Harris-Foulkes estimate   =    -938.23834401 Ry
     estimated scf accuracy    <          3.2E-09 Ry

     iteration # 34     ecut=    40.00 Ry     beta= 0.60
     Davidson diagonalization with overlap
     ethr =  3.22E-12,  avg # of iterations =  3.5

     total cpu time spent up to now is     3982.5 secs

     total energy              =    -938.23834401 Ry
     Harris-Foulkes estimate   =    -938.23834401 Ry
     estimated scf accuracy    <          7.0E-10 Ry

     iteration # 35     ecut=    40.00 Ry     beta= 0.60
     Davidson diagonalization with overlap
     ethr =  7.02E-13,  avg # of iterations =  4.3

     total cpu time spent up to now is     4029.8 secs

     total energy              =    -938.23834401 Ry
     Harris-Foulkes estimate   =    -938.23834401 Ry
     estimated scf accuracy    <          2.1E-09 Ry

     iteration # 36     ecut=    40.00 Ry     beta= 0.60
     Davidson diagonalization with overlap
     ethr =  7.02E-13,  avg # of iterations =  1.8

     total cpu time spent up to now is     4062.0 secs

     total energy              =    -938.23834401 Ry
     Harris-Foulkes estimate   =    -938.23834401 Ry
     estimated scf accuracy    <          2.9E-10 Ry

     iteration # 37     ecut=    40.00 Ry     beta= 0.60
     Davidson diagonalization with overlap
     ethr =  2.88E-13,  avg # of iterations =  3.7

     total cpu time spent up to now is     4102.7 secs

     End of self-consistent calculation

     Number of k-points >= 100: set verbosity='high' to print the bands.

     the Fermi energy is    14.9169 ev

!    total energy              =    -938.23834401 Ry
     Harris-Foulkes estimate   =    -938.23834401 Ry
     estimated scf accuracy    <          2.5E-11 Ry

     The total energy is the sum of the following terms:

     one-electron contribution =    -250.08909282 Ry
     hartree contribution      =     163.39492791 Ry
     xc contribution           =    -131.43442091 Ry
     ewald contribution        =    -720.10448149 Ry
     smearing contrib. (-TS)   =      -0.00527671 Ry

     convergence has been achieved in  37 iterations

     Forces acting on atoms (cartesian axes, Ry/au):

     atom    1 type  1   force =    -0.00345267   -0.00199340    0.00000000
     atom    2 type  2   force =    -0.00533185   -0.00307835    0.00000000
     atom    3 type  1   force =    -0.00114359   -0.00066025    0.00000000
     atom    4 type  2   force =    -0.00013650   -0.00007881    0.00000000
     atom    5 type  2   force =     0.00015418    0.00008902    0.00000000
     atom    6 type  1   force =     0.00111795    0.00064545    0.00000000
     atom    7 type  2   force =     0.00536463    0.00309727    0.00000000
     atom    8 type  1   force =     0.00342786    0.00197907    0.00000000

     Total force =     0.010550     Total SCF correction =     0.000012


     Computing stress (Cartesian axis) and pressure

          total   stress  (Ry/bohr**3)                   (kbar)     P=  -57.33
  -0.00041920   0.00003799   0.00000000        -61.67      5.59      0.00
   0.00003799  -0.00046307   0.00000000          5.59    -68.12      0.00
   0.00000000   0.00000000  -0.00028699          0.00      0.00    -42.22


     number of scf cycles    =   2
     number of bfgs steps    =   1

     enthalpy old            =    -938.1946447276 Ry
     enthalpy new            =    -938.2383440133 Ry

     CASE: enthalpy_new < enthalpy_old

     new trust radius        =       0.1314150713 bohr
     new conv_thr            =            1.0E-10 Ry

     new unit-cell volume =    958.34438 a.u.^3 (   142.01198 Ang^3 )
     density =      6.58422 g/cm^3

CELL_PARAMETERS (alat=  1.88972599)
   1.454454904  -2.519189981   0.000000000
   0.000000000   0.000000000  -4.815191635
   8.780350618   5.069338170   0.000000000

ATOMIC_POSITIONS (angstrom)
Nb       2.918925601   0.005782621  -4.815191635
Ti       2.910270554  -1.678676040  -2.407595817
Nb       5.842654346   0.014338337  -4.815191635
Ti       4.386779930   0.853247096  -2.407595817
Ti       7.311445184   2.541805173  -4.815191635
Nb       7.309968097   0.861490710  -2.407595817
Ti      10.242418170   2.554543354  -4.815191635
Nb       8.779242927   3.389236978  -2.407595817


     NEW-OLD atomic charge density approx. for the potential

     Check: negative/imaginary core charge=   -0.000001    0.000000
     extrapolated charge   94.83259, renormalised to  100.00000

     total cpu time spent up to now is     4127.1 secs

     Self-consistent Calculation

     iteration #  1     ecut=    40.00 Ry     beta= 0.60
     Davidson diagonalization with overlap
     c_bands:  4 eigenvalues not converged
     c_bands:  3 eigenvalues not converged
     c_bands:  3 eigenvalues not converged
     c_bands:  4 eigenvalues not converged
     c_bands:  1 eigenvalues not converged
     c_bands:  1 eigenvalues not converged
     c_bands:  2 eigenvalues not converged
     c_bands:  2 eigenvalues not converged
     c_bands:  1 eigenvalues not converged
     c_bands:  1 eigenvalues not converged
     c_bands:  2 eigenvalues not converged
     c_bands:  1 eigenvalues not converged
     c_bands:  2 eigenvalues not converged
     c_bands:  1 eigenvalues not converged
     c_bands:  1 eigenvalues not converged
     c_bands:  1 eigenvalues not converged
     c_bands:  1 eigenvalues not converged
     c_bands:  1 eigenvalues not converged
     c_bands:  1 eigenvalues not converged
     c_bands:  2 eigenvalues not converged
     c_bands:  1 eigenvalues not converged
     c_bands:  1 eigenvalues not converged
     c_bands:  1 eigenvalues not converged
     c_bands:  1 eigenvalues not converged
     c_bands:  1 eigenvalues not converged
     c_bands:  1 eigenvalues not converged
     c_bands:  1 eigenvalues not converged
     c_bands:  2 eigenvalues not converged
     c_bands:  1 eigenvalues not converged
     c_bands:  2 eigenvalues not converged
     c_bands:  1 eigenvalues not converged
     c_bands:  1 eigenvalues not converged
     c_bands:  1 eigenvalues not converged
     c_bands:  2 eigenvalues not converged
     c_bands:  1 eigenvalues not converged
     c_bands:  2 eigenvalues not converged
     c_bands:  1 eigenvalues not converged
     c_bands:  2 eigenvalues not converged
     c_bands:  1 eigenvalues not converged
     c_bands:  2 eigenvalues not converged
     c_bands:  1 eigenvalues not converged
     c_bands:  1 eigenvalues not converged
     c_bands:  2 eigenvalues not converged
     c_bands:  2 eigenvalues not converged
     c_bands:  2 eigenvalues not converged
     c_bands:  1 eigenvalues not converged
     c_bands:  1 eigenvalues not converged
     c_bands:  2 eigenvalues not converged
     c_bands:  1 eigenvalues not converged
     c_bands:  2 eigenvalues not converged
     c_bands:  2 eigenvalues not converged
     c_bands:  1 eigenvalues not converged
     c_bands:  3 eigenvalues not converged
     c_bands:  1 eigenvalues not converged
     c_bands:  1 eigenvalues not converged
     c_bands:  1 eigenvalues not converged
     c_bands:  2 eigenvalues not converged
     c_bands:  1 eigenvalues not converged
     c_bands:  1 eigenvalues not converged
     c_bands:  1 eigenvalues not converged
     c_bands:  1 eigenvalues not converged
     c_bands:  1 eigenvalues not converged
     c_bands:  1 eigenvalues not converged
     c_bands:  1 eigenvalues not converged
     c_bands:  2 eigenvalues not converged
     c_bands:  1 eigenvalues not converged
     c_bands:  2 eigenvalues not converged
     c_bands:  1 eigenvalues not converged
     c_bands:  2 eigenvalues not converged
     c_bands:  1 eigenvalues not converged
     c_bands:  1 eigenvalues not converged
     c_bands:  2 eigenvalues not converged
     c_bands:  2 eigenvalues not converged
     c_bands:  1 eigenvalues not converged
     c_bands:  2 eigenvalues not converged
     c_bands:  1 eigenvalues not converged
     c_bands:  2 eigenvalues not converged
     c_bands:  1 eigenvalues not converged
     c_bands:  1 eigenvalues not converged
     c_bands:  1 eigenvalues not converged
     c_bands:  2 eigenvalues not converged
     c_bands:  2 eigenvalues not converged
     c_bands:  1 eigenvalues not converged
     c_bands:  2 eigenvalues not converged
     c_bands:  2 eigenvalues not converged
     c_bands:  1 eigenvalues not converged
     c_bands:  1 eigenvalues not converged
     c_bands:  2 eigenvalues not converged
     c_bands:  2 eigenvalues not converged
     c_bands:  1 eigenvalues not converged
     c_bands:  2 eigenvalues not converged
     c_bands:  2 eigenvalues not converged
     c_bands:  1 eigenvalues not converged
     c_bands:  1 eigenvalues not converged
     c_bands:  1 eigenvalues not converged
     c_bands:  1 eigenvalues not converged
     c_bands:  2 eigenvalues not converged
     c_bands:  1 eigenvalues not converged
     c_bands:  1 eigenvalues not converged
     c_bands:  1 eigenvalues not converged
     ethr =  1.00E-06,  avg # of iterations = 17.2

     total cpu time spent up to now is     4273.9 secs

     total energy              =    -932.84044812 Ry
     Harris-Foulkes estimate   =    -947.21457170 Ry
     estimated scf accuracy    <       5.76622941 Ry

     iteration #  2     ecut=    40.00 Ry     beta= 0.60
     Davidson diagonalization with overlap
     ethr =  5.77E-03,  avg # of iterations =  5.4

     total cpu time spent up to now is     4345.7 secs

     total energy              =    -930.70774667 Ry
     Harris-Foulkes estimate   =    -951.93911359 Ry
     estimated scf accuracy    <     144.69783095 Ry

     iteration #  3     ecut=    40.00 Ry     beta= 0.60
     Davidson diagonalization with overlap
     ethr =  5.77E-03,  avg # of iterations =  6.1

     total cpu time spent up to now is     4414.6 secs

     total energy              =    -936.05119707 Ry
     Harris-Foulkes estimate   =    -945.70896892 Ry
     estimated scf accuracy    <      76.76757091 Ry

     iteration #  4     ecut=    40.00 Ry     beta= 0.60
     Davidson diagonalization with overlap
     ethr =  5.77E-03,  avg # of iterations =  5.3

     total cpu time spent up to now is     4466.6 secs

     total energy              =    -938.39918511 Ry
     Harris-Foulkes estimate   =    -939.25025950 Ry
     estimated scf accuracy    <       4.96990416 Ry

     iteration #  5     ecut=    40.00 Ry     beta= 0.60
     Davidson diagonalization with overlap
     ethr =  4.97E-03,  avg # of iterations =  1.3

     total cpu time spent up to now is     4497.7 secs

     total energy              =    -938.26110676 Ry
     Harris-Foulkes estimate   =    -938.53236929 Ry
     estimated scf accuracy    <       2.84772264 Ry

     iteration #  6     ecut=    40.00 Ry     beta= 0.60
     Davidson diagonalization with overlap
     ethr =  2.85E-03,  avg # of iterations =  1.9

     total cpu time spent up to now is     4530.2 secs

     total energy              =    -938.21564396 Ry
     Harris-Foulkes estimate   =    -938.33319015 Ry
     estimated scf accuracy    <       1.64658698 Ry

     iteration #  7     ecut=    40.00 Ry     beta= 0.60
     Davidson diagonalization with overlap
     ethr =  1.65E-03,  avg # of iterations =  2.7

     total cpu time spent up to now is     4564.7 secs

     total energy              =    -938.19115081 Ry
     Harris-Foulkes estimate   =    -938.26818713 Ry
     estimated scf accuracy    <       1.01351244 Ry

     iteration #  8     ecut=    40.00 Ry     beta= 0.60
     Davidson diagonalization with overlap
     ethr =  1.01E-03,  avg # of iterations =  4.4

     total cpu time spent up to now is     4608.7 secs

     total energy              =    -938.30760223 Ry
     Harris-Foulkes estimate   =    -938.28045848 Ry
     estimated scf accuracy    <       0.16905493 Ry

     iteration #  9     ecut=    40.00 Ry     beta= 0.60
     Davidson diagonalization with overlap
     ethr =  1.69E-04,  avg # of iterations =  5.2

     total cpu time spent up to now is     4654.9 secs

     total energy              =    -938.32929756 Ry
     Harris-Foulkes estimate   =    -938.33569347 Ry
     estimated scf accuracy    <       0.58447272 Ry

     iteration # 10     ecut=    40.00 Ry     beta= 0.60
     Davidson diagonalization with overlap
     ethr =  1.69E-04,  avg # of iterations =  1.0

     total cpu time spent up to now is     4685.4 secs

     total energy              =    -938.20383276 Ry
     Harris-Foulkes estimate   =    -938.33081910 Ry
     estimated scf accuracy    <       0.57481192 Ry

     iteration # 11     ecut=    40.00 Ry     beta= 0.60
     Davidson diagonalization with overlap
     ethr =  1.69E-04,  avg # of iterations =  4.7

     total cpu time spent up to now is     4735.3 secs

     total energy              =    -938.24548798 Ry
     Harris-Foulkes estimate   =    -938.25029797 Ry
     estimated scf accuracy    <       0.07403952 Ry

     iteration # 12     ecut=    40.00 Ry     beta= 0.60
     Davidson diagonalization with overlap
     ethr =  7.40E-05,  avg # of iterations =  2.7

     total cpu time spent up to now is     4769.8 secs

     total energy              =    -938.24817196 Ry
     Harris-Foulkes estimate   =    -938.24891893 Ry
     estimated scf accuracy    <       0.02793376 Ry

     iteration # 13     ecut=    40.00 Ry     beta= 0.60
     Davidson diagonalization with overlap
     ethr =  2.79E-05,  avg # of iterations =  4.6

     total cpu time spent up to now is     4810.1 secs

     total energy              =    -938.24762694 Ry
     Harris-Foulkes estimate   =    -938.24937107 Ry
     estimated scf accuracy    <       0.02438118 Ry

     iteration # 14     ecut=    40.00 Ry     beta= 0.60
     Davidson diagonalization with overlap
     ethr =  2.44E-05,  avg # of iterations =  1.3

     total cpu time spent up to now is     4841.1 secs

     total energy              =    -938.24710510 Ry
     Harris-Foulkes estimate   =    -938.24827869 Ry
     estimated scf accuracy    <       0.01251317 Ry

     iteration # 15     ecut=    40.00 Ry     beta= 0.60
     Davidson diagonalization with overlap
     ethr =  1.25E-05,  avg # of iterations =  4.4

     total cpu time spent up to now is     4881.7 secs

     total energy              =    -938.24717789 Ry
     Harris-Foulkes estimate   =    -938.24790024 Ry
     estimated scf accuracy    <       0.00283245 Ry

     iteration # 16     ecut=    40.00 Ry     beta= 0.60
     Davidson diagonalization with overlap
     ethr =  2.83E-06,  avg # of iterations =  5.7

     total cpu time spent up to now is     4942.2 secs

     total energy              =    -938.24771780 Ry
     Harris-Foulkes estimate   =    -938.24849474 Ry
     estimated scf accuracy    <       0.00945986 Ry

     iteration # 17     ecut=    40.00 Ry     beta= 0.60
     Davidson diagonalization with overlap
     ethr =  2.83E-06,  avg # of iterations =  2.3

     total cpu time spent up to now is     4975.8 secs

     total energy              =    -938.24769369 Ry
     Harris-Foulkes estimate   =    -938.24802144 Ry
     estimated scf accuracy    <       0.00267376 Ry

     iteration # 18     ecut=    40.00 Ry     beta= 0.60
     Davidson diagonalization with overlap
     ethr =  2.67E-06,  avg # of iterations =  2.9

     total cpu time spent up to now is     5013.0 secs

     total energy              =    -938.24788053 Ry
     Harris-Foulkes estimate   =    -938.24793744 Ry
     estimated scf accuracy    <       0.00056454 Ry

     iteration # 19     ecut=    40.00 Ry     beta= 0.60
     Davidson diagonalization with overlap
     ethr =  5.65E-07,  avg # of iterations =  2.8

     total cpu time spent up to now is     5048.9 secs

     total energy              =    -938.24791653 Ry
     Harris-Foulkes estimate   =    -938.24792457 Ry
     estimated scf accuracy    <       0.00005143 Ry

     iteration # 20     ecut=    40.00 Ry     beta= 0.60
     Davidson diagonalization with overlap
     ethr =  5.14E-08,  avg # of iterations =  4.3

     total cpu time spent up to now is     5096.3 secs

     total energy              =    -938.24792769 Ry
     Harris-Foulkes estimate   =    -938.24792921 Ry
     estimated scf accuracy    <       0.00000980 Ry

     iteration # 21     ecut=    40.00 Ry     beta= 0.60
     Davidson diagonalization with overlap
     ethr =  9.80E-09,  avg # of iterations =  2.4

     total cpu time spent up to now is     5131.1 secs

     total energy              =    -938.24792766 Ry
     Harris-Foulkes estimate   =    -938.24792851 Ry
     estimated scf accuracy    <       0.00000528 Ry

     iteration # 22     ecut=    40.00 Ry     beta= 0.60
     Davidson diagonalization with overlap
     ethr =  5.28E-09,  avg # of iterations =  3.7

     total cpu time spent up to now is     5172.0 secs

     total energy              =    -938.24792785 Ry
     Harris-Foulkes estimate   =    -938.24792879 Ry
     estimated scf accuracy    <       0.00000855 Ry

     iteration # 23     ecut=    40.00 Ry     beta= 0.60
     Davidson diagonalization with overlap
     ethr =  5.28E-09,  avg # of iterations =  1.1

     total cpu time spent up to now is     5202.6 secs

     total energy              =    -938.24792825 Ry
     Harris-Foulkes estimate   =    -938.24792831 Ry
     estimated scf accuracy    <       0.00000048 Ry

     iteration # 24     ecut=    40.00 Ry     beta= 0.60
     Davidson diagonalization with overlap
     ethr =  4.75E-10,  avg # of iterations =  4.4

     total cpu time spent up to now is     5250.4 secs

     total energy              =    -938.24792832 Ry
     Harris-Foulkes estimate   =    -938.24792840 Ry
     estimated scf accuracy    <       0.00000052 Ry

     iteration # 25     ecut=    40.00 Ry     beta= 0.60
     Davidson diagonalization with overlap
     ethr =  4.75E-10,  avg # of iterations =  3.9

     total cpu time spent up to now is     5295.1 secs

     total energy              =    -938.24792827 Ry
     Harris-Foulkes estimate   =    -938.24792849 Ry
     estimated scf accuracy    <       0.00000185 Ry

     iteration # 26     ecut=    40.00 Ry     beta= 0.60
     Davidson diagonalization with overlap
     ethr =  4.75E-10,  avg # of iterations =  3.4

     total cpu time spent up to now is     5336.4 secs

     total energy              =    -938.24792834 Ry
     Harris-Foulkes estimate   =    -938.24792839 Ry
     estimated scf accuracy    <       0.00000065 Ry

     iteration # 27     ecut=    40.00 Ry     beta= 0.60
     Davidson diagonalization with overlap
     ethr =  4.75E-10,  avg # of iterations =  3.1

     total cpu time spent up to now is     5373.1 secs

     total energy              =    -938.24792835 Ry
     Harris-Foulkes estimate   =    -938.24792841 Ry
     estimated scf accuracy    <       0.00000041 Ry

     iteration # 28     ecut=    40.00 Ry     beta= 0.60
     Davidson diagonalization with overlap
     ethr =  4.11E-10,  avg # of iterations =  1.1

     total cpu time spent up to now is     5403.6 secs

     total energy              =    -938.24792836 Ry
     Harris-Foulkes estimate   =    -938.24792837 Ry
     estimated scf accuracy    <       0.00000003 Ry

     iteration # 29     ecut=    40.00 Ry     beta= 0.60
     Davidson diagonalization with overlap
     ethr =  2.86E-11,  avg # of iterations =  4.8

     total cpu time spent up to now is     5454.8 secs

     total energy              =    -938.24792837 Ry
     Harris-Foulkes estimate   =    -938.24792838 Ry
     estimated scf accuracy    <       0.00000014 Ry

     iteration # 30     ecut=    40.00 Ry     beta= 0.60
     Davidson diagonalization with overlap
     ethr =  2.86E-11,  avg # of iterations =  3.4

     total cpu time spent up to now is     5492.1 secs

     total energy              =    -938.24792837 Ry
     Harris-Foulkes estimate   =    -938.24792837 Ry
     estimated scf accuracy    <       0.00000002 Ry

     iteration # 31     ecut=    40.00 Ry     beta= 0.60
     Davidson diagonalization with overlap
     ethr =  1.98E-11,  avg # of iterations =  2.9

     total cpu time spent up to now is     5528.5 secs

     total energy              =    -938.24792837 Ry
     Harris-Foulkes estimate   =    -938.24792837 Ry
     estimated scf accuracy    <          1.3E-09 Ry

     iteration # 32     ecut=    40.00 Ry     beta= 0.60
     Davidson diagonalization with overlap
     ethr =  1.30E-12,  avg # of iterations =  4.7

     total cpu time spent up to now is     5577.6 secs

     total energy              =    -938.24792837 Ry
     Harris-Foulkes estimate   =    -938.24792837 Ry
     estimated scf accuracy    <          2.1E-09 Ry

     iteration # 33     ecut=    40.00 Ry     beta= 0.60
     Davidson diagonalization with overlap
     ethr =  1.30E-12,  avg # of iterations =  1.6

     total cpu time spent up to now is     5609.3 secs

     total energy              =    -938.24792837 Ry
     Harris-Foulkes estimate   =    -938.24792837 Ry
     estimated scf accuracy    <          1.5E-10 Ry

     iteration # 34     ecut=    40.00 Ry     beta= 0.60
     Davidson diagonalization with overlap
     ethr =  1.48E-13,  avg # of iterations =  4.5

     total cpu time spent up to now is     5659.1 secs

     total energy              =    -938.24792837 Ry
     Harris-Foulkes estimate   =    -938.24792837 Ry
     estimated scf accuracy    <          5.4E-10 Ry

     iteration # 35     ecut=    40.00 Ry     beta= 0.60
     Davidson diagonalization with overlap
     ethr =  1.48E-13,  avg # of iterations =  4.1

     total cpu time spent up to now is     5703.4 secs

     total energy              =    -938.24792837 Ry
     Harris-Foulkes estimate   =    -938.24792837 Ry
     estimated scf accuracy    <          4.9E-10 Ry

     iteration # 36     ecut=    40.00 Ry     beta= 0.60
     Davidson diagonalization with overlap
     ethr =  1.48E-13,  avg # of iterations =  1.9

     total cpu time spent up to now is     5735.8 secs

     End of self-consistent calculation

     Number of k-points >= 100: set verbosity='high' to print the bands.

     the Fermi energy is    15.8508 ev

!    total energy              =    -938.24792837 Ry
     Harris-Foulkes estimate   =    -938.24792837 Ry
     estimated scf accuracy    <          9.8E-11 Ry

     The total energy is the sum of the following terms:

     one-electron contribution =    -231.63954746 Ry
     hartree contribution      =     158.02607719 Ry
     xc contribution           =    -131.82479141 Ry
     ewald contribution        =    -732.80522300 Ry
     smearing contrib. (-TS)   =      -0.00444370 Ry

     convergence has been achieved in  36 iterations

     Forces acting on atoms (cartesian axes, Ry/au):

     atom    1 type  1   force =    -0.00529881   -0.00305927    0.00000000
     atom    2 type  2   force =    -0.00467055   -0.00269654    0.00000000
     atom    3 type  1   force =     0.00000849    0.00000490    0.00000000
     atom    4 type  2   force =    -0.00266632   -0.00153940    0.00000000
     atom    5 type  2   force =     0.00267736    0.00154578    0.00000000
     atom    6 type  1   force =    -0.00003708   -0.00002141    0.00000000
     atom    7 type  2   force =     0.00471632    0.00272297    0.00000000
     atom    8 type  1   force =     0.00527059    0.00304298    0.00000000

     Total force =     0.012339     Total SCF correction =     0.000041


     Computing stress (Cartesian axis) and pressure

          total   stress  (Ry/bohr**3)                   (kbar)     P=   11.52
   0.00005083   0.00003785   0.00000000          7.48      5.57      0.00
   0.00003785   0.00000712   0.00000000          5.57      1.05      0.00
   0.00000000   0.00000000   0.00017690          0.00      0.00     26.02


     number of scf cycles    =   3
     number of bfgs steps    =   2

     enthalpy old            =    -938.2383440133 Ry
     enthalpy new            =    -938.2479283745 Ry

     CASE: enthalpy_new < enthalpy_old

     new trust radius        =       0.0247674207 bohr
     new conv_thr            =            1.0E-10 Ry

     new unit-cell volume =    964.41437 a.u.^3 (   142.91146 Ang^3 )
     density =      6.54278 g/cm^3

CELL_PARAMETERS (alat=  1.88972599)
   1.454896050  -2.519954068   0.000000000
   0.000000000   0.000000000  -4.834453732
   8.798089943   5.079579974   0.000000000

ATOMIC_POSITIONS (angstrom)
Nb       2.921406674   0.006705677  -4.834453732
Ti       2.911798450  -1.678812692  -2.417226866
Nb       5.851995778   0.018712832  -4.834453732
Ti       4.393260165   0.856479069  -2.417226866
Ti       7.326106273   2.549760365  -4.834453732
Nb       7.322193259   0.867530126  -2.417226866
Ti      10.262487167   2.565111411  -4.834453732
Nb       8.797887444   3.399492002  -2.417226866


     NEW-OLD atomic charge density approx. for the potential

     Check: negative/imaginary core charge=   -0.000001    0.000000
     extrapolated charge  100.60415, renormalised to  100.00000

     total cpu time spent up to now is     5760.1 secs

     Self-consistent Calculation

     iteration #  1     ecut=    40.00 Ry     beta= 0.60
     Davidson diagonalization with overlap
     c_bands:  1 eigenvalues not converged
     c_bands:  2 eigenvalues not converged
     c_bands:  1 eigenvalues not converged
     c_bands:  1 eigenvalues not converged
     c_bands:  1 eigenvalues not converged
     c_bands:  1 eigenvalues not converged
     c_bands:  1 eigenvalues not converged
     ethr =  1.00E-06,  avg # of iterations =  7.8

     total cpu time spent up to now is     5842.0 secs

     total energy              =    -938.20814888 Ry
     Harris-Foulkes estimate   =    -937.24491452 Ry
     estimated scf accuracy    <       0.04138896 Ry

     iteration #  2     ecut=    40.00 Ry     beta= 0.60
     Davidson diagonalization with overlap
     c_bands:  1 eigenvalues not converged
     c_bands:  1 eigenvalues not converged
     c_bands:  1 eigenvalues not converged
     ethr =  4.14E-05,  avg # of iterations =  6.9

     total cpu time spent up to now is     5918.1 secs

     total energy              =    -937.92581830 Ry
     Harris-Foulkes estimate   =    -938.56378183 Ry
     estimated scf accuracy    <      11.32232087 Ry

     iteration #  3     ecut=    40.00 Ry     beta= 0.60
     Davidson diagonalization with overlap
     ethr =  4.14E-05,  avg # of iterations =  6.5

     total cpu time spent up to now is     5989.5 secs

     total energy              =    -938.22547294 Ry
     Harris-Foulkes estimate   =    -938.27679745 Ry
     estimated scf accuracy    <       0.55926903 Ry

     iteration #  4     ecut=    40.00 Ry     beta= 0.60
     Davidson diagonalization with overlap
     ethr =  4.14E-05,  avg # of iterations =  5.2

     total cpu time spent up to now is     6043.2 secs

     total energy              =    -938.24754579 Ry
     Harris-Foulkes estimate   =    -938.25263484 Ry
     estimated scf accuracy    <       0.01818787 Ry

     iteration #  5     ecut=    40.00 Ry     beta= 0.60
     Davidson diagonalization with overlap
     ethr =  1.82E-05,  avg # of iterations =  3.4

     total cpu time spent up to now is     6082.0 secs

     total energy              =    -938.24906332 Ry
     Harris-Foulkes estimate   =    -938.25010414 Ry
     estimated scf accuracy    <       0.00991181 Ry

     iteration #  6     ecut=    40.00 Ry     beta= 0.60
     Davidson diagonalization with overlap
     ethr =  9.91E-06,  avg # of iterations =  1.3

     total cpu time spent up to now is     6113.0 secs

     total energy              =    -938.24913696 Ry
     Harris-Foulkes estimate   =    -938.24951059 Ry
     estimated scf accuracy    <       0.00521750 Ry

     iteration #  7     ecut=    40.00 Ry     beta= 0.60
     Davidson diagonalization with overlap
     ethr =  5.22E-06,  avg # of iterations =  1.5

     total cpu time spent up to now is     6144.3 secs

     total energy              =    -938.24901841 Ry
     Harris-Foulkes estimate   =    -938.24927503 Ry
     estimated scf accuracy    <       0.00522302 Ry

     iteration #  8     ecut=    40.00 Ry     beta= 0.60
     Davidson diagonalization with overlap
     c_bands:  1 eigenvalues not converged
     ethr =  5.22E-06,  avg # of iterations =  1.1

     total cpu time spent up to now is     6174.9 secs

     total energy              =    -938.24867859 Ry
     Harris-Foulkes estimate   =    -938.24910480 Ry
     estimated scf accuracy    <       0.00316492 Ry

     iteration #  9     ecut=    40.00 Ry     beta= 0.60
     Davidson diagonalization with overlap
     ethr =  3.16E-06,  avg # of iterations =  2.2

     total cpu time spent up to now is     6207.9 secs

     total energy              =    -938.24859546 Ry
     Harris-Foulkes estimate   =    -938.24875894 Ry
     estimated scf accuracy    <       0.00136108 Ry

     iteration # 10     ecut=    40.00 Ry     beta= 0.60
     Davidson diagonalization with overlap
     c_bands:  1 eigenvalues not converged
     ethr =  1.36E-06,  avg # of iterations =  3.6

     total cpu time spent up to now is     6246.7 secs

     total energy              =    -938.24857753 Ry
     Harris-Foulkes estimate   =    -938.24867378 Ry
     estimated scf accuracy    <       0.00042235 Ry

     iteration # 11     ecut=    40.00 Ry     beta= 0.60
     Davidson diagonalization with overlap
     ethr =  4.22E-07,  avg # of iterations =  4.2

     total cpu time spent up to now is     6290.5 secs

     total energy              =    -938.24863306 Ry
     Harris-Foulkes estimate   =    -938.24863785 Ry
     estimated scf accuracy    <       0.00002479 Ry

     iteration # 12     ecut=    40.00 Ry     beta= 0.60
     Davidson diagonalization with overlap
     ethr =  2.48E-08,  avg # of iterations =  4.5

     total cpu time spent up to now is     6339.3 secs

     total energy              =    -938.24863923 Ry
     Harris-Foulkes estimate   =    -938.24864118 Ry
     estimated scf accuracy    <       0.00001000 Ry

     iteration # 13     ecut=    40.00 Ry     beta= 0.60
     Davidson diagonalization with overlap
     ethr =  1.00E-08,  avg # of iterations =  3.9

     total cpu time spent up to now is     6383.4 secs

     total energy              =    -938.24863835 Ry
     Harris-Foulkes estimate   =    -938.24864241 Ry
     estimated scf accuracy    <       0.00005203 Ry

     iteration # 14     ecut=    40.00 Ry     beta= 0.60
     Davidson diagonalization with overlap
     ethr =  1.00E-08,  avg # of iterations =  3.7

     total cpu time spent up to now is     6422.4 secs

     total energy              =    -938.24864016 Ry
     Harris-Foulkes estimate   =    -938.24864048 Ry
     estimated scf accuracy    <       0.00000337 Ry

     iteration # 15     ecut=    40.00 Ry     beta= 0.60
     Davidson diagonalization with overlap
     ethr =  3.37E-09,  avg # of iterations =  3.2

     total cpu time spent up to now is     6461.0 secs

     total energy              =    -938.24863998 Ry
     Harris-Foulkes estimate   =    -938.24864065 Ry
     estimated scf accuracy    <       0.00000516 Ry

     iteration # 16     ecut=    40.00 Ry     beta= 0.60
     Davidson diagonalization with overlap
     ethr =  3.37E-09,  avg # of iterations =  2.8

     total cpu time spent up to now is     6496.1 secs

     total energy              =    -938.24864009 Ry
     Harris-Foulkes estimate   =    -938.24864050 Ry
     estimated scf accuracy    <       0.00000475 Ry

     iteration # 17     ecut=    40.00 Ry     beta= 0.60
     Davidson diagonalization with overlap
     ethr =  3.37E-09,  avg # of iterations =  1.2

     total cpu time spent up to now is     6527.1 secs

     total energy              =    -938.24864008 Ry
     Harris-Foulkes estimate   =    -938.24864036 Ry
     estimated scf accuracy    <       0.00000199 Ry

     iteration # 18     ecut=    40.00 Ry     beta= 0.60
     Davidson diagonalization with overlap
     ethr =  1.99E-09,  avg # of iterations =  2.5

     total cpu time spent up to now is     6561.1 secs

     total energy              =    -938.24864017 Ry
     Harris-Foulkes estimate   =    -938.24864029 Ry
     estimated scf accuracy    <       0.00000159 Ry

     iteration # 19     ecut=    40.00 Ry     beta= 0.60
     Davidson diagonalization with overlap
     ethr =  1.59E-09,  avg # of iterations =  1.6

     total cpu time spent up to now is     6592.7 secs

     total energy              =    -938.24864024 Ry
     Harris-Foulkes estimate   =    -938.24864025 Ry
     estimated scf accuracy    <       0.00000004 Ry

     iteration # 20     ecut=    40.00 Ry     beta= 0.60
     Davidson diagonalization with overlap
     ethr =  4.25E-11,  avg # of iterations =  5.2

     total cpu time spent up to now is     6648.4 secs

     total energy              =    -938.24864026 Ry
     Harris-Foulkes estimate   =    -938.24864029 Ry
     estimated scf accuracy    <       0.00000022 Ry

     iteration # 21     ecut=    40.00 Ry     beta= 0.60
     Davidson diagonalization with overlap
[...]

     total cpu time spent up to now is    39616.6 secs

     total energy              =    -938.18546998 Ry
     Harris-Foulkes estimate   =    -940.29296456 Ry
     estimated scf accuracy    <      44.47107474 Ry

     iteration #  9     ecut=    40.00 Ry     beta= 0.60
     Davidson diagonalization with overlap
     ethr =  1.00E-02,  avg # of iterations =  2.5

     total cpu time spent up to now is    39647.7 secs

     total energy              =    -938.25901621 Ry
     Harris-Foulkes estimate   =    -938.95687024 Ry
     estimated scf accuracy    <       9.91444572 Ry

     iteration # 10     ecut=    40.00 Ry     beta= 0.60
     Davidson diagonalization with overlap
     ethr =  9.91E-03,  avg # of iterations =  1.5

     total cpu time spent up to now is    39676.9 secs

     total energy              =    -937.36466729 Ry
     Harris-Foulkes estimate   =    -938.51781010 Ry
     estimated scf accuracy    <       3.86540463 Ry

     iteration # 11     ecut=    40.00 Ry     beta= 0.60
     Davidson diagonalization with overlap
     ethr =  3.87E-03,  avg # of iterations =  5.8

     total cpu time spent up to now is    39742.2 secs

     total energy              =    -929.39231459 Ry
     Harris-Foulkes estimate   =    -946.41082994 Ry
     estimated scf accuracy    <     218.94317854 Ry

     iteration # 12     ecut=    40.00 Ry     beta= 0.60
     Davidson diagonalization with overlap
     ethr =  3.87E-03,  avg # of iterations =  5.7

     total cpu time spent up to now is    39802.3 secs

     total energy              =    -939.42235735 Ry
     Harris-Foulkes estimate   =    -939.03421525 Ry
     estimated scf accuracy    <       7.19234375 Ry

     iteration # 13     ecut=    40.00 Ry     beta= 0.60
     Davidson diagonalization with overlap
     ethr =  3.87E-03,  avg # of iterations =  1.1

     total cpu time spent up to now is    39830.6 secs

     total energy              =    -939.19547685 Ry
     Harris-Foulkes estimate   =    -939.56279355 Ry
     estimated scf accuracy    <      15.44331630 Ry

     iteration # 14     ecut=    40.00 Ry     beta= 0.60
     Davidson diagonalization with overlap
     ethr =  3.87E-03,  avg # of iterations =  1.0

     total cpu time spent up to now is    39859.0 secs

     total energy              =    -938.40683255 Ry
     Harris-Foulkes estimate   =    -939.22178049 Ry
     estimated scf accuracy    <      14.07667525 Ry

     iteration # 15     ecut=    40.00 Ry     beta= 0.60
     Davidson diagonalization with overlap
     ethr =  3.87E-03,  avg # of iterations =  1.2

     total cpu time spent up to now is    39887.6 secs

     total energy              =    -938.81520190 Ry
     Harris-Foulkes estimate   =    -938.57942301 Ry
     estimated scf accuracy    <       5.96325104 Ry

     iteration # 16     ecut=    40.00 Ry     beta= 0.60
     Davidson diagonalization with overlap
     ethr =  3.87E-03,  avg # of iterations =  1.0

     total cpu time spent up to now is    39915.8 secs

     total energy              =    -938.11373990 Ry
     Harris-Foulkes estimate   =    -938.88921319 Ry
     estimated scf accuracy    <       8.59225597 Ry

     iteration # 17     ecut=    40.00 Ry     beta= 0.60
     Davidson diagonalization with overlap
     ethr =  3.87E-03,  avg # of iterations =  1.0

     total cpu time spent up to now is    39944.0 secs

     total energy              =    -938.02172065 Ry
     Harris-Foulkes estimate   =    -938.26910984 Ry
     estimated scf accuracy    <       2.26342004 Ry

     iteration # 18     ecut=    40.00 Ry     beta= 0.60
     Davidson diagonalization with overlap
     ethr =  2.26E-03,  avg # of iterations =  4.4

     total cpu time spent up to now is    39986.9 secs

     total energy              =    -938.25385593 Ry
     Harris-Foulkes estimate   =    -938.39484703 Ry
     estimated scf accuracy    <       3.77751973 Ry

     iteration # 19     ecut=    40.00 Ry     beta= 0.60
     Davidson diagonalization with overlap
     ethr =  2.26E-03,  avg # of iterations =  1.6

     total cpu time spent up to now is    40016.0 secs

     total energy              =    -938.13802784 Ry
     Harris-Foulkes estimate   =    -938.45637579 Ry
     estimated scf accuracy    <       4.18590342 Ry

     iteration # 20     ecut=    40.00 Ry     beta= 0.60
     Davidson diagonalization with overlap
     ethr =  2.26E-03,  avg # of iterations =  1.0

     total cpu time spent up to now is    40043.5 secs

     total energy              =    -938.22864282 Ry
     Harris-Foulkes estimate   =    -938.26905822 Ry
     estimated scf accuracy    <       0.36541746 Ry

     iteration # 21     ecut=    40.00 Ry     beta= 0.60
     Davidson diagonalization with overlap
     ethr =  3.65E-04,  avg # of iterations =  4.5

     total cpu time spent up to now is    40084.6 secs

     total energy              =    -938.25558279 Ry
     Harris-Foulkes estimate   =    -938.28865653 Ry
     estimated scf accuracy    <       0.29017807 Ry

     iteration # 22     ecut=    40.00 Ry     beta= 0.60
     Davidson diagonalization with overlap
     ethr =  2.90E-04,  avg # of iterations =  1.5

     total cpu time spent up to now is    40113.9 secs

     total energy              =    -938.26326940 Ry
     Harris-Foulkes estimate   =    -938.27079566 Ry
     estimated scf accuracy    <       0.07566112 Ry

     iteration # 23     ecut=    40.00 Ry     beta= 0.60
     Davidson diagonalization with overlap
     c_bands:  1 eigenvalues not converged
     ethr =  7.57E-05,  avg # of iterations =  5.9

     total cpu time spent up to now is    40160.0 secs

     total energy              =    -938.26918350 Ry
     Harris-Foulkes estimate   =    -938.27214386 Ry
     estimated scf accuracy    <       0.02663364 Ry

     iteration # 24     ecut=    40.00 Ry     beta= 0.60
     Davidson diagonalization with overlap
     c_bands:  2 eigenvalues not converged
     c_bands:  1 eigenvalues not converged
     c_bands:  1 eigenvalues not converged
     ethr =  2.66E-05,  avg # of iterations =  4.3

     total cpu time spent up to now is    40196.3 secs

     total energy              =    -938.26890131 Ry
     Harris-Foulkes estimate   =    -938.27230636 Ry
     estimated scf accuracy    <       0.04408773 Ry

     iteration # 25     ecut=    40.00 Ry     beta= 0.60
     Davidson diagonalization with overlap
     ethr =  2.66E-05,  avg # of iterations =  1.2

     total cpu time spent up to now is    40224.8 secs

     total energy              =    -938.27056268 Ry
     Harris-Foulkes estimate   =    -938.27106226 Ry
     estimated scf accuracy    <       0.00472987 Ry

     iteration # 26     ecut=    40.00 Ry     beta= 0.60
     Davidson diagonalization with overlap
     c_bands:  2 eigenvalues not converged
     c_bands:  1 eigenvalues not converged
     c_bands:  1 eigenvalues not converged
     ethr =  4.73E-06,  avg # of iterations =  6.7

     total cpu time spent up to now is    40270.1 secs

     total energy              =    -938.27093137 Ry
     Harris-Foulkes estimate   =    -938.27106125 Ry
     estimated scf accuracy    <       0.00076935 Ry

     iteration # 27     ecut=    40.00 Ry     beta= 0.60
     Davidson diagonalization with overlap
     c_bands:  1 eigenvalues not converged
     ethr =  7.69E-07,  avg # of iterations =  5.1

     total cpu time spent up to now is    40314.7 secs

     total energy              =    -938.27102404 Ry
     Harris-Foulkes estimate   =    -938.27108364 Ry
     estimated scf accuracy    <       0.00049440 Ry

     iteration # 28     ecut=    40.00 Ry     beta= 0.60
     Davidson diagonalization with overlap
     ethr =  4.94E-07,  avg # of iterations =  1.1

     total cpu time spent up to now is    40343.0 secs

     total energy              =    -938.27104234 Ry
     Harris-Foulkes estimate   =    -938.27105500 Ry
     estimated scf accuracy    <       0.00015060 Ry

     iteration # 29     ecut=    40.00 Ry     beta= 0.60
     Davidson diagonalization with overlap
     ethr =  1.51E-07,  avg # of iterations =  3.0

     total cpu time spent up to now is    40378.1 secs

     total energy              =    -938.27104179 Ry
     Harris-Foulkes estimate   =    -938.27105645 Ry
     estimated scf accuracy    <       0.00008240 Ry

     iteration # 30     ecut=    40.00 Ry     beta= 0.60
     Davidson diagonalization with overlap
     ethr =  8.24E-08,  avg # of iterations =  4.0

     total cpu time spent up to now is    40417.7 secs

     total energy              =    -938.27103101 Ry
     Harris-Foulkes estimate   =    -938.27107813 Ry
     estimated scf accuracy    <       0.00084949 Ry

     iteration # 31     ecut=    40.00 Ry     beta= 0.60
     Davidson diagonalization with overlap
     ethr =  8.24E-08,  avg # of iterations =  3.6

     total cpu time spent up to now is    40453.6 secs

     total energy              =    -938.27105177 Ry
     Harris-Foulkes estimate   =    -938.27105682 Ry
     estimated scf accuracy    <       0.00003211 Ry

     iteration # 32     ecut=    40.00 Ry     beta= 0.60
     Davidson diagonalization with overlap
     ethr =  3.21E-08,  avg # of iterations =  2.4

     total cpu time spent up to now is    40484.9 secs

     total energy              =    -938.27105421 Ry
     Harris-Foulkes estimate   =    -938.27105463 Ry
     estimated scf accuracy    <       0.00000356 Ry

     iteration # 33     ecut=    40.00 Ry     beta= 0.60
     Davidson diagonalization with overlap
     ethr =  3.56E-09,  avg # of iterations =  3.9

     total cpu time spent up to now is    40525.7 secs

     total energy              =    -938.27105455 Ry
     Harris-Foulkes estimate   =    -938.27105497 Ry
     estimated scf accuracy    <       0.00000428 Ry

     iteration # 34     ecut=    40.00 Ry     beta= 0.60
     Davidson diagonalization with overlap
     ethr =  3.56E-09,  avg # of iterations =  1.0

     total cpu time spent up to now is    40553.2 secs

     total energy              =    -938.27105473 Ry
     Harris-Foulkes estimate   =    -938.27105476 Ry
     estimated scf accuracy    <       0.00000017 Ry

     iteration # 35     ecut=    40.00 Ry     beta= 0.60
     Davidson diagonalization with overlap
     ethr =  1.72E-10,  avg # of iterations =  4.4

     total cpu time spent up to now is    40598.1 secs

     total energy              =    -938.27105478 Ry
     Harris-Foulkes estimate   =    -938.27105480 Ry
     estimated scf accuracy    <       0.00000023 Ry

     iteration # 36     ecut=    40.00 Ry     beta= 0.60
     Davidson diagonalization with overlap
     ethr =  1.72E-10,  avg # of iterations =  3.6

     total cpu time spent up to now is    40635.5 secs

     total energy              =    -938.27105474 Ry
     Harris-Foulkes estimate   =    -938.27105483 Ry
     estimated scf accuracy    <       0.00000168 Ry

     iteration # 37     ecut=    40.00 Ry     beta= 0.60
     Davidson diagonalization with overlap
     ethr =  1.72E-10,  avg # of iterations =  3.1

     total cpu time spent up to now is    40669.0 secs

     total energy              =    -938.27105478 Ry
     Harris-Foulkes estimate   =    -938.27105479 Ry
     estimated scf accuracy    <       0.00000003 Ry

     iteration # 38     ecut=    40.00 Ry     beta= 0.60
     Davidson diagonalization with overlap
     ethr =  3.11E-11,  avg # of iterations =  3.8

     total cpu time spent up to now is    40708.7 secs

     total energy              =    -938.27105478 Ry
     Harris-Foulkes estimate   =    -938.27105479 Ry
     estimated scf accuracy    <       0.00000008 Ry

     iteration # 39     ecut=    40.00 Ry     beta= 0.60
     Davidson diagonalization with overlap
     ethr =  3.11E-11,  avg # of iterations =  3.2

     total cpu time spent up to now is    40743.1 secs

     total energy              =    -938.27105479 Ry
     Harris-Foulkes estimate   =    -938.27105479 Ry
     estimated scf accuracy    <       0.00000001 Ry

     iteration # 40     ecut=    40.00 Ry     beta= 0.60
     Davidson diagonalization with overlap
     ethr =  1.30E-11,  avg # of iterations =  3.5

     total cpu time spent up to now is    40779.8 secs

     total energy              =    -938.27105479 Ry
     Harris-Foulkes estimate   =    -938.27105479 Ry
     estimated scf accuracy    <       0.00000009 Ry

     iteration # 41     ecut=    40.00 Ry     beta= 0.60
     Davidson diagonalization with overlap
     ethr =  1.30E-11,  avg # of iterations =  3.2

     total cpu time spent up to now is    40812.8 secs

     total energy              =    -938.27105479 Ry
     Harris-Foulkes estimate   =    -938.27105479 Ry
     estimated scf accuracy    <          3.9E-09 Ry

     iteration # 42     ecut=    40.00 Ry     beta= 0.60
     Davidson diagonalization with overlap
     ethr =  3.88E-12,  avg # of iterations =  3.0

     total cpu time spent up to now is    40846.8 secs

     total energy              =    -938.27105479 Ry
     Harris-Foulkes estimate   =    -938.27105479 Ry
     estimated scf accuracy    <          6.4E-10 Ry

     iteration # 43     ecut=    40.00 Ry     beta= 0.60
     Davidson diagonalization with overlap
     ethr =  6.42E-13,  avg # of iterations =  3.0

     total cpu time spent up to now is    40881.1 secs

     total energy              =    -938.27105479 Ry
     Harris-Foulkes estimate   =    -938.27105479 Ry
     estimated scf accuracy    <          7.3E-11 Ry

     iteration # 44     ecut=    40.00 Ry     beta= 0.60
     Davidson diagonalization with overlap
     ethr =  1.00E-13,  avg # of iterations =  3.9

     total cpu time spent up to now is    40920.9 secs

     total energy              =    -938.27105479 Ry
     Harris-Foulkes estimate   =    -938.27105479 Ry
     estimated scf accuracy    <          2.8E-11 Ry

     iteration # 45     ecut=    40.00 Ry     beta= 0.60
     Davidson diagonalization with overlap
     ethr =  1.00E-13,  avg # of iterations =  1.0

     total cpu time spent up to now is    40948.4 secs

     total energy              =    -938.27105479 Ry
     Harris-Foulkes estimate   =    -938.27105479 Ry
     estimated scf accuracy    <          1.2E-11 Ry

     iteration # 46     ecut=    40.00 Ry     beta= 0.60
     Davidson diagonalization with overlap
     ethr =  1.00E-13,  avg # of iterations =  1.0

     total cpu time spent up to now is    40975.8 secs

     total energy              =    -938.27105479 Ry
     Harris-Foulkes estimate   =    -938.27105479 Ry
     estimated scf accuracy    <          1.4E-11 Ry

     iteration # 47     ecut=    40.00 Ry     beta= 0.60
     Davidson diagonalization with overlap
     ethr =  1.00E-13,  avg # of iterations =  1.0

     total cpu time spent up to now is    41003.3 secs

     total energy              =    -938.27105479 Ry
     Harris-Foulkes estimate   =    -938.27105479 Ry
     estimated scf accuracy    <          2.6E-12 Ry

     iteration # 48     ecut=    40.00 Ry     beta= 0.60
     Davidson diagonalization with overlap
     ethr =  1.00E-13,  avg # of iterations =  1.0

     total cpu time spent up to now is    41030.8 secs

     total energy              =    -938.27105479 Ry
     Harris-Foulkes estimate   =    -938.27105479 Ry
     estimated scf accuracy    <          4.0E-12 Ry

     iteration # 49     ecut=    40.00 Ry     beta= 0.60
     Davidson diagonalization with overlap
     ethr =  1.00E-13,  avg # of iterations =  1.0

     total cpu time spent up to now is    41058.2 secs

     End of self-consistent calculation

     Number of k-points >= 100: set verbosity='high' to print the bands.

     the Fermi energy is    15.7050 ev

!    total energy              =    -938.27105479 Ry
     Harris-Foulkes estimate   =    -938.27105479 Ry
     estimated scf accuracy    <          2.3E-13 Ry

     The total energy is the sum of the following terms:

     one-electron contribution =    -232.93396976 Ry
     hartree contribution      =     158.53473443 Ry
     xc contribution           =    -131.84587658 Ry
     ewald contribution        =    -732.02550094 Ry
     smearing contrib. (-TS)   =      -0.00044195 Ry

     convergence has been achieved in  49 iterations

     Forces acting on atoms (cartesian axes, Ry/au):

     atom    1 type  1   force =     0.00003388    0.00001956    0.00000000
     atom    2 type  2   force =     0.00003899    0.00002251    0.00000000
     atom    3 type  1   force =     0.00000953    0.00000550    0.00000000
     atom    4 type  2   force =     0.00003549    0.00002049    0.00000000
     atom    5 type  2   force =    -0.00000325   -0.00000188    0.00000000
     atom    6 type  1   force =    -0.00002937   -0.00001695    0.00000000
     atom    7 type  2   force =    -0.00003859   -0.00002228    0.00000000
     atom    8 type  1   force =    -0.00004668   -0.00002695    0.00000000

     Total force =     0.000107     Total SCF correction =     0.000002


     Computing stress (Cartesian axis) and pressure

          total   stress  (Ry/bohr**3)                   (kbar)     P=   -2.76
  -0.00001193   0.00001144   0.00000000         -1.75      1.68      0.00
   0.00001144  -0.00002513   0.00000000          1.68     -3.70      0.00
   0.00000000   0.00000000  -0.00001916          0.00      0.00     -2.82

 
     init_run     :     35.01s CPU     35.92s WALL (       2 calls)
     electrons    :  39524.56s CPU  40221.26s WALL (      34 calls)
     update_pot   :     60.18s CPU     60.30s WALL (      32 calls)
     forces       :    189.00s CPU    193.58s WALL (      34 calls)
     stress       :    537.80s CPU    550.15s WALL (      34 calls)

     Called by init_run:
     wfcinit      :     32.00s CPU     32.65s WALL (       2 calls)
     potinit      :      0.92s CPU      0.94s WALL (       2 calls)
     hinit0       :      1.66s CPU      1.67s WALL (       2 calls)

     Called by electrons:
     c_bands      :  34719.41s CPU  35147.87s WALL (     948 calls)
     sum_band     :   4522.75s CPU   4685.19s WALL (     948 calls)
     v_of_rho     :     40.04s CPU     40.27s WALL (     975 calls)
     newd         :    243.35s CPU    347.25s WALL (     975 calls)
     mix_rho      :      5.82s CPU      5.85s WALL (     948 calls)

     Called by c_bands:
     init_us_2    :    432.17s CPU    434.94s WALL (  471840 calls)
     cegterg      :  31439.07s CPU  31816.83s WALL (  227520 calls)

     Called by sum_band:
     sum_band:bec :     15.80s CPU     16.47s WALL (  227520 calls)
     addusdens    :    289.16s CPU    381.66s WALL (     948 calls)

     Called by *egterg:
     h_psi        :  17574.72s CPU  17907.44s WALL (  984892 calls)
     s_psi        :   1396.61s CPU   1398.69s WALL (  984892 calls)
     g_psi        :    184.53s CPU    185.62s WALL (  756892 calls)
     cdiaghg      :   6995.69s CPU   7004.51s WALL (  975052 calls)

     Called by h_psi:
     h_psi:pot    :  17484.26s CPU  17815.04s WALL (  984892 calls)
     h_psi:calbec :   1671.83s CPU   1685.14s WALL (  984892 calls)
     vloc_psi     :  14390.99s CPU  14704.16s WALL (  984892 calls)
     add_vuspsi   :   1417.20s CPU   1420.07s WALL (  984892 calls)

     General routines
     calbec       :   2420.29s CPU   2438.87s WALL ( 1253212 calls)
     fft          :     24.84s CPU     25.21s WALL (   13530 calls)
     ffts         :      0.81s CPU      0.83s WALL (    1923 calls)
     fftw         :  15516.83s CPU  15797.09s WALL (81137126 calls)
     interpolate  :      2.12s CPU      2.14s WALL (     975 calls)
 
     Parallel routines
     fft_scatt_xy :   2857.00s CPU   2920.38s WALL (81152579 calls)
     fft_scatt_yz :   3686.07s CPU   3714.56s WALL (81152579 calls)
 
     PWSCF        :    11h12m CPU       12h11m WALL

      24h
 
   This run was terminated on:  23:36:15  31Jan2020            

=------------------------------------------------------------------------------=
   JOB DONE.
=------------------------------------------------------------------------------=
