
     Program PWSCF v.6.3MaX starts on 14Jan2020 at 22:51:49 

     This program is part of the open-source Quantum ESPRESSO suite
     for quantum simulation of materials; please cite
         "P. Giannozzi et al., J. Phys.:Condens. Matter 21 395502 (2009);
         "P. Giannozzi et al., J. Phys.:Condens. Matter 29 465901 (2017);
          URL http://www.quantum-espresso.org", 
     in publications or presentations arising from this work. More details at
     http://www.quantum-espresso.org/quote

     Parallel version (MPI), running on     4 processors

     MPI processes distributed on     1 nodes
     R & G space division:  proc/nbgrp/npool/nimage =       4
     Waiting for input...
     Reading input from standard input

     Current dimensions of program PWSCF are:
     Max number of different atomic species (ntypx) = 10
     Max number of k-points (npk) =  40000
     Max angular momentum in pseudopotentials (lmaxx) =  3
     Message from routine iosys:
     minimal I/O required, wf_collect reset to FALSE

     Subspace diagonalization in iterative solution of the eigenvalue problem:
     a serial algorithm will be used

 
     Parallelization info
     --------------------
     sticks:   dense  smooth     PW     G-vecs:    dense   smooth      PW
     Min         933     371    131                20808     5230    1110
     Max         934     372    132                20809     5231    1111
     Sum        3735    1485    527                83235    20921    4443
 


     bravais-lattice index     =            0
     lattice parameter (alat)  =       1.8897  a.u.
     unit-cell volume          =     440.0051 (a.u.)^3
     number of atoms/cell      =            3
     number of atomic types    =            2
     number of electrons       =        38.00
     number of Kohn-Sham states=           23
     kinetic-energy cutoff     =      50.0000  Ry
     charge density cutoff     =     500.0000  Ry
     convergence threshold     =      1.0E-10
     mixing beta               =       0.6000
     number of iterations used =            8  plain     mixing
     Exchange-correlation      = SLA PW PBE PBE ( 1  4  3  4 0 0)
     nstep                     =           50


     celldm(1)=   1.889726  celldm(2)=   0.000000  celldm(3)=   0.000000
     celldm(4)=   0.000000  celldm(5)=   0.000000  celldm(6)=   0.000000

     crystal axes: (cart. coord. in units of alat)
               a(1) = (  -1.758031   5.274095  -1.758031 )  
               a(2) = (   1.758031   5.274095   1.758031 )  
               a(3) = (   1.758031  -5.274095  -1.758031 )  

     reciprocal axes: (cart. coord. in units 2 pi/alat)
               b(1) = (  0.000000  0.094803 -0.284409 )  
               b(2) = (  0.284409  0.094803  0.000000 )  
               b(3) = (  0.284409  0.000000 -0.284409 )  


     PseudoPot. # 1 for Nb read from file:
     /home/u16/abhishekkt/fp/krishna/calculations/pseudopotentials/Nb.pbe-nsp-van.UPF
     MD5 check sum: c44c1a86bf31974e1e832c2ec821fd5f
     Pseudo is Ultrasoft + core correction, Zval = 13.0
     Generated by new atomic code, or converted to UPF format
     Using radial grid of  887 points,  6 beta functions with: 
                l(1) =   0
                l(2) =   0
                l(3) =   1
                l(4) =   1
                l(5) =   2
                l(6) =   2
     Q(r) pseudized with  6 coefficients,  rinner =    1.000   1.000   1.000
                                                       1.000   1.000

     PseudoPot. # 2 for Ti read from file:
     /home/u16/abhishekkt/fp/krishna/calculations/pseudopotentials/Ti.pbe-sp-van_ak.UPF
     MD5 check sum: 84d3ec9e8983e94242673103c800fb48
     Pseudo is Ultrasoft, Zval = 12.0
     Generated by new atomic code, or converted to UPF format
     Using radial grid of  851 points,  6 beta functions with: 
                l(1) =   0
                l(2) =   0
                l(3) =   1
                l(4) =   1
                l(5) =   2
                l(6) =   2
     Q(r) pseudized with  8 coefficients,  rinner =    1.000   1.000   1.000
                                                       1.000   1.000

     atomic species   valence    mass     pseudopotential
        Nb            13.00    92.90638     Nb( 1.00)
        Ti            12.00    47.86700     Ti( 1.00)

      8 Sym. Ops. (no inversion) found
          (note:  8 additional sym.ops. were found but ignored
           their fractional translations are incommensurate with FFT grid)


   Cartesian axes

     site n.     atom                  positions (alat units)
         1           Ti  tau(   1) = (   1.7580316   1.7580316  -1.7580316  )
         2           Nb  tau(   2) = (   1.7580316   5.2740949  -1.7580316  )
         3           Nb  tau(   3) = (   1.7580316  -1.7580316  -1.7580316  )

     number of k points=   244  Marzari-Vanderbilt smearing, width (Ry)=  0.0200

     Number of k-points >= 100: set verbosity='high' to print them.

     Dense  grid:    83235 G-vectors     FFT dimensions: (  80,  80,  80)

     Smooth grid:    20921 G-vectors     FFT dimensions: (  50,  50,  50)

     Estimated max dynamical RAM per process >     140.89 MB

     Estimated total dynamical RAM >     563.56 MB

     Initial potential from superposition of free atoms

     starting charge   36.99449, renormalised to   38.00000
     Starting wfcs are   36 randomized atomic wfcs

     total cpu time spent up to now is       12.4 secs

     Self-consistent Calculation

     iteration #  1     ecut=    50.00 Ry     beta= 0.60
     Davidson diagonalization with overlap
     ethr =  1.00E-02,  avg # of iterations =  2.6

     total cpu time spent up to now is       30.7 secs

     total energy              =    -337.17079638 Ry
     Harris-Foulkes estimate   =    -354.05501756 Ry
     estimated scf accuracy    <      21.18998723 Ry

     iteration #  2     ecut=    50.00 Ry     beta= 0.60
     Davidson diagonalization with overlap
     ethr =  1.00E-02,  avg # of iterations =  6.9

     total cpu time spent up to now is       62.0 secs

     total energy              =    -341.43756512 Ry
     Harris-Foulkes estimate   =    -377.02704461 Ry
     estimated scf accuracy    <     113.63259515 Ry

     iteration #  3     ecut=    50.00 Ry     beta= 0.60
     Davidson diagonalization with overlap
     ethr =  1.00E-02,  avg # of iterations =  5.1

     total cpu time spent up to now is       88.1 secs

     total energy              =    -353.46426919 Ry
     Harris-Foulkes estimate   =    -354.10545368 Ry
     estimated scf accuracy    <       6.58781618 Ry

     iteration #  4     ecut=    50.00 Ry     beta= 0.60
     Davidson diagonalization with overlap
     ethr =  1.00E-02,  avg # of iterations =  1.0

     total cpu time spent up to now is      103.1 secs

     total energy              =    -352.98089898 Ry
     Harris-Foulkes estimate   =    -353.50260890 Ry
     estimated scf accuracy    <       4.79451523 Ry

     iteration #  5     ecut=    50.00 Ry     beta= 0.60
     Davidson diagonalization with overlap
     ethr =  1.00E-02,  avg # of iterations =  1.0

     total cpu time spent up to now is      118.1 secs

     total energy              =    -352.65558548 Ry
     Harris-Foulkes estimate   =    -353.01295539 Ry
     estimated scf accuracy    <       3.50608615 Ry

     iteration #  6     ecut=    50.00 Ry     beta= 0.60
     Davidson diagonalization with overlap
     ethr =  9.23E-03,  avg # of iterations =  1.0

     total cpu time spent up to now is      133.1 secs

     total energy              =    -352.40921740 Ry
     Harris-Foulkes estimate   =    -352.68454957 Ry
     estimated scf accuracy    <       2.58175222 Ry

     iteration #  7     ecut=    50.00 Ry     beta= 0.60
     Davidson diagonalization with overlap
     ethr =  6.79E-03,  avg # of iterations =  2.1

     total cpu time spent up to now is      148.8 secs

     total energy              =    -352.15968099 Ry
     Harris-Foulkes estimate   =    -352.48571082 Ry
     estimated scf accuracy    <       1.24158613 Ry

     iteration #  8     ecut=    50.00 Ry     beta= 0.60
     Davidson diagonalization with overlap
     ethr =  3.27E-03,  avg # of iterations =  4.9

     total cpu time spent up to now is      171.4 secs

     total energy              =    -352.39735925 Ry
     Harris-Foulkes estimate   =    -352.58447585 Ry
     estimated scf accuracy    <       2.88916681 Ry

     iteration #  9     ecut=    50.00 Ry     beta= 0.60
     Davidson diagonalization with overlap
     ethr =  3.27E-03,  avg # of iterations =  1.0

     total cpu time spent up to now is      186.4 secs

     total energy              =    -352.34242113 Ry
     Harris-Foulkes estimate   =    -352.44625405 Ry
     estimated scf accuracy    <       0.76580069 Ry

     iteration # 10     ecut=    50.00 Ry     beta= 0.60
     Davidson diagonalization with overlap
     ethr =  2.02E-03,  avg # of iterations =  3.9

     total cpu time spent up to now is      204.1 secs

     total energy              =    -352.47075486 Ry
     Harris-Foulkes estimate   =    -352.44812684 Ry
     estimated scf accuracy    <       0.06929292 Ry

     iteration # 11     ecut=    50.00 Ry     beta= 0.60
     Davidson diagonalization with overlap
     ethr =  1.82E-04,  avg # of iterations =  6.8

     total cpu time spent up to now is      228.6 secs

     total energy              =    -352.39222244 Ry
     Harris-Foulkes estimate   =    -352.49963096 Ry
     estimated scf accuracy    <       0.55919085 Ry

     iteration # 12     ecut=    50.00 Ry     beta= 0.60
     Davidson diagonalization with overlap
     ethr =  1.82E-04,  avg # of iterations =  4.9

     total cpu time spent up to now is      252.6 secs

     total energy              =    -352.44107298 Ry
     Harris-Foulkes estimate   =    -352.44205044 Ry
     estimated scf accuracy    <       0.01046595 Ry

     iteration # 13     ecut=    50.00 Ry     beta= 0.60
     Davidson diagonalization with overlap
     ethr =  2.75E-05,  avg # of iterations =  1.5

     total cpu time spent up to now is      267.9 secs

     total energy              =    -352.44050629 Ry
     Harris-Foulkes estimate   =    -352.44134720 Ry
     estimated scf accuracy    <       0.00302424 Ry

     iteration # 14     ecut=    50.00 Ry     beta= 0.60
     Davidson diagonalization with overlap
     ethr =  7.96E-06,  avg # of iterations =  4.9

     total cpu time spent up to now is      289.4 secs

     total energy              =    -352.44077183 Ry
     Harris-Foulkes estimate   =    -352.44163776 Ry
     estimated scf accuracy    <       0.00574135 Ry

     iteration # 15     ecut=    50.00 Ry     beta= 0.60
     Davidson diagonalization with overlap
     ethr =  7.96E-06,  avg # of iterations =  2.7

     total cpu time spent up to now is      305.7 secs

     total energy              =    -352.44113538 Ry
     Harris-Foulkes estimate   =    -352.44112034 Ry
     estimated scf accuracy    <       0.00011837 Ry

     iteration # 16     ecut=    50.00 Ry     beta= 0.60
     Davidson diagonalization with overlap
     ethr =  3.11E-07,  avg # of iterations =  5.3

     total cpu time spent up to now is      328.3 secs

     total energy              =    -352.44123310 Ry
     Harris-Foulkes estimate   =    -352.44123538 Ry
     estimated scf accuracy    <       0.00001012 Ry

     iteration # 17     ecut=    50.00 Ry     beta= 0.60
     Davidson diagonalization with overlap
     ethr =  2.66E-08,  avg # of iterations =  3.5

     total cpu time spent up to now is      346.2 secs

     total energy              =    -352.44123433 Ry
     Harris-Foulkes estimate   =    -352.44123459 Ry
     estimated scf accuracy    <       0.00000410 Ry

     iteration # 18     ecut=    50.00 Ry     beta= 0.60
     Davidson diagonalization with overlap
     ethr =  1.08E-08,  avg # of iterations =  2.6

     total cpu time spent up to now is      362.6 secs

     total energy              =    -352.44123434 Ry
     Harris-Foulkes estimate   =    -352.44123465 Ry
     estimated scf accuracy    <       0.00000706 Ry

     iteration # 19     ecut=    50.00 Ry     beta= 0.60
     Davidson diagonalization with overlap
     ethr =  1.08E-08,  avg # of iterations =  1.0

     total cpu time spent up to now is      377.6 secs

     total energy              =    -352.44123425 Ry
     Harris-Foulkes estimate   =    -352.44123441 Ry
     estimated scf accuracy    <       0.00000574 Ry

     iteration # 20     ecut=    50.00 Ry     beta= 0.60
     Davidson diagonalization with overlap
     ethr =  1.08E-08,  avg # of iterations =  1.0

     total cpu time spent up to now is      392.5 secs

     total energy              =    -352.44123370 Ry
     Harris-Foulkes estimate   =    -352.44123430 Ry
     estimated scf accuracy    <       0.00000480 Ry

     iteration # 21     ecut=    50.00 Ry     beta= 0.60
     Davidson diagonalization with overlap
     ethr =  1.08E-08,  avg # of iterations =  1.1

     total cpu time spent up to now is      407.5 secs

     total energy              =    -352.44123376 Ry
     Harris-Foulkes estimate   =    -352.44123388 Ry
     estimated scf accuracy    <       0.00000077 Ry

     iteration # 22     ecut=    50.00 Ry     beta= 0.60
     Davidson diagonalization with overlap
     ethr =  2.04E-09,  avg # of iterations =  4.4

     total cpu time spent up to now is      427.3 secs

     total energy              =    -352.44123397 Ry
     Harris-Foulkes estimate   =    -352.44123400 Ry
     estimated scf accuracy    <       0.00000047 Ry

     iteration # 23     ecut=    50.00 Ry     beta= 0.60
     Davidson diagonalization with overlap
     ethr =  1.24E-09,  avg # of iterations =  1.0

     total cpu time spent up to now is      442.2 secs

     total energy              =    -352.44123394 Ry
     Harris-Foulkes estimate   =    -352.44123398 Ry
     estimated scf accuracy    <       0.00000022 Ry

     iteration # 24     ecut=    50.00 Ry     beta= 0.60
     Davidson diagonalization with overlap
     ethr =  5.88E-10,  avg # of iterations =  3.2

     total cpu time spent up to now is      459.6 secs

     total energy              =    -352.44123397 Ry
     Harris-Foulkes estimate   =    -352.44123397 Ry
     estimated scf accuracy    <          7.4E-09 Ry

     iteration # 25     ecut=    50.00 Ry     beta= 0.60
     Davidson diagonalization with overlap
     ethr =  1.94E-11,  avg # of iterations =  4.0

     total cpu time spent up to now is      478.1 secs

     total energy              =    -352.44123397 Ry
     Harris-Foulkes estimate   =    -352.44123397 Ry
     estimated scf accuracy    <          6.2E-09 Ry

     iteration # 26     ecut=    50.00 Ry     beta= 0.60
     Davidson diagonalization with overlap
     ethr =  1.63E-11,  avg # of iterations =  1.1

     total cpu time spent up to now is      493.1 secs

     total energy              =    -352.44123397 Ry
     Harris-Foulkes estimate   =    -352.44123397 Ry
     estimated scf accuracy    <          1.2E-09 Ry

     iteration # 27     ecut=    50.00 Ry     beta= 0.60
     Davidson diagonalization with overlap
     ethr =  3.05E-12,  avg # of iterations =  4.0

     total cpu time spent up to now is      511.8 secs

     total energy              =    -352.44123397 Ry
     Harris-Foulkes estimate   =    -352.44123397 Ry
     estimated scf accuracy    <          1.7E-10 Ry

     iteration # 28     ecut=    50.00 Ry     beta= 0.60
     Davidson diagonalization with overlap
     ethr =  4.43E-13,  avg # of iterations =  2.2

     total cpu time spent up to now is      527.7 secs

     End of self-consistent calculation

     Number of k-points >= 100: set verbosity='high' to print the bands.

     the Fermi energy is    12.9227 ev

!    total energy              =    -352.44123397 Ry
     Harris-Foulkes estimate   =    -352.44123397 Ry
     estimated scf accuracy    <          1.3E-11 Ry

     The total energy is the sum of the following terms:

     one-electron contribution =     -99.82746466 Ry
     hartree contribution      =      62.05995561 Ry
     xc contribution           =     -50.87137536 Ry
     ewald contribution        =    -263.80147973 Ry
     smearing contrib. (-TS)   =      -0.00086982 Ry

     convergence has been achieved in  28 iterations

     Forces acting on atoms (cartesian axes, Ry/au):

     atom    1 type  2   force =     0.00000000    0.00000530    0.00000000
     atom    2 type  1   force =     0.00000000   -0.02699502    0.00000000
     atom    3 type  1   force =     0.00000000    0.02698972    0.00000000

     Total force =     0.038173     Total SCF correction =     0.000010


     Computing stress (Cartesian axis) and pressure

          total   stress  (Ry/bohr**3)                   (kbar)     P= -208.95
  -0.00139352   0.00000000   0.00000000       -204.99      0.00      0.00
   0.00000000  -0.00147409  -0.00000000          0.00   -216.85     -0.00
   0.00000000  -0.00000000  -0.00139352          0.00     -0.00   -204.99


     BFGS Geometry Optimization

     number of scf cycles    =   1
     number of bfgs steps    =   0

     enthalpy new            =    -352.4412339697 Ry

     new trust radius        =       0.1546048478 bohr
     new conv_thr            =            1.0E-10 Ry

     new unit-cell volume =    394.77619 a.u.^3 (    58.49980 Ang^3 )
     density =      6.63309 g/cm^3

CELL_PARAMETERS (alat=  1.88972599)
  -1.696785018   5.079732138  -1.696785018
   1.696785018   5.079732138   1.696785018
   1.696785018  -5.079732138  -1.696785018

ATOMIC_POSITIONS (angstrom)
Ti       1.696785018   1.693246747  -1.696785018
Nb       1.696785018   5.065973428  -1.696785018
Nb       1.696785018  -1.679488037  -1.696785018


     NEW-OLD atomic charge density approx. for the potential
     extrapolated charge   33.76160, renormalised to   38.00000

     total cpu time spent up to now is      533.9 secs

     Self-consistent Calculation

     iteration #  1     ecut=    50.00 Ry     beta= 0.60
     Davidson diagonalization with overlap
     c_bands:  1 eigenvalues not converged
     c_bands:  1 eigenvalues not converged
     c_bands:  1 eigenvalues not converged
     c_bands:  1 eigenvalues not converged
     c_bands:  1 eigenvalues not converged
     c_bands:  1 eigenvalues not converged
     c_bands:  1 eigenvalues not converged
     c_bands:  1 eigenvalues not converged
     c_bands:  1 eigenvalues not converged
     c_bands:  1 eigenvalues not converged
     c_bands:  1 eigenvalues not converged
     c_bands:  1 eigenvalues not converged
     c_bands:  1 eigenvalues not converged
     c_bands:  1 eigenvalues not converged
     c_bands:  1 eigenvalues not converged
     c_bands:  1 eigenvalues not converged
     c_bands:  1 eigenvalues not converged
     c_bands:  1 eigenvalues not converged
     c_bands:  1 eigenvalues not converged
     c_bands:  1 eigenvalues not converged
     c_bands:  1 eigenvalues not converged
     c_bands:  1 eigenvalues not converged
     c_bands:  1 eigenvalues not converged
     c_bands:  1 eigenvalues not converged
     c_bands:  1 eigenvalues not converged
     c_bands:  1 eigenvalues not converged
     c_bands:  1 eigenvalues not converged
     c_bands:  1 eigenvalues not converged
     ethr =  1.00E-06,  avg # of iterations = 15.1

     total cpu time spent up to now is      587.0 secs

     total energy              =    -333.20447953 Ry
     Harris-Foulkes estimate   =    -360.17493670 Ry
     estimated scf accuracy    <      21.74924003 Ry

     iteration #  2     ecut=    50.00 Ry     beta= 0.60
     Davidson diagonalization with overlap
     ethr =  1.00E-02,  avg # of iterations =  6.2

     total cpu time spent up to now is      615.6 secs

     total energy              =    -344.19564796 Ry
     Harris-Foulkes estimate   =    -379.80232249 Ry
     estimated scf accuracy    <     114.80012054 Ry

     iteration #  3     ecut=    50.00 Ry     beta= 0.60
     Davidson diagonalization with overlap
     ethr =  1.00E-02,  avg # of iterations =  5.0

     total cpu time spent up to now is      641.1 secs

     total energy              =    -353.97869750 Ry
     Harris-Foulkes estimate   =    -355.61779449 Ry
     estimated scf accuracy    <       7.70306227 Ry

     iteration #  4     ecut=    50.00 Ry     beta= 0.60
     Davidson diagonalization with overlap
     ethr =  1.00E-02,  avg # of iterations =  1.0

     total cpu time spent up to now is      655.8 secs

     total energy              =    -352.91270560 Ry
     Harris-Foulkes estimate   =    -354.09826310 Ry
     estimated scf accuracy    <       5.33072137 Ry

     iteration #  5     ecut=    50.00 Ry     beta= 0.60
     Davidson diagonalization with overlap
     ethr =  1.00E-02,  avg # of iterations =  2.0

     total cpu time spent up to now is      671.5 secs

     total energy              =    -352.81659505 Ry
     Harris-Foulkes estimate   =    -353.05249863 Ry
     estimated scf accuracy    <       2.68152572 Ry

     iteration #  6     ecut=    50.00 Ry     beta= 0.60
     Davidson diagonalization with overlap
     ethr =  7.06E-03,  avg # of iterations =  1.0

     total cpu time spent up to now is      686.2 secs

     total energy              =    -352.81012081 Ry
     Harris-Foulkes estimate   =    -352.83860712 Ry
     estimated scf accuracy    <       2.07921144 Ry

     iteration #  7     ecut=    50.00 Ry     beta= 0.60
     Davidson diagonalization with overlap
     ethr =  5.47E-03,  avg # of iterations =  1.0

     total cpu time spent up to now is      701.0 secs

     total energy              =    -352.68890270 Ry
     Harris-Foulkes estimate   =    -352.82141069 Ry
     estimated scf accuracy    <       1.95342592 Ry

     iteration #  8     ecut=    50.00 Ry     beta= 0.60
     Davidson diagonalization with overlap
     ethr =  5.14E-03,  avg # of iterations =  1.0

     total cpu time spent up to now is      715.8 secs

     total energy              =    -352.34045557 Ry
     Harris-Foulkes estimate   =    -352.70263263 Ry
     estimated scf accuracy    <       1.53283843 Ry

     iteration #  9     ecut=    50.00 Ry     beta= 0.60
     Davidson diagonalization with overlap
     ethr =  4.03E-03,  avg # of iterations =  3.6

     total cpu time spent up to now is      733.8 secs

     total energy              =    -352.50770719 Ry
     Harris-Foulkes estimate   =    -352.50320471 Ry
     estimated scf accuracy    <       0.04885471 Ry

     iteration # 10     ecut=    50.00 Ry     beta= 0.60
     Davidson diagonalization with overlap
     ethr =  1.29E-04,  avg # of iterations =  5.6

     total cpu time spent up to now is      755.9 secs

     total energy              =    -352.50682111 Ry
     Harris-Foulkes estimate   =    -352.51993685 Ry
     estimated scf accuracy    <       0.07759554 Ry

     iteration # 11     ecut=    50.00 Ry     beta= 0.60
     Davidson diagonalization with overlap
     ethr =  1.29E-04,  avg # of iterations =  5.1

     total cpu time spent up to now is      783.6 secs

     total energy              =    -352.46585707 Ry
     Harris-Foulkes estimate   =    -354.20892988 Ry
     estimated scf accuracy    <      27.69330233 Ry

     iteration # 12     ecut=    50.00 Ry     beta= 0.60
     Davidson diagonalization with overlap
     ethr =  1.29E-04,  avg # of iterations =  5.4

     total cpu time spent up to now is      809.8 secs

     total energy              =    -352.59607804 Ry
     Harris-Foulkes estimate   =    -352.84629696 Ry
     estimated scf accuracy    <       7.30992920 Ry

     iteration # 13     ecut=    50.00 Ry     beta= 0.60
     Davidson diagonalization with overlap
     ethr =  1.29E-04,  avg # of iterations =  4.6

     total cpu time spent up to now is      830.3 secs

     total energy              =    -352.31993978 Ry
     Harris-Foulkes estimate   =    -352.64622216 Ry
     estimated scf accuracy    <       2.70464764 Ry

     iteration # 14     ecut=    50.00 Ry     beta= 0.60
     Davidson diagonalization with overlap
     ethr =  1.29E-04,  avg # of iterations =  6.4

     total cpu time spent up to now is      858.4 secs

     total energy              =    -352.65637148 Ry
     Harris-Foulkes estimate   =    -352.54724853 Ry
     estimated scf accuracy    <       0.15671049 Ry

     iteration # 15     ecut=    50.00 Ry     beta= 0.60
     Davidson diagonalization with overlap
     ethr =  1.29E-04,  avg # of iterations =  6.1

     total cpu time spent up to now is      885.0 secs

     total energy              =    -352.86948351 Ry
     Harris-Foulkes estimate   =    -352.73528377 Ry
     estimated scf accuracy    <       0.99930701 Ry

     iteration # 16     ecut=    50.00 Ry     beta= 0.60
     Davidson diagonalization with overlap
     ethr =  1.29E-04,  avg # of iterations =  3.0

     total cpu time spent up to now is      903.2 secs

     total energy              =    -352.74708533 Ry
     Harris-Foulkes estimate   =    -352.87671093 Ry
     estimated scf accuracy    <       1.36005302 Ry

     iteration # 17     ecut=    50.00 Ry     beta= 0.60
     Davidson diagonalization with overlap
     ethr =  1.29E-04,  avg # of iterations =  2.8

     total cpu time spent up to now is      920.3 secs

     total energy              =    -352.42522027 Ry
     Harris-Foulkes estimate   =    -352.75190516 Ry
     estimated scf accuracy    <       1.05267467 Ry

     iteration # 18     ecut=    50.00 Ry     beta= 0.60
     Davidson diagonalization with overlap
     ethr =  1.29E-04,  avg # of iterations =  5.5

     total cpu time spent up to now is      948.7 secs

     total energy              =    -352.51063029 Ry
     Harris-Foulkes estimate   =    -352.51004757 Ry
     estimated scf accuracy    <       0.16194973 Ry

     iteration # 19     ecut=    50.00 Ry     beta= 0.60
     Davidson diagonalization with overlap
     ethr =  1.29E-04,  avg # of iterations =  2.3

     total cpu time spent up to now is      964.8 secs

     total energy              =    -352.50525565 Ry
     Harris-Foulkes estimate   =    -352.51563341 Ry
     estimated scf accuracy    <       0.12510861 Ry

     iteration # 20     ecut=    50.00 Ry     beta= 0.60
     Davidson diagonalization with overlap
     ethr =  1.29E-04,  avg # of iterations =  1.0

     total cpu time spent up to now is      979.5 secs

     total energy              =    -352.46323788 Ry
     Harris-Foulkes estimate   =    -352.50649445 Ry
     estimated scf accuracy    <       0.07839172 Ry

     iteration # 21     ecut=    50.00 Ry     beta= 0.60
     Davidson diagonalization with overlap
     ethr =  1.29E-04,  avg # of iterations =  5.3

     total cpu time spent up to now is     1005.6 secs

     total energy              =    -352.49941123 Ry
     Harris-Foulkes estimate   =    -352.53016991 Ry
     estimated scf accuracy    <       0.54849640 Ry

     iteration # 22     ecut=    50.00 Ry     beta= 0.60
     Davidson diagonalization with overlap
     ethr =  1.29E-04,  avg # of iterations =  2.0

     total cpu time spent up to now is     1020.9 secs

     total energy              =    -352.45742887 Ry
     Harris-Foulkes estimate   =    -352.50426242 Ry
     estimated scf accuracy    <       0.23869377 Ry

     iteration # 23     ecut=    50.00 Ry     beta= 0.60
     Davidson diagonalization with overlap
     ethr =  1.29E-04,  avg # of iterations =  5.4

     total cpu time spent up to now is     1044.8 secs

     total energy              =    -352.49424244 Ry
     Harris-Foulkes estimate   =    -352.50006763 Ry
     estimated scf accuracy    <       0.05988840 Ry

     iteration # 24     ecut=    50.00 Ry     beta= 0.60
     Davidson diagonalization with overlap
     ethr =  1.29E-04,  avg # of iterations =  1.0

     total cpu time spent up to now is     1059.6 secs

     total energy              =    -352.49299433 Ry
     Harris-Foulkes estimate   =    -352.49507712 Ry
     estimated scf accuracy    <       0.02667346 Ry

     iteration # 25     ecut=    50.00 Ry     beta= 0.60
     Davidson diagonalization with overlap
     ethr =  7.02E-05,  avg # of iterations =  3.1

     total cpu time spent up to now is     1076.1 secs

     total energy              =    -352.49431135 Ry
     Harris-Foulkes estimate   =    -352.49446075 Ry
     estimated scf accuracy    <       0.00265527 Ry

     iteration # 26     ecut=    50.00 Ry     beta= 0.60
     Davidson diagonalization with overlap
     ethr =  6.99E-06,  avg # of iterations =  6.3

     total cpu time spent up to now is     1097.1 secs

     total energy              =    -352.49444026 Ry
     Harris-Foulkes estimate   =    -352.49454645 Ry
     estimated scf accuracy    <       0.00058441 Ry

     iteration # 27     ecut=    50.00 Ry     beta= 0.60
     Davidson diagonalization with overlap
     ethr =  1.54E-06,  avg # of iterations =  4.7

     total cpu time spent up to now is     1115.5 secs

     total energy              =    -352.49451537 Ry
     Harris-Foulkes estimate   =    -352.49451884 Ry
     estimated scf accuracy    <       0.00001990 Ry

     iteration # 28     ecut=    50.00 Ry     beta= 0.60
     Davidson diagonalization with overlap
     ethr =  5.24E-08,  avg # of iterations =  4.1

     total cpu time spent up to now is     1134.9 secs

     total energy              =    -352.49452067 Ry
     Harris-Foulkes estimate   =    -352.49452164 Ry
     estimated scf accuracy    <       0.00000705 Ry

     iteration # 29     ecut=    50.00 Ry     beta= 0.60
     Davidson diagonalization with overlap
     ethr =  1.86E-08,  avg # of iterations =  3.1

     total cpu time spent up to now is     1151.5 secs

     total energy              =    -352.49452121 Ry
     Harris-Foulkes estimate   =    -352.49452128 Ry
     estimated scf accuracy    <       0.00000039 Ry

     iteration # 30     ecut=    50.00 Ry     beta= 0.60
     Davidson diagonalization with overlap
     ethr =  1.02E-09,  avg # of iterations =  4.2

     total cpu time spent up to now is     1171.0 secs

     total energy              =    -352.49452131 Ry
     Harris-Foulkes estimate   =    -352.49452132 Ry
     estimated scf accuracy    <       0.00000005 Ry

     iteration # 31     ecut=    50.00 Ry     beta= 0.60
     Davidson diagonalization with overlap
     ethr =  1.31E-10,  avg # of iterations =  4.1

     total cpu time spent up to now is     1190.7 secs

     total energy              =    -352.49452130 Ry
     Harris-Foulkes estimate   =    -352.49452134 Ry
     estimated scf accuracy    <       0.00000018 Ry

     iteration # 32     ecut=    50.00 Ry     beta= 0.60
     Davidson diagonalization with overlap
     ethr =  1.31E-10,  avg # of iterations =  4.0

     total cpu time spent up to now is     1209.0 secs

     total energy              =    -352.49452132 Ry
     Harris-Foulkes estimate   =    -352.49452132 Ry
     estimated scf accuracy    <          6.2E-09 Ry

     iteration # 33     ecut=    50.00 Ry     beta= 0.60
     Davidson diagonalization with overlap
     ethr =  1.64E-11,  avg # of iterations =  2.8

     total cpu time spent up to now is     1225.7 secs

     total energy              =    -352.49452132 Ry
     Harris-Foulkes estimate   =    -352.49452132 Ry
     estimated scf accuracy    <          2.4E-09 Ry

     iteration # 34     ecut=    50.00 Ry     beta= 0.60
     Davidson diagonalization with overlap
     ethr =  6.31E-12,  avg # of iterations =  3.9

     total cpu time spent up to now is     1244.1 secs

     total energy              =    -352.49452132 Ry
     Harris-Foulkes estimate   =    -352.49452132 Ry
     estimated scf accuracy    <          3.4E-09 Ry

     iteration # 35     ecut=    50.00 Ry     beta= 0.60
     Davidson diagonalization with overlap
     ethr =  6.31E-12,  avg # of iterations =  1.0

     total cpu time spent up to now is     1258.9 secs

     total energy              =    -352.49452132 Ry
     Harris-Foulkes estimate   =    -352.49452132 Ry
     estimated scf accuracy    <          6.5E-10 Ry

     iteration # 36     ecut=    50.00 Ry     beta= 0.60
     Davidson diagonalization with overlap
     ethr =  1.71E-12,  avg # of iterations =  3.7

     total cpu time spent up to now is     1277.1 secs

     total energy              =    -352.49452132 Ry
     Harris-Foulkes estimate   =    -352.49452132 Ry
     estimated scf accuracy    <          2.1E-10 Ry

     iteration # 37     ecut=    50.00 Ry     beta= 0.60
     Davidson diagonalization with overlap
     ethr =  5.46E-13,  avg # of iterations =  1.0

     total cpu time spent up to now is     1291.9 secs

     End of self-consistent calculation

     Number of k-points >= 100: set verbosity='high' to print the bands.

     the Fermi energy is    14.7363 ev

!    total energy              =    -352.49452132 Ry
     Harris-Foulkes estimate   =    -352.49452132 Ry
     estimated scf accuracy    <          4.7E-11 Ry

     The total energy is the sum of the following terms:

     one-electron contribution =     -85.75611236 Ry
     hartree contribution      =      57.87489175 Ry
     xc contribution           =     -51.15054231 Ry
     ewald contribution        =    -273.46157677 Ry
     smearing contrib. (-TS)   =      -0.00118162 Ry

     convergence has been achieved in  37 iterations

     Forces acting on atoms (cartesian axes, Ry/au):

     atom    1 type  2   force =     0.00000000   -0.00000034    0.00000000
     atom    2 type  1   force =     0.00000000   -0.01993988    0.00000000
     atom    3 type  1   force =     0.00000000    0.01994022   -0.00000000

     Total force =     0.028199     Total SCF correction =     0.000015


     Computing stress (Cartesian axis) and pressure

          total   stress  (Ry/bohr**3)                   (kbar)     P= -120.16
  -0.00078926   0.00000000   0.00000000       -116.10      0.00      0.00
   0.00000000  -0.00087205  -0.00000000          0.00   -128.28     -0.00
  -0.00000000   0.00000000  -0.00078926         -0.00      0.00   -116.10


     number of scf cycles    =   2
     number of bfgs steps    =   1

     enthalpy old            =    -352.4412339697 Ry
     enthalpy new            =    -352.4945213166 Ry

     CASE: enthalpy_new < enthalpy_old

     new trust radius        =       0.1823584823 bohr
     new conv_thr            =            1.0E-10 Ry

     new unit-cell volume =    346.14229 a.u.^3 (    51.29299 Ang^3 )
     density =      7.56506 g/cm^3

CELL_PARAMETERS (alat=  1.88972599)
  -1.626595294   4.846621918  -1.626595294
   1.626595294   4.846621918   1.626595294
   1.626595294  -4.846621918  -1.626595294

ATOMIC_POSITIONS (angstrom)
Ti       1.626595294   1.615542879  -1.626595294
Nb       1.626595294   4.813183430  -1.626595294
Nb       1.626595294  -1.582104391  -1.626595294


     NEW-OLD atomic charge density approx. for the potential
     extrapolated charge   32.80218, renormalised to   38.00000

     total cpu time spent up to now is     1298.4 secs

     Self-consistent Calculation

     iteration #  1     ecut=    50.00 Ry     beta= 0.60
     Davidson diagonalization with overlap
     c_bands:  1 eigenvalues not converged
     c_bands:  1 eigenvalues not converged
     c_bands:  1 eigenvalues not converged
     c_bands:  1 eigenvalues not converged
     c_bands:  1 eigenvalues not converged
     c_bands:  1 eigenvalues not converged
     c_bands:  1 eigenvalues not converged
     c_bands:  1 eigenvalues not converged
     c_bands:  1 eigenvalues not converged
     c_bands:  1 eigenvalues not converged
     c_bands:  1 eigenvalues not converged
     c_bands:  1 eigenvalues not converged
     c_bands:  1 eigenvalues not converged
     c_bands:  1 eigenvalues not converged
     c_bands:  1 eigenvalues not converged
     c_bands:  1 eigenvalues not converged
     c_bands:  1 eigenvalues not converged
     c_bands:  1 eigenvalues not converged
     c_bands:  1 eigenvalues not converged
     c_bands:  1 eigenvalues not converged
     c_bands:  1 eigenvalues not converged
     c_bands:  1 eigenvalues not converged
     c_bands:  1 eigenvalues not converged
     c_bands:  1 eigenvalues not converged
     ethr =  1.00E-06,  avg # of iterations = 13.9

     total cpu time spent up to now is     1350.0 secs

     total energy              =    -331.61146448 Ry
     Harris-Foulkes estimate   =    -360.47736207 Ry
     estimated scf accuracy    <      23.29285217 Ry

     iteration #  2     ecut=    50.00 Ry     beta= 0.60
     Davidson diagonalization with overlap
     ethr =  1.00E-02,  avg # of iterations =  6.1

     total cpu time spent up to now is     1379.1 secs

     total energy              =    -343.99735581 Ry
     Harris-Foulkes estimate   =    -380.65565732 Ry
     estimated scf accuracy    <     116.27867380 Ry

     iteration #  3     ecut=    50.00 Ry     beta= 0.60
     Davidson diagonalization with overlap
     ethr =  1.00E-02,  avg # of iterations =  5.0

     total cpu time spent up to now is     1404.2 secs

     total energy              =    -353.98972061 Ry
     Harris-Foulkes estimate   =    -355.75965187 Ry
     estimated scf accuracy    <       8.09087445 Ry

     iteration #  4     ecut=    50.00 Ry     beta= 0.60
     Davidson diagonalization with overlap
     ethr =  1.00E-02,  avg # of iterations =  1.1

     total cpu time spent up to now is     1419.1 secs

     total energy              =    -352.82831996 Ry
     Harris-Foulkes estimate   =    -354.12826642 Ry
     estimated scf accuracy    <       5.43915081 Ry

     iteration #  5     ecut=    50.00 Ry     beta= 0.60
     Davidson diagonalization with overlap
     ethr =  1.00E-02,  avg # of iterations =  2.0

     total cpu time spent up to now is     1435.0 secs

     total energy              =    -352.75575394 Ry
     Harris-Foulkes estimate   =    -353.00422452 Ry
     estimated scf accuracy    <       2.41270626 Ry

     iteration #  6     ecut=    50.00 Ry     beta= 0.60
     Davidson diagonalization with overlap
     ethr =  6.35E-03,  avg # of iterations =  1.0

     total cpu time spent up to now is     1450.0 secs

     total energy              =    -352.80903615 Ry
     Harris-Foulkes estimate   =    -352.78222955 Ry
     estimated scf accuracy    <       1.74750552 Ry

     iteration #  7     ecut=    50.00 Ry     beta= 0.60
     Davidson diagonalization with overlap
     ethr =  4.60E-03,  avg # of iterations =  1.0

     total cpu time spent up to now is     1465.0 secs

     total energy              =    -352.46122590 Ry
     Harris-Foulkes estimate   =    -352.81884278 Ry
     estimated scf accuracy    <       1.75924640 Ry

     iteration #  8     ecut=    50.00 Ry     beta= 0.60
     Davidson diagonalization with overlap
     ethr =  4.60E-03,  avg # of iterations =  1.5

     total cpu time spent up to now is     1480.2 secs

     total energy              =    -352.33742583 Ry
     Harris-Foulkes estimate   =    -352.50632505 Ry
     estimated scf accuracy    <       0.81052413 Ry

     iteration #  9     ecut=    50.00 Ry     beta= 0.60
     Davidson diagonalization with overlap
     ethr =  2.13E-03,  avg # of iterations =  4.0

     total cpu time spent up to now is     1500.8 secs

     total energy              =    -352.51600498 Ry
     Harris-Foulkes estimate   =    -352.53139061 Ry
     estimated scf accuracy    <       0.23500181 Ry

     iteration # 10     ecut=    50.00 Ry     beta= 0.60
     Davidson diagonalization with overlap
     ethr =  6.18E-04,  avg # of iterations =  1.2

     total cpu time spent up to now is     1515.9 secs

     total energy              =    -352.71365583 Ry
     Harris-Foulkes estimate   =    -352.52054186 Ry
     estimated scf accuracy    <       0.10377524 Ry

     iteration # 11     ecut=    50.00 Ry     beta= 0.60
     Davidson diagonalization with overlap
     ethr =  2.73E-04,  avg # of iterations =  5.0

     total cpu time spent up to now is     1543.0 secs

     total energy              =    -352.61665269 Ry
     Harris-Foulkes estimate   =    -353.75829476 Ry
     estimated scf accuracy    <      20.54305673 Ry

     iteration # 12     ecut=    50.00 Ry     beta= 0.60
     Davidson diagonalization with overlap
     ethr =  2.73E-04,  avg # of iterations =  4.7

     total cpu time spent up to now is     1566.7 secs

     total energy              =    -352.39690852 Ry
     Harris-Foulkes estimate   =    -352.85976547 Ry
     estimated scf accuracy    <       6.38886235 Ry

     iteration # 13     ecut=    50.00 Ry     beta= 0.60
     Davidson diagonalization with overlap
     ethr =  2.73E-04,  avg # of iterations =  5.1

     total cpu time spent up to now is     1590.8 secs

     total energy              =    -352.44090502 Ry
     Harris-Foulkes estimate   =    -352.56241357 Ry
     estimated scf accuracy    <       0.70781665 Ry

     iteration # 14     ecut=    50.00 Ry     beta= 0.60
     Davidson diagonalization with overlap
     ethr =  2.73E-04,  avg # of iterations =  5.5

     total cpu time spent up to now is     1615.6 secs

     total energy              =    -352.55916721 Ry
     Harris-Foulkes estimate   =    -352.55043486 Ry
     estimated scf accuracy    <       0.15277514 Ry

     iteration # 15     ecut=    50.00 Ry     beta= 0.60
     Davidson diagonalization with overlap
     ethr =  2.73E-04,  avg # of iterations =  1.0

     total cpu time spent up to now is     1630.5 secs

     total energy              =    -352.49746089 Ry
     Harris-Foulkes estimate   =    -352.56002287 Ry
     estimated scf accuracy    <       0.19788923 Ry

     iteration # 16     ecut=    50.00 Ry     beta= 0.60
     Davidson diagonalization with overlap
     ethr =  2.73E-04,  avg # of iterations =  3.6

     total cpu time spent up to now is     1649.2 secs

     total energy              =    -352.51448235 Ry
     Harris-Foulkes estimate   =    -352.51592038 Ry
     estimated scf accuracy    <       0.02582288 Ry

     iteration # 17     ecut=    50.00 Ry     beta= 0.60
     Davidson diagonalization with overlap
     ethr =  6.80E-05,  avg # of iterations =  3.4

     total cpu time spent up to now is     1666.6 secs

     total energy              =    -352.50817975 Ry
     Harris-Foulkes estimate   =    -352.51912603 Ry
     estimated scf accuracy    <       0.04555555 Ry

     iteration # 18     ecut=    50.00 Ry     beta= 0.60
     Davidson diagonalization with overlap
     ethr =  6.80E-05,  avg # of iterations =  2.7

     total cpu time spent up to now is     1684.2 secs

     total energy              =    -352.51277938 Ry
     Harris-Foulkes estimate   =    -352.51080554 Ry
     estimated scf accuracy    <       0.01926219 Ry

     iteration # 19     ecut=    50.00 Ry     beta= 0.60
     Davidson diagonalization with overlap
     ethr =  5.07E-05,  avg # of iterations =  1.0

     total cpu time spent up to now is     1699.2 secs

     total energy              =    -352.51384845 Ry
     Harris-Foulkes estimate   =    -352.51310425 Ry
     estimated scf accuracy    <       0.03004215 Ry

     iteration # 20     ecut=    50.00 Ry     beta= 0.60
     Davidson diagonalization with overlap
     ethr =  5.07E-05,  avg # of iterations =  1.0

     total cpu time spent up to now is     1714.2 secs

     total energy              =    -352.50947501 Ry
     Harris-Foulkes estimate   =    -352.51395910 Ry
     estimated scf accuracy    <       0.03484615 Ry

     iteration # 21     ecut=    50.00 Ry     beta= 0.60
     Davidson diagonalization with overlap
     ethr =  5.07E-05,  avg # of iterations =  1.2

     total cpu time spent up to now is     1729.4 secs

     total energy              =    -352.50738125 Ry
     Harris-Foulkes estimate   =    -352.51002656 Ry
     estimated scf accuracy    <       0.01659054 Ry

     iteration # 22     ecut=    50.00 Ry     beta= 0.60
     Davidson diagonalization with overlap
     ethr =  4.37E-05,  avg # of iterations =  3.9

     total cpu time spent up to now is     1747.4 secs

     total energy              =    -352.50899941 Ry
     Harris-Foulkes estimate   =    -352.50894254 Ry
     estimated scf accuracy    <       0.00022453 Ry

     iteration # 23     ecut=    50.00 Ry     beta= 0.60
     Davidson diagonalization with overlap
     ethr =  5.91E-07,  avg # of iterations =  5.5

     total cpu time spent up to now is     1771.3 secs

     total energy              =    -352.50893913 Ry
     Harris-Foulkes estimate   =    -352.50916405 Ry
     estimated scf accuracy    <       0.00124960 Ry

     iteration # 24     ecut=    50.00 Ry     beta= 0.60
     Davidson diagonalization with overlap
     ethr =  5.91E-07,  avg # of iterations =  4.1

     total cpu time spent up to now is     1790.8 secs

     total energy              =    -352.50902177 Ry
     Harris-Foulkes estimate   =    -352.50902451 Ry
     estimated scf accuracy    <       0.00002208 Ry

     iteration # 25     ecut=    50.00 Ry     beta= 0.60
     Davidson diagonalization with overlap
     ethr =  5.81E-08,  avg # of iterations =  2.2

     total cpu time spent up to now is     1807.1 secs

     total energy              =    -352.50902061 Ry
     Harris-Foulkes estimate   =    -352.50902319 Ry
     estimated scf accuracy    <       0.00001267 Ry

     iteration # 26     ecut=    50.00 Ry     beta= 0.60
     Davidson diagonalization with overlap
     ethr =  3.33E-08,  avg # of iterations =  3.6

     total cpu time spent up to now is     1824.9 secs

     total energy              =    -352.50902216 Ry
     Harris-Foulkes estimate   =    -352.50902217 Ry
     estimated scf accuracy    <       0.00000017 Ry

     iteration # 27     ecut=    50.00 Ry     beta= 0.60
     Davidson diagonalization with overlap
     ethr =  4.40E-10,  avg # of iterations =  5.0

     total cpu time spent up to now is     1848.2 secs

     total energy              =    -352.50902207 Ry
     Harris-Foulkes estimate   =    -352.50902233 Ry
     estimated scf accuracy    <       0.00000099 Ry

     iteration # 28     ecut=    50.00 Ry     beta= 0.60
     Davidson diagonalization with overlap
     ethr =  4.40E-10,  avg # of iterations =  4.2

     total cpu time spent up to now is     1869.9 secs

     total energy              =    -352.50902221 Ry
     Harris-Foulkes estimate   =    -352.50902223 Ry
     estimated scf accuracy    <       0.00000011 Ry

     iteration # 29     ecut=    50.00 Ry     beta= 0.60
     Davidson diagonalization with overlap
     ethr =  2.91E-10,  avg # of iterations =  3.1

     total cpu time spent up to now is     1886.4 secs

     total energy              =    -352.50902222 Ry
     Harris-Foulkes estimate   =    -352.50902222 Ry
     estimated scf accuracy    <          5.0E-10 Ry

     iteration # 30     ecut=    50.00 Ry     beta= 0.60
     Davidson diagonalization with overlap
     ethr =  1.32E-12,  avg # of iterations =  5.4

     total cpu time spent up to now is     1912.2 secs

     total energy              =    -352.50902222 Ry
     Harris-Foulkes estimate   =    -352.50902222 Ry
     estimated scf accuracy    <          7.9E-09 Ry

     iteration # 31     ecut=    50.00 Ry     beta= 0.60
     Davidson diagonalization with overlap
     ethr =  1.32E-12,  avg # of iterations =  4.0

     total cpu time spent up to now is     1931.9 secs

     total energy              =    -352.50902222 Ry
     Harris-Foulkes estimate   =    -352.50902222 Ry
     estimated scf accuracy    <          1.2E-09 Ry

     iteration # 32     ecut=    50.00 Ry     beta= 0.60
     Davidson diagonalization with overlap
     ethr =  1.32E-12,  avg # of iterations =  3.8

     total cpu time spent up to now is     1949.8 secs

     End of self-consistent calculation

     Number of k-points >= 100: set verbosity='high' to print the bands.

     the Fermi energy is    17.1936 ev

!    total energy              =    -352.50902222 Ry
     Harris-Foulkes estimate   =    -352.50902222 Ry
     estimated scf accuracy    <          1.2E-12 Ry

     The total energy is the sum of the following terms:

     one-electron contribution =     -68.38582677 Ry
     hartree contribution      =      53.00614807 Ry
     xc contribution           =     -51.54432314 Ry
     ewald contribution        =    -285.58371286 Ry
     smearing contrib. (-TS)   =      -0.00130751 Ry

     convergence has been achieved in  32 iterations

     Forces acting on atoms (cartesian axes, Ry/au):

     atom    1 type  2   force =     0.00000000    0.00000103    0.00000000
     atom    2 type  1   force =     0.00000000   -0.00147425    0.00000000
     atom    3 type  1   force =     0.00000000    0.00147322    0.00000000

     Total force =     0.002084     Total SCF correction =     0.000004


     Computing stress (Cartesian axis) and pressure

          total   stress  (Ry/bohr**3)                   (kbar)     P=   56.95
   0.00041303  -0.00000000  -0.00000000         60.76     -0.00     -0.00
  -0.00000000   0.00033539  -0.00000000         -0.00     49.34     -0.00
   0.00000000   0.00000000   0.00041303          0.00      0.00     60.76


     number of scf cycles    =   3
     number of bfgs steps    =   2

     enthalpy old            =    -352.4945213166 Ry
     enthalpy new            =    -352.5090222206 Ry

     CASE: enthalpy_new < enthalpy_old

     new trust radius        =       0.0498712292 bohr
     new conv_thr            =            1.0E-10 Ry

     new unit-cell volume =    360.09890 a.u.^3 (    53.36115 Ang^3 )
     density =      7.27185 g/cm^3

CELL_PARAMETERS (alat=  1.88972599)
  -1.648396085   4.909555134  -1.648396085
   1.648396085   4.909555134   1.648396085
   1.648396085  -4.909555134  -1.648396085

ATOMIC_POSITIONS (angstrom)
Ti       1.648396085   1.636521035  -1.648396085
Nb       1.648396085   4.878406969  -1.648396085
Nb       1.648396085  -1.605372870  -1.648396085


     NEW-OLD atomic charge density approx. for the potential
     extrapolated charge   39.43382, renormalised to   38.00000

     total cpu time spent up to now is     1956.6 secs

     Self-consistent Calculation

     iteration #  1     ecut=    50.00 Ry     beta= 0.60
     Davidson diagonalization with overlap
     c_bands:  1 eigenvalues not converged
     c_bands:  1 eigenvalues not converged
     ethr =  1.00E-06,  avg # of iterations = 11.7

     total cpu time spent up to now is     1999.0 secs

     total energy              =    -352.30900798 Ry
     Harris-Foulkes estimate   =    -350.55937347 Ry
     estimated scf accuracy    <       0.15427881 Ry

     iteration #  2     ecut=    50.00 Ry     beta= 0.60
     Davidson diagonalization with overlap
     ethr =  4.06E-04,  avg # of iterations =  6.9

     total cpu time spent up to now is     2029.4 secs

     total energy              =    -352.19420694 Ry
     Harris-Foulkes estimate   =    -352.79846972 Ry
     estimated scf accuracy    <       4.65149762 Ry

     iteration #  3     ecut=    50.00 Ry     beta= 0.60
     Davidson diagonalization with overlap
     ethr =  4.06E-04,  avg # of iterations =  5.3

     total cpu time spent up to now is     2053.5 secs

     total energy              =    -352.49048521 Ry
     Harris-Foulkes estimate   =    -352.57359061 Ry
     estimated scf accuracy    <       0.32151541 Ry

     iteration #  4     ecut=    50.00 Ry     beta= 0.60
     Davidson diagonalization with overlap
     ethr =  4.06E-04,  avg # of iterations =  3.2

     total cpu time spent up to now is     2071.3 secs

     total energy              =    -352.51637744 Ry
     Harris-Foulkes estimate   =    -352.52075946 Ry
     estimated scf accuracy    <       0.03084838 Ry

     iteration #  5     ecut=    50.00 Ry     beta= 0.60
     Davidson diagonalization with overlap
     ethr =  8.12E-05,  avg # of iterations =  2.8

     total cpu time spent up to now is     2087.5 secs

     total energy              =    -352.51249593 Ry
     Harris-Foulkes estimate   =    -352.51775125 Ry
     estimated scf accuracy    <       0.02518784 Ry

     iteration #  6     ecut=    50.00 Ry     beta= 0.60
     Davidson diagonalization with overlap
     ethr =  6.63E-05,  avg # of iterations =  1.3

     total cpu time spent up to now is     2102.6 secs

     total energy              =    -352.51157214 Ry
     Harris-Foulkes estimate   =    -352.51346052 Ry
     estimated scf accuracy    <       0.01433313 Ry

     iteration #  7     ecut=    50.00 Ry     beta= 0.60
     Davidson diagonalization with overlap
     ethr =  3.77E-05,  avg # of iterations =  1.9

     total cpu time spent up to now is     2118.2 secs

     total energy              =    -352.51117406 Ry
     Harris-Foulkes estimate   =    -352.51209153 Ry
     estimated scf accuracy    <       0.00696344 Ry

     iteration #  8     ecut=    50.00 Ry     beta= 0.60
     Davidson diagonalization with overlap
     ethr =  1.83E-05,  avg # of iterations =  1.7

     total cpu time spent up to now is     2133.6 secs

     total energy              =    -352.51121059 Ry
     Harris-Foulkes estimate   =    -352.51141711 Ry
     estimated scf accuracy    <       0.00251361 Ry

     iteration #  9     ecut=    50.00 Ry     beta= 0.60
     Davidson diagonalization with overlap
     ethr =  6.61E-06,  avg # of iterations =  4.4

     total cpu time spent up to now is     2151.4 secs

     total energy              =    -352.51136509 Ry
     Harris-Foulkes estimate   =    -352.51138012 Ry
     estimated scf accuracy    <       0.00042338 Ry

     iteration # 10     ecut=    50.00 Ry     beta= 0.60
     Davidson diagonalization with overlap
     ethr =  1.11E-06,  avg # of iterations =  3.7

     total cpu time spent up to now is     2168.4 secs

     total energy              =    -352.51139731 Ry
     Harris-Foulkes estimate   =    -352.51138130 Ry
     estimated scf accuracy    <       0.00031741 Ry

     iteration # 11     ecut=    50.00 Ry     beta= 0.60
     Davidson diagonalization with overlap
     ethr =  8.35E-07,  avg # of iterations =  1.0

     total cpu time spent up to now is     2183.4 secs

     total energy              =    -352.51134313 Ry
     Harris-Foulkes estimate   =    -352.51140139 Ry
     estimated scf accuracy    <       0.00047751 Ry

     iteration # 12     ecut=    50.00 Ry     beta= 0.60
     Davidson diagonalization with overlap
     ethr =  8.35E-07,  avg # of iterations =  1.1

     total cpu time spent up to now is     2198.4 secs

     total energy              =    -352.51134738 Ry
     Harris-Foulkes estimate   =    -352.51135764 Ry
     estimated scf accuracy    <       0.00011334 Ry

     iteration # 13     ecut=    50.00 Ry     beta= 0.60
     Davidson diagonalization with overlap
     ethr =  2.98E-07,  avg # of iterations =  3.5

     total cpu time spent up to now is     2216.0 secs

     total energy              =    -352.51135850 Ry
     Harris-Foulkes estimate   =    -352.51135864 Ry
     estimated scf accuracy    <       0.00000297 Ry

     iteration # 14     ecut=    50.00 Ry     beta= 0.60
     Davidson diagonalization with overlap
     ethr =  7.83E-09,  avg # of iterations =  3.5

     total cpu time spent up to now is     2234.3 secs

     total energy              =    -352.51135875 Ry
     Harris-Foulkes estimate   =    -352.51135899 Ry
     estimated scf accuracy    <       0.00000271 Ry

     iteration # 15     ecut=    50.00 Ry     beta= 0.60
     Davidson diagonalization with overlap
     ethr =  7.14E-09,  avg # of iterations =  1.0

     total cpu time spent up to now is     2249.3 secs

     total energy              =    -352.51135874 Ry
     Harris-Foulkes estimate   =    -352.51135879 Ry
     estimated scf accuracy    <       0.00000155 Ry

     iteration # 16     ecut=    50.00 Ry     beta= 0.60
     Davidson diagonalization with overlap
     ethr =  4.08E-09,  avg # of iterations =  1.0

     total cpu time spent up to now is     2264.3 secs

     total energy              =    -352.51135861 Ry
     Harris-Foulkes estimate   =    -352.51135875 Ry
     estimated scf accuracy    <       0.00000130 Ry

     iteration # 17     ecut=    50.00 Ry     beta= 0.60
     Davidson diagonalization with overlap
     ethr =  3.43E-09,  avg # of iterations =  2.8

     total cpu time spent up to now is     2280.5 secs

     total energy              =    -352.51135866 Ry
     Harris-Foulkes estimate   =    -352.51135867 Ry
     estimated scf accuracy    <       0.00000016 Ry

     iteration # 18     ecut=    50.00 Ry     beta= 0.60
     Davidson diagonalization with overlap
     ethr =  4.29E-10,  avg # of iterations =  4.0

     total cpu time spent up to now is     2298.8 secs

     total energy              =    -352.51135869 Ry
     Harris-Foulkes estimate   =    -352.51135869 Ry
     estimated scf accuracy    <       0.00000001 Ry

     iteration # 19     ecut=    50.00 Ry     beta= 0.60
     Davidson diagonalization with overlap
     ethr =  2.97E-11,  avg # of iterations =  4.2

     total cpu time spent up to now is     2318.4 secs

     total energy              =    -352.51135869 Ry
     Harris-Foulkes estimate   =    -352.51135869 Ry
     estimated scf accuracy    <          7.2E-09 Ry

     iteration # 20     ecut=    50.00 Ry     beta= 0.60
     Davidson diagonalization with overlap
     ethr =  1.88E-11,  avg # of iterations =  1.0

     total cpu time spent up to now is     2333.4 secs

     total energy              =    -352.51135869 Ry
     Harris-Foulkes estimate   =    -352.51135869 Ry
     estimated scf accuracy    <          1.7E-09 Ry

     iteration # 21     ecut=    50.00 Ry     beta= 0.60
     Davidson diagonalization with overlap
     ethr =  4.36E-12,  avg # of iterations =  3.7

     total cpu time spent up to now is     2351.3 secs

     End of self-consistent calculation

     Number of k-points >= 100: set verbosity='high' to print the bands.

     the Fermi energy is    16.4237 ev

!    total energy              =    -352.51135869 Ry
     Harris-Foulkes estimate   =    -352.51135869 Ry
     estimated scf accuracy    <          5.4E-11 Ry

     The total energy is the sum of the following terms:

     one-electron contribution =     -73.69455328 Ry
     hartree contribution      =      54.47068631 Ry
     xc contribution           =     -51.42050395 Ry
     ewald contribution        =    -281.86567878 Ry
     smearing contrib. (-TS)   =      -0.00130900 Ry

     convergence has been achieved in  21 iterations

     Forces acting on atoms (cartesian axes, Ry/au):

     atom    1 type  2   force =    -0.00000000    0.00000058    0.00000000
     atom    2 type  1   force =     0.00000000   -0.00689017   -0.00000000
     atom    3 type  1   force =    -0.00000000    0.00688959    0.00000000

     Total force =     0.009744     Total SCF correction =     0.000013


     Computing stress (Cartesian axis) and pressure

          total   stress  (Ry/bohr**3)                   (kbar)     P=   -5.11
  -0.00001103   0.00000000   0.00000000         -1.62      0.00      0.00
   0.00000000  -0.00008223  -0.00000000          0.00    -12.10     -0.00
   0.00000000  -0.00000000  -0.00001103          0.00     -0.00     -1.62


     number of scf cycles    =   4
     number of bfgs steps    =   3

     enthalpy old            =    -352.5090222206 Ry
     enthalpy new            =    -352.5113586892 Ry

     CASE: enthalpy_new < enthalpy_old

     new trust radius        =       0.0084533640 bohr
     new conv_thr            =            1.0E-10 Ry

     new unit-cell volume =    358.90842 a.u.^3 (    53.18474 Ang^3 )
     density =      7.29597 g/cm^3

CELL_PARAMETERS (alat=  1.88972599)
  -1.647504868   4.898619831  -1.647504868
   1.647504868   4.898619831   1.647504868
   1.647504868  -4.898619831  -1.647504868

ATOMIC_POSITIONS (angstrom)
Ti       1.647504868   1.632876192  -1.647504868
Nb       1.647504868   4.864302000  -1.647504868
Nb       1.647504868  -1.598558361  -1.647504868


     NEW-OLD atomic charge density approx. for the potential
     extrapolated charge   37.87729, renormalised to   38.00000

     total cpu time spent up to now is     2357.6 secs

     Self-consistent Calculation

     iteration #  1     ecut=    50.00 Ry     beta= 0.60
     Davidson diagonalization with overlap
     ethr =  1.00E-06,  avg # of iterations =  4.3

     total cpu time spent up to now is     2385.9 secs

     total energy              =    -352.50975161 Ry
     Harris-Foulkes estimate   =    -352.68055456 Ry
     estimated scf accuracy    <       0.00138914 Ry

     iteration #  2     ecut=    50.00 Ry     beta= 0.60
     Davidson diagonalization with overlap
     ethr =  3.66E-06,  avg # of iterations =  5.6

     total cpu time spent up to now is     2414.6 secs

     total energy              =    -352.51032799 Ry
     Harris-Foulkes estimate   =    -352.51313587 Ry
     estimated scf accuracy    <       0.01271190 Ry

     iteration #  3     ecut=    50.00 Ry     beta= 0.60
     Davidson diagonalization with overlap
     ethr =  3.66E-06,  avg # of iterations =  4.6

     total cpu time spent up to now is     2438.1 secs

     total energy              =    -352.51123404 Ry
     Harris-Foulkes estimate   =    -352.51199839 Ry
     estimated scf accuracy    <       0.00295889 Ry

     iteration #  4     ecut=    50.00 Ry     beta= 0.60
     Davidson diagonalization with overlap
     ethr =  3.66E-06,  avg # of iterations =  3.7

     total cpu time spent up to now is     2456.3 secs

     total energy              =    -352.51153179 Ry
     Harris-Foulkes estimate   =    -352.51159976 Ry
     estimated scf accuracy    <       0.00059949 Ry

     iteration #  5     ecut=    50.00 Ry     beta= 0.60
     Davidson diagonalization with overlap
     ethr =  1.58E-06,  avg # of iterations =  1.1

     total cpu time spent up to now is     2471.1 secs

     total energy              =    -352.51145374 Ry
     Harris-Foulkes estimate   =    -352.51154180 Ry
     estimated scf accuracy    <       0.00035922 Ry

     iteration #  6     ecut=    50.00 Ry     beta= 0.60
     Davidson diagonalization with overlap
     ethr =  9.45E-07,  avg # of iterations =  2.9

     total cpu time spent up to now is     2487.5 secs

     total energy              =    -352.51146938 Ry
     Harris-Foulkes estimate   =    -352.51147906 Ry
     estimated scf accuracy    <       0.00003980 Ry

     iteration #  7     ecut=    50.00 Ry     beta= 0.60
     Davidson diagonalization with overlap
     ethr =  1.05E-07,  avg # of iterations =  4.1

     total cpu time spent up to now is     2507.6 secs

     total energy              =    -352.51148017 Ry
     Harris-Foulkes estimate   =    -352.51148012 Ry
     estimated scf accuracy    <       0.00000325 Ry

     iteration #  8     ecut=    50.00 Ry     beta= 0.60
     Davidson diagonalization with overlap
     ethr =  8.55E-09,  avg # of iterations =  3.1

     total cpu time spent up to now is     2525.2 secs

     total energy              =    -352.51147986 Ry
     Harris-Foulkes estimate   =    -352.51148059 Ry
     estimated scf accuracy    <       0.00000604 Ry

     iteration #  9     ecut=    50.00 Ry     beta= 0.60
     Davidson diagonalization with overlap
     ethr =  8.55E-09,  avg # of iterations =  1.0

     total cpu time spent up to now is     2540.0 secs

     total energy              =    -352.51147974 Ry
     Harris-Foulkes estimate   =    -352.51148000 Ry
     estimated scf accuracy    <       0.00000217 Ry

     iteration # 10     ecut=    50.00 Ry     beta= 0.60
     Davidson diagonalization with overlap
     ethr =  5.70E-09,  avg # of iterations =  3.1

     total cpu time spent up to now is     2556.8 secs

     total energy              =    -352.51147986 Ry
     Harris-Foulkes estimate   =    -352.51147990 Ry
     estimated scf accuracy    <       0.00000010 Ry

     iteration # 11     ecut=    50.00 Ry     beta= 0.60
     Davidson diagonalization with overlap
     ethr =  2.72E-10,  avg # of iterations =  4.8

     total cpu time spent up to now is     2578.8 secs

     total energy              =    -352.51147995 Ry
     Harris-Foulkes estimate   =    -352.51147994 Ry
     estimated scf accuracy    <       0.00000043 Ry

     iteration # 12     ecut=    50.00 Ry     beta= 0.60
     Davidson diagonalization with overlap
     ethr =  2.72E-10,  avg # of iterations =  1.0

     total cpu time spent up to now is     2593.7 secs

     total energy              =    -352.51147988 Ry
     Harris-Foulkes estimate   =    -352.51147995 Ry
     estimated scf accuracy    <       0.00000046 Ry

     iteration # 13     ecut=    50.00 Ry     beta= 0.60
     Davidson diagonalization with overlap
     ethr =  2.72E-10,  avg # of iterations =  3.6

     total cpu time spent up to now is     2611.3 secs

     total energy              =    -352.51147990 Ry
     Harris-Foulkes estimate   =    -352.51147990 Ry
     estimated scf accuracy    <       0.00000004 Ry

     iteration # 14     ecut=    50.00 Ry     beta= 0.60
     Davidson diagonalization with overlap
     ethr =  9.93E-11,  avg # of iterations =  1.7

     total cpu time spent up to now is     2626.7 secs

     total energy              =    -352.51147990 Ry
     Harris-Foulkes estimate   =    -352.51147990 Ry
     estimated scf accuracy    <       0.00000003 Ry

     iteration # 15     ecut=    50.00 Ry     beta= 0.60
     Davidson diagonalization with overlap
     ethr =  8.80E-11,  avg # of iterations =  1.4

     total cpu time spent up to now is     2641.9 secs

     total energy              =    -352.51147990 Ry
     Harris-Foulkes estimate   =    -352.51147990 Ry
     estimated scf accuracy    <          5.6E-09 Ry

     iteration # 16     ecut=    50.00 Ry     beta= 0.60
     Davidson diagonalization with overlap
     ethr =  1.47E-11,  avg # of iterations =  3.7

     total cpu time spent up to now is     2660.1 secs

     total energy              =    -352.51147990 Ry
     Harris-Foulkes estimate   =    -352.51147990 Ry
     estimated scf accuracy    <          3.7E-09 Ry

     iteration # 17     ecut=    50.00 Ry     beta= 0.60
     Davidson diagonalization with overlap
     ethr =  9.78E-12,  avg # of iterations =  3.3

     total cpu time spent up to now is     2677.0 secs

     total energy              =    -352.51147990 Ry
     Harris-Foulkes estimate   =    -352.51147990 Ry
     estimated scf accuracy    <          1.0E-10 Ry

     iteration # 18     ecut=    50.00 Ry     beta= 0.60
     Davidson diagonalization with overlap
     ethr =  2.74E-13,  avg # of iterations =  4.5

     total cpu time spent up to now is     2698.6 secs

     total energy              =    -352.51147990 Ry
     Harris-Foulkes estimate   =    -352.51147990 Ry
     estimated scf accuracy    <          1.8E-10 Ry

     iteration # 19     ecut=    50.00 Ry     beta= 0.60
     Davidson diagonalization with overlap
     ethr =  2.74E-13,  avg # of iterations =  3.8

     total cpu time spent up to now is     2716.7 secs

     total energy              =    -352.51147990 Ry
     Harris-Foulkes estimate   =    -352.51147990 Ry
     estimated scf accuracy    <          6.3E-10 Ry

     iteration # 20     ecut=    50.00 Ry     beta= 0.60
     Davidson diagonalization with overlap
     ethr =  2.74E-13,  avg # of iterations =  1.0

     total cpu time spent up to now is     2731.7 secs

     total energy              =    -352.51147990 Ry
     Harris-Foulkes estimate   =    -352.51147990 Ry
     estimated scf accuracy    <          4.0E-10 Ry

     iteration # 21     ecut=    50.00 Ry     beta= 0.60
     Davidson diagonalization with overlap
     ethr =  2.74E-13,  avg # of iterations =  2.0

     total cpu time spent up to now is     2747.2 secs

     total energy              =    -352.51147990 Ry
     Harris-Foulkes estimate   =    -352.51147990 Ry
     estimated scf accuracy    <          2.6E-10 Ry

     iteration # 22     ecut=    50.00 Ry     beta= 0.60
     Davidson diagonalization with overlap
     ethr =  2.74E-13,  avg # of iterations =  1.0

     total cpu time spent up to now is     2762.2 secs

     total energy              =    -352.51147990 Ry
     Harris-Foulkes estimate   =    -352.51147990 Ry
     estimated scf accuracy    <          4.5E-10 Ry

     iteration # 23     ecut=    50.00 Ry     beta= 0.60
     Davidson diagonalization with overlap
     ethr =  2.74E-13,  avg # of iterations =  4.2

     total cpu time spent up to now is     2782.3 secs

     total energy              =    -352.51147990 Ry
     Harris-Foulkes estimate   =    -352.51147990 Ry
     estimated scf accuracy    <          1.1E-10 Ry

     iteration # 24     ecut=    50.00 Ry     beta= 0.60
     Davidson diagonalization with overlap
     ethr =  2.74E-13,  avg # of iterations =  1.0

     total cpu time spent up to now is     2797.2 secs

     End of self-consistent calculation

     Number of k-points >= 100: set verbosity='high' to print the bands.

     the Fermi energy is    16.4879 ev

!    total energy              =    -352.51147990 Ry
     Harris-Foulkes estimate   =    -352.51147990 Ry
     estimated scf accuracy    <          5.2E-11 Ry

     The total energy is the sum of the following terms:

     one-electron contribution =     -73.29236308 Ry
     hartree contribution      =      54.36774471 Ry
     xc contribution           =     -51.43153848 Ry
     ewald contribution        =    -282.15400112 Ry
     smearing contrib. (-TS)   =      -0.00132193 Ry

     convergence has been achieved in  24 iterations

     Forces acting on atoms (cartesian axes, Ry/au):

     atom    1 type  2   force =     0.00000000   -0.00000005    0.00000000
     atom    2 type  1   force =    -0.00000000   -0.00522355    0.00000000
     atom    3 type  1   force =    -0.00000000    0.00522361    0.00000000

     Total force =     0.007387     Total SCF correction =     0.000016


     Computing stress (Cartesian axis) and pressure

          total   stress  (Ry/bohr**3)                   (kbar)     P=    0.29
   0.00002323  -0.00000000   0.00000000          3.42     -0.00      0.00
  -0.00000000  -0.00004059   0.00000000         -0.00     -5.97      0.00
   0.00000000   0.00000000   0.00002323          0.00      0.00      3.42


     number of scf cycles    =   5
     number of bfgs steps    =   4

     enthalpy old            =    -352.5113586892 Ry
     enthalpy new            =    -352.5114799014 Ry

     CASE: enthalpy_new < enthalpy_old

     new trust radius        =       0.0093040405 bohr
     new conv_thr            =            1.0E-10 Ry

     new unit-cell volume =    358.45058 a.u.^3 (    53.11690 Ang^3 )
     density =      7.30529 g/cm^3

CELL_PARAMETERS (alat=  1.88972599)
  -1.648417438   4.886955577  -1.648417438
   1.648417438   4.886955577   1.648417438
   1.648417438  -4.886955577  -1.648417438

ATOMIC_POSITIONS (angstrom)
Ti       1.648417438   1.628988204  -1.648417438
Nb       1.648417438   4.847807699  -1.648417438
Nb       1.648417438  -1.589840326  -1.648417438


     NEW-OLD atomic charge density approx. for the potential
     extrapolated charge   37.95275, renormalised to   38.00000

     total cpu time spent up to now is     2803.6 secs

     Self-consistent Calculation

     iteration #  1     ecut=    50.00 Ry     beta= 0.60
     Davidson diagonalization with overlap
     ethr =  1.00E-06,  avg # of iterations =  4.0

     total cpu time spent up to now is     2832.2 secs

     total energy              =    -352.51129076 Ry
     Harris-Foulkes estimate   =    -352.57661212 Ry
     estimated scf accuracy    <       0.00033074 Ry

     iteration #  2     ecut=    50.00 Ry     beta= 0.60
     Davidson diagonalization with overlap
     ethr =  8.70E-07,  avg # of iterations =  4.9

     total cpu time spent up to now is     2857.3 secs

     total energy              =    -352.51126612 Ry
     Harris-Foulkes estimate   =    -352.51186753 Ry
     estimated scf accuracy    <       0.00226289 Ry

     iteration #  3     ecut=    50.00 Ry     beta= 0.60
     Davidson diagonalization with overlap
     ethr =  8.70E-07,  avg # of iterations =  4.8

     total cpu time spent up to now is     2879.3 secs

     total energy              =    -352.51154630 Ry
     Harris-Foulkes estimate   =    -352.51173584 Ry
     estimated scf accuracy    <       0.00132116 Ry

     iteration #  4     ecut=    50.00 Ry     beta= 0.60
     Davidson diagonalization with overlap
     ethr =  8.70E-07,  avg # of iterations =  3.8

     total cpu time spent up to now is     2896.5 secs

     total energy              =    -352.51158407 Ry
     Harris-Foulkes estimate   =    -352.51160325 Ry
     estimated scf accuracy    <       0.00013006 Ry

     iteration #  5     ecut=    50.00 Ry     beta= 0.60
     Davidson diagonalization with overlap
     ethr =  3.42E-07,  avg # of iterations =  3.0

     total cpu time spent up to now is     2913.0 secs

     total energy              =    -352.51158466 Ry
     Harris-Foulkes estimate   =    -352.51159390 Ry
     estimated scf accuracy    <       0.00002596 Ry

     iteration #  6     ecut=    50.00 Ry     beta= 0.60
     Davidson diagonalization with overlap
     ethr =  6.83E-08,  avg # of iterations =  4.8

     total cpu time spent up to now is     2933.2 secs

     total energy              =    -352.51159142 Ry
     Harris-Foulkes estimate   =    -352.51159199 Ry
     estimated scf accuracy    <       0.00000514 Ry

     iteration #  7     ecut=    50.00 Ry     beta= 0.60
     Davidson diagonalization with overlap
     ethr =  1.35E-08,  avg # of iterations =  1.5

     total cpu time spent up to now is     2948.5 secs

     total energy              =    -352.51159147 Ry
     Harris-Foulkes estimate   =    -352.51159162 Ry
     estimated scf accuracy    <       0.00000193 Ry

     iteration #  8     ecut=    50.00 Ry     beta= 0.60
     Davidson diagonalization with overlap
     ethr =  5.09E-09,  avg # of iterations =  3.0

     total cpu time spent up to now is     2965.0 secs

     total energy              =    -352.51159148 Ry
     Harris-Foulkes estimate   =    -352.51159158 Ry
     estimated scf accuracy    <       0.00000048 Ry

     iteration #  9     ecut=    50.00 Ry     beta= 0.60
     Davidson diagonalization with overlap
     ethr =  1.26E-09,  avg # of iterations =  3.9

     total cpu time spent up to now is     2982.8 secs

     total energy              =    -352.51159155 Ry
     Harris-Foulkes estimate   =    -352.51159155 Ry
     estimated scf accuracy    <       0.00000001 Ry

     iteration # 10     ecut=    50.00 Ry     beta= 0.60
     Davidson diagonalization with overlap
     ethr =  3.81E-11,  avg # of iterations =  3.9

     total cpu time spent up to now is     3002.4 secs

     total energy              =    -352.51159155 Ry
     Harris-Foulkes estimate   =    -352.51159155 Ry
     estimated scf accuracy    <          7.7E-09 Ry

     iteration # 11     ecut=    50.00 Ry     beta= 0.60
     Davidson diagonalization with overlap
     ethr =  2.02E-11,  avg # of iterations =  2.8

     total cpu time spent up to now is     3018.7 secs

     total energy              =    -352.51159155 Ry
     Harris-Foulkes estimate   =    -352.51159155 Ry
     estimated scf accuracy    <          1.8E-10 Ry

     iteration # 12     ecut=    50.00 Ry     beta= 0.60
     Davidson diagonalization with overlap
     ethr =  4.85E-13,  avg # of iterations =  4.7

     total cpu time spent up to now is     3040.9 secs

     total energy              =    -352.51159155 Ry
     Harris-Foulkes estimate   =    -352.51159155 Ry
     estimated scf accuracy    <          7.0E-10 Ry

     iteration # 13     ecut=    50.00 Ry     beta= 0.60
     Davidson diagonalization with overlap
     ethr =  4.85E-13,  avg # of iterations =  3.8

     total cpu time spent up to now is     3059.4 secs

     End of self-consistent calculation

     Number of k-points >= 100: set verbosity='high' to print the bands.

     the Fermi energy is    16.5139 ev

!    total energy              =    -352.51159155 Ry
     Harris-Foulkes estimate   =    -352.51159155 Ry
     estimated scf accuracy    <          3.8E-12 Ry

     The total energy is the sum of the following terms:

     one-electron contribution =     -73.19082916 Ry
     hartree contribution      =      54.35468390 Ry
     xc contribution           =     -51.43689155 Ry
     ewald contribution        =    -282.23721115 Ry
     smearing contrib. (-TS)   =      -0.00134358 Ry

     convergence has been achieved in  13 iterations

     Forces acting on atoms (cartesian axes, Ry/au):

     atom    1 type  2   force =     0.00000000   -0.00000009    0.00000000
     atom    2 type  1   force =     0.00000000   -0.00301867    0.00000000
     atom    3 type  1   force =     0.00000000    0.00301876   -0.00000000

     Total force =     0.004269     Total SCF correction =     0.000006


     Computing stress (Cartesian axis) and pressure

          total   stress  (Ry/bohr**3)                   (kbar)     P=    3.01
   0.00003710   0.00000000   0.00000000          5.46      0.00      0.00
   0.00000000  -0.00001287   0.00000000          0.00     -1.89      0.00
  -0.00000000   0.00000000   0.00003710         -0.00      0.00      5.46


     number of scf cycles    =   6
     number of bfgs steps    =   5

     enthalpy old            =    -352.5114799014 Ry
     enthalpy new            =    -352.5115915522 Ry

     CASE: enthalpy_new < enthalpy_old

     new trust radius        =       0.0139228295 bohr
     new conv_thr            =            1.0E-10 Ry

     new unit-cell volume =    358.71278 a.u.^3 (    53.15575 Ang^3 )
     density =      7.29995 g/cm^3

CELL_PARAMETERS (alat=  1.88972599)
  -1.651563066   4.871918621  -1.651563066
   1.651563066   4.871918621   1.651563066
   1.651563066  -4.871918621  -1.651563066

ATOMIC_POSITIONS (angstrom)
Ti       1.651563066   1.623976092  -1.651563066
Nb       1.651563066   4.825546225  -1.651563066
Nb       1.651563066  -1.577603696  -1.651563066


     NEW-OLD atomic charge density approx. for the potential
     extrapolated charge   38.02704, renormalised to   38.00000

     total cpu time spent up to now is     3065.8 secs

     Self-consistent Calculation

     iteration #  1     ecut=    50.00 Ry     beta= 0.60
     Davidson diagonalization with overlap
     ethr =  1.00E-06,  avg # of iterations =  5.2

     total cpu time spent up to now is     3096.7 secs

     total energy              =    -352.51085919 Ry
     Harris-Foulkes estimate   =    -352.47448877 Ry
     estimated scf accuracy    <       0.00109945 Ry

     iteration #  2     ecut=    50.00 Ry     beta= 0.60
     Davidson diagonalization with overlap
     ethr =  2.89E-06,  avg # of iterations =  5.5

     total cpu time spent up to now is     3122.5 secs

     total energy              =    -352.50864266 Ry
     Harris-Foulkes estimate   =    -352.51499150 Ry
     estimated scf accuracy    <       0.04300167 Ry

     iteration #  3     ecut=    50.00 Ry     beta= 0.60
     Davidson diagonalization with overlap
     ethr =  2.89E-06,  avg # of iterations =  5.4

     total cpu time spent up to now is     3147.6 secs

     total energy              =    -352.51168109 Ry
     Harris-Foulkes estimate   =    -352.51169613 Ry
     estimated scf accuracy    <       0.00003957 Ry

     iteration #  4     ecut=    50.00 Ry     beta= 0.60
     Davidson diagonalization with overlap
     ethr =  1.04E-07,  avg # of iterations =  2.3

     total cpu time spent up to now is     3164.1 secs

     total energy              =    -352.51168117 Ry
     Harris-Foulkes estimate   =    -352.51168473 Ry
     estimated scf accuracy    <       0.00001002 Ry

     iteration #  5     ecut=    50.00 Ry     beta= 0.60
     Davidson diagonalization with overlap
     ethr =  2.64E-08,  avg # of iterations =  3.0

     total cpu time spent up to now is     3182.8 secs

     total energy              =    -352.51168297 Ry
[...]
     estimated scf accuracy    <          6.3E-12 Ry

     iteration # 10     ecut=    50.00 Ry     beta= 0.60
     Davidson diagonalization with overlap
     ethr =  1.00E-13,  avg # of iterations =  1.2

     total cpu time spent up to now is     5462.3 secs

     End of self-consistent calculation

     Number of k-points >= 100: set verbosity='high' to print the bands.

     the Fermi energy is    16.4585 ev

!    total energy              =    -352.51170744 Ry
     Harris-Foulkes estimate   =    -352.51170744 Ry
     estimated scf accuracy    <          5.4E-14 Ry

     The total energy is the sum of the following terms:

     one-electron contribution =     -73.72491258 Ry
     hartree contribution      =      54.52924722 Ry
     xc contribution           =     -51.42969618 Ry
     ewald contribution        =    -281.88494239 Ry
     smearing contrib. (-TS)   =      -0.00140351 Ry

     convergence has been achieved in  10 iterations

     Forces acting on atoms (cartesian axes, Ry/au):

     atom    1 type  2   force =     0.00000000    0.00000007    0.00000000
     atom    2 type  1   force =     0.00000000   -0.00000733    0.00000000
     atom    3 type  1   force =    -0.00000000    0.00000727    0.00000000

     Total force =     0.000010     Total SCF correction =     0.000001


     Computing stress (Cartesian axis) and pressure

          total   stress  (Ry/bohr**3)                   (kbar)     P=   -0.01
  -0.00000007  -0.00000000   0.00000000         -0.01     -0.00      0.00
  -0.00000000   0.00000002   0.00000000         -0.00      0.00      0.00
  -0.00000000   0.00000000  -0.00000007         -0.00      0.00     -0.01


     bfgs converged in  15 scf cycles and  14 bfgs steps
     (criteria: energy <  1.0E-10 Ry, force <  1.0E-05Ry/Bohr, cell <  1.0E-03kbar)

     End of BFGS Geometry Optimization

     Final enthalpy =    -352.5117074435 Ry
Begin final coordinates
     new unit-cell volume =    359.56336 a.u.^3 (    53.28179 Ang^3 )
     density =      7.28268 g/cm^3

CELL_PARAMETERS (alat=  1.88972599)
  -1.655605587   4.859651968  -1.655605587
   1.655605587   4.859651968   1.655605587
   1.655605587  -4.859651968  -1.655605587

ATOMIC_POSITIONS (angstrom)
Ti       1.655605587   1.619888040  -1.655605587
Nb       1.655605587   4.812869152  -1.655605587
Nb       1.655605587  -1.573105224  -1.655605587
End final coordinates



     A final scf calculation at the relaxed structure.
     The G-vectors are recalculated for the final unit cell
     Results may differ from those at the preceding step.
 
     Parallelization info
     --------------------
     sticks:   dense  smooth     PW     G-vecs:    dense   smooth      PW
     Min         809     320    115                16977     4279     942
     Max         810     321    116                16979     4281     943
     Sum        3239    1283    461                67913    17121    3769
 


     bravais-lattice index     =            0
     lattice parameter (alat)  =       1.8897  a.u.
     unit-cell volume          =     359.5634 (a.u.)^3
     number of atoms/cell      =            3
     number of atomic types    =            2
     number of electrons       =        38.00
     number of Kohn-Sham states=           23
     kinetic-energy cutoff     =      50.0000  Ry
     charge density cutoff     =     500.0000  Ry
     convergence threshold     =      1.1E-12
     mixing beta               =       0.6000
     number of iterations used =            8  plain     mixing
     Exchange-correlation      = SLA PW PBE PBE ( 1  4  3  4 0 0)

     celldm(1)=   1.889726  celldm(2)=   0.000000  celldm(3)=   0.000000
     celldm(4)=   0.000000  celldm(5)=   0.000000  celldm(6)=   0.000000

     crystal axes: (cart. coord. in units of alat)
               a(1) = (  -1.655606   4.859652  -1.655606 )  
               a(2) = (   1.655606   4.859652   1.655606 )  
               a(3) = (   1.655606  -4.859652  -1.655606 )  

     reciprocal axes: (cart. coord. in units 2 pi/alat)
               b(1) = (  0.000000  0.102888 -0.302004 )  
               b(2) = (  0.302004  0.102888  0.000000 )  
               b(3) = (  0.302004  0.000000 -0.302004 )  


     PseudoPot. # 1 for Nb read from file:
     /home/u16/abhishekkt/fp/krishna/calculations/pseudopotentials/Nb.pbe-nsp-van.UPF
     MD5 check sum: c44c1a86bf31974e1e832c2ec821fd5f
     Pseudo is Ultrasoft + core correction, Zval = 13.0
     Generated by new atomic code, or converted to UPF format
     Using radial grid of  887 points,  6 beta functions with: 
                l(1) =   0
                l(2) =   0
                l(3) =   1
                l(4) =   1
                l(5) =   2
                l(6) =   2
     Q(r) pseudized with  6 coefficients,  rinner =    1.000   1.000   1.000
                                                       1.000   1.000

     PseudoPot. # 2 for Ti read from file:
     /home/u16/abhishekkt/fp/krishna/calculations/pseudopotentials/Ti.pbe-sp-van_ak.UPF
     MD5 check sum: 84d3ec9e8983e94242673103c800fb48
     Pseudo is Ultrasoft, Zval = 12.0
     Generated by new atomic code, or converted to UPF format
     Using radial grid of  851 points,  6 beta functions with: 
                l(1) =   0
                l(2) =   0
                l(3) =   1
                l(4) =   1
                l(5) =   2
                l(6) =   2
     Q(r) pseudized with  8 coefficients,  rinner =    1.000   1.000   1.000
                                                       1.000   1.000

     atomic species   valence    mass     pseudopotential
        Nb            13.00    92.90638     Nb( 1.00)
        Ti            12.00    47.86700     Ti( 1.00)

      8 Sym. Ops. (no inversion) found
          (note:  8 additional sym.ops. were found but ignored
           their fractional translations are incommensurate with FFT grid)


   Cartesian axes

     site n.     atom                  positions (alat units)
         1           Ti  tau(   1) = (   1.6556057   1.6198882  -1.6556057  )
         2           Nb  tau(   2) = (   1.6556057   4.8128695  -1.6556057  )
         3           Nb  tau(   3) = (   1.6556057  -1.5731053  -1.6556057  )

     number of k points=   244  Marzari-Vanderbilt smearing, width (Ry)=  0.0200

     Number of k-points >= 100: set verbosity='high' to print them.

     Dense  grid:    67913 G-vectors     FFT dimensions: (  75,  75,  75)

     Smooth grid:    17121 G-vectors     FFT dimensions: (  45,  45,  45)

     Estimated max dynamical RAM per process >     115.91 MB

     Estimated total dynamical RAM >     463.63 MB

     Initial potential from superposition of free atoms

     starting charge   36.99449, renormalised to   38.00000
     Starting wfcs are   36 randomized atomic wfcs

     total cpu time spent up to now is     5474.8 secs

     Self-consistent Calculation

     iteration #  1     ecut=    50.00 Ry     beta= 0.60
     Davidson diagonalization with overlap
     ethr =  1.00E-06,  avg # of iterations = 11.2

     total cpu time spent up to now is     5512.2 secs

     total energy              =    -342.60605958 Ry
     Harris-Foulkes estimate   =    -353.74717042 Ry
     estimated scf accuracy    <      14.03908239 Ry

     iteration #  2     ecut=    50.00 Ry     beta= 0.60
     Davidson diagonalization with overlap
     ethr =  1.00E-02,  avg # of iterations =  5.8

     total cpu time spent up to now is     5535.8 secs

     total energy              =    -340.03357957 Ry
     Harris-Foulkes estimate   =    -366.68208871 Ry
     estimated scf accuracy    <      90.42470015 Ry

     iteration #  3     ecut=    50.00 Ry     beta= 0.60
     Davidson diagonalization with overlap
     ethr =  1.00E-02,  avg # of iterations =  3.4

     total cpu time spent up to now is     5553.3 secs

     total energy              =    -352.82098945 Ry
     Harris-Foulkes estimate   =    -353.27415391 Ry
     estimated scf accuracy    <       4.09156127 Ry

     iteration #  4     ecut=    50.00 Ry     beta= 0.60
     Davidson diagonalization with overlap
     ethr =  1.00E-02,  avg # of iterations =  1.0

     total cpu time spent up to now is     5565.2 secs

     total energy              =    -352.56976988 Ry
     Harris-Foulkes estimate   =    -352.86714884 Ry
     estimated scf accuracy    <       2.68754063 Ry

     iteration #  5     ecut=    50.00 Ry     beta= 0.60
     Davidson diagonalization with overlap
     ethr =  7.07E-03,  avg # of iterations =  1.3

     total cpu time spent up to now is     5577.2 secs

     total energy              =    -352.03507724 Ry
     Harris-Foulkes estimate   =    -352.61751799 Ry
     estimated scf accuracy    <       1.61492566 Ry

     iteration #  6     ecut=    50.00 Ry     beta= 0.60
     Davidson diagonalization with overlap
     ethr =  4.25E-03,  avg # of iterations =  4.3

     total cpu time spent up to now is     5595.5 secs

     total energy              =    -352.01068800 Ry
     Harris-Foulkes estimate   =    -352.85626007 Ry
     estimated scf accuracy    <       6.72463640 Ry

     iteration #  7     ecut=    50.00 Ry     beta= 0.60
     Davidson diagonalization with overlap
     ethr =  4.25E-03,  avg # of iterations =  3.8

     total cpu time spent up to now is     5609.5 secs

     total energy              =    -352.50451895 Ry
     Harris-Foulkes estimate   =    -352.50585474 Ry
     estimated scf accuracy    <       0.03090878 Ry

     iteration #  8     ecut=    50.00 Ry     beta= 0.60
     Davidson diagonalization with overlap
     ethr =  8.13E-05,  avg # of iterations =  6.8

     total cpu time spent up to now is     5630.2 secs

     total energy              =    -352.51037960 Ry
     Harris-Foulkes estimate   =    -352.51872476 Ry
     estimated scf accuracy    <       0.06105264 Ry

     iteration #  9     ecut=    50.00 Ry     beta= 0.60
     Davidson diagonalization with overlap
     ethr =  8.13E-05,  avg # of iterations =  1.1

     total cpu time spent up to now is     5642.0 secs

     total energy              =    -352.51195154 Ry
     Harris-Foulkes estimate   =    -352.51198849 Ry
     estimated scf accuracy    <       0.01752292 Ry

     iteration # 10     ecut=    50.00 Ry     beta= 0.60
     Davidson diagonalization with overlap
     ethr =  4.61E-05,  avg # of iterations =  2.0

     total cpu time spent up to now is     5654.4 secs

     total energy              =    -352.51086834 Ry
     Harris-Foulkes estimate   =    -352.51239738 Ry
     estimated scf accuracy    <       0.01577202 Ry

     iteration # 11     ecut=    50.00 Ry     beta= 0.60
     Davidson diagonalization with overlap
     ethr =  4.15E-05,  avg # of iterations =  1.8

     total cpu time spent up to now is     5666.7 secs

     total energy              =    -352.51062996 Ry
     Harris-Foulkes estimate   =    -352.51128287 Ry
     estimated scf accuracy    <       0.00684456 Ry

     iteration # 12     ecut=    50.00 Ry     beta= 0.60
     Davidson diagonalization with overlap
     ethr =  1.80E-05,  avg # of iterations =  4.9

     total cpu time spent up to now is     5682.4 secs

     total energy              =    -352.51135160 Ry
     Harris-Foulkes estimate   =    -352.51136188 Ry
     estimated scf accuracy    <       0.00023365 Ry

     iteration # 13     ecut=    50.00 Ry     beta= 0.60
     Davidson diagonalization with overlap
     ethr =  6.15E-07,  avg # of iterations =  4.4

     total cpu time spent up to now is     5697.6 secs

     total energy              =    -352.51135613 Ry
     Harris-Foulkes estimate   =    -352.51138747 Ry
     estimated scf accuracy    <       0.00012451 Ry

     iteration # 14     ecut=    50.00 Ry     beta= 0.60
     Davidson diagonalization with overlap
     ethr =  3.28E-07,  avg # of iterations =  1.5

     total cpu time spent up to now is     5709.7 secs

     total energy              =    -352.51135208 Ry
     Harris-Foulkes estimate   =    -352.51136380 Ry
     estimated scf accuracy    <       0.00005842 Ry

     iteration # 15     ecut=    50.00 Ry     beta= 0.60
     Davidson diagonalization with overlap
     ethr =  1.54E-07,  avg # of iterations =  2.9

     total cpu time spent up to now is     5723.8 secs

     total energy              =    -352.51135135 Ry
     Harris-Foulkes estimate   =    -352.51136245 Ry
     estimated scf accuracy    <       0.00009949 Ry

     iteration # 16     ecut=    50.00 Ry     beta= 0.60
     Davidson diagonalization with overlap
     ethr =  1.54E-07,  avg # of iterations =  1.0

     total cpu time spent up to now is     5735.6 secs

     total energy              =    -352.51134955 Ry
     Harris-Foulkes estimate   =    -352.51135379 Ry
     estimated scf accuracy    <       0.00003363 Ry

     iteration # 17     ecut=    50.00 Ry     beta= 0.60
     Davidson diagonalization with overlap
     ethr =  8.85E-08,  avg # of iterations =  2.9

     total cpu time spent up to now is     5748.7 secs

     total energy              =    -352.51135139 Ry
     Harris-Foulkes estimate   =    -352.51135167 Ry
     estimated scf accuracy    <       0.00000292 Ry

     iteration # 18     ecut=    50.00 Ry     beta= 0.60
     Davidson diagonalization with overlap
     ethr =  7.69E-09,  avg # of iterations =  3.4

     total cpu time spent up to now is     5762.7 secs

     total energy              =    -352.51135171 Ry
     Harris-Foulkes estimate   =    -352.51135175 Ry
     estimated scf accuracy    <       0.00000034 Ry

     iteration # 19     ecut=    50.00 Ry     beta= 0.60
     Davidson diagonalization with overlap
     ethr =  8.89E-10,  avg # of iterations =  4.0

     total cpu time spent up to now is     5778.0 secs

     total energy              =    -352.51135180 Ry
     Harris-Foulkes estimate   =    -352.51135180 Ry
     estimated scf accuracy    <          9.4E-09 Ry

     iteration # 20     ecut=    50.00 Ry     beta= 0.60
     Davidson diagonalization with overlap
     ethr =  2.48E-11,  avg # of iterations =  4.2

     total cpu time spent up to now is     5794.2 secs

     total energy              =    -352.51135180 Ry
     Harris-Foulkes estimate   =    -352.51135180 Ry
     estimated scf accuracy    <          1.1E-09 Ry

     iteration # 21     ecut=    50.00 Ry     beta= 0.60
     Davidson diagonalization with overlap
     ethr =  2.93E-12,  avg # of iterations =  4.1

     total cpu time spent up to now is     5810.9 secs

     total energy              =    -352.51135180 Ry
     Harris-Foulkes estimate   =    -352.51135180 Ry
     estimated scf accuracy    <          3.3E-09 Ry

     iteration # 22     ecut=    50.00 Ry     beta= 0.60
     Davidson diagonalization with overlap
     ethr =  2.93E-12,  avg # of iterations =  3.7

     total cpu time spent up to now is     5825.2 secs

     total energy              =    -352.51135180 Ry
     Harris-Foulkes estimate   =    -352.51135180 Ry
     estimated scf accuracy    <          9.8E-11 Ry

     iteration # 23     ecut=    50.00 Ry     beta= 0.60
     Davidson diagonalization with overlap
     ethr =  2.58E-13,  avg # of iterations =  4.1

     total cpu time spent up to now is     5841.3 secs

     total energy              =    -352.51135180 Ry
     Harris-Foulkes estimate   =    -352.51135180 Ry
     estimated scf accuracy    <          4.6E-11 Ry

     iteration # 24     ecut=    50.00 Ry     beta= 0.60
     Davidson diagonalization with overlap
     ethr =  1.20E-13,  avg # of iterations =  1.3

     total cpu time spent up to now is     5853.3 secs

     total energy              =    -352.51135180 Ry
     Harris-Foulkes estimate   =    -352.51135180 Ry
     estimated scf accuracy    <          1.3E-11 Ry

     iteration # 25     ecut=    50.00 Ry     beta= 0.60
     Davidson diagonalization with overlap
     ethr =  1.00E-13,  avg # of iterations =  2.4

     total cpu time spent up to now is     5866.1 secs

     End of self-consistent calculation

     Number of k-points >= 100: set verbosity='high' to print the bands.

     the Fermi energy is    16.4587 ev

!    total energy              =    -352.51135180 Ry
     Harris-Foulkes estimate   =    -352.51135180 Ry
     estimated scf accuracy    <          1.0E-13 Ry

     The total energy is the sum of the following terms:

     one-electron contribution =     -73.72472082 Ry
     hartree contribution      =      54.52937364 Ry
     xc contribution           =     -51.42965872 Ry
     ewald contribution        =    -281.88494239 Ry
     smearing contrib. (-TS)   =      -0.00140351 Ry

     convergence has been achieved in  25 iterations

     Forces acting on atoms (cartesian axes, Ry/au):

     atom    1 type  2   force =     0.00000000   -0.00000130    0.00000000
     atom    2 type  1   force =     0.00000000   -0.00002383    0.00000000
     atom    3 type  1   force =     0.00000000    0.00002513    0.00000000

     Total force =     0.000035     Total SCF correction =     0.000001


     Computing stress (Cartesian axis) and pressure

          total   stress  (Ry/bohr**3)                   (kbar)     P=   -1.17
  -0.00000802  -0.00000000   0.00000000         -1.18     -0.00      0.00
  -0.00000000  -0.00000772   0.00000000         -0.00     -1.14      0.00
   0.00000000   0.00000000  -0.00000802          0.00      0.00     -1.18

 
     init_run     :     17.13s CPU     17.64s WALL (       2 calls)
     electrons    :   5645.11s CPU   5751.10s WALL (      16 calls)
     update_pot   :     15.33s CPU     15.51s WALL (      14 calls)
     forces       :     20.96s CPU     22.16s WALL (      16 calls)
     stress       :     53.44s CPU     56.72s WALL (      16 calls)

     Called by init_run:
     wfcinit      :     15.33s CPU     15.57s WALL (       2 calls)
     potinit      :      0.46s CPU      0.50s WALL (       2 calls)
     hinit0       :      0.92s CPU      1.08s WALL (       2 calls)

     Called by electrons:
     c_bands      :   4645.78s CPU   4703.62s WALL (     308 calls)
     sum_band     :    945.07s CPU    971.78s WALL (     308 calls)
     v_of_rho     :     20.78s CPU     21.03s WALL (     318 calls)
     newd         :     32.60s CPU     52.99s WALL (     318 calls)
     mix_rho      :      1.96s CPU      1.97s WALL (     308 calls)

     Called by c_bands:
     init_us_2    :     56.95s CPU     57.00s WALL (  158600 calls)
     cegterg      :   4404.55s CPU   4453.96s WALL (   75152 calls)

     Called by sum_band:
     sum_band:bec :      0.87s CPU      1.05s WALL (   75152 calls)
     addusdens    :     38.32s CPU     56.28s WALL (     308 calls)

     Called by *egterg:
     h_psi        :   3807.42s CPU   3851.79s WALL (  315867 calls)
     s_psi        :     51.93s CPU     52.93s WALL (  315867 calls)
     g_psi        :     14.70s CPU     14.91s WALL (  240227 calls)
     cdiaghg      :    328.21s CPU    329.70s WALL (  310499 calls)

     Called by h_psi:
     h_psi:pot    :   3802.40s CPU   3846.62s WALL (  315867 calls)
     h_psi:calbec :     61.74s CPU     62.65s WALL (  315867 calls)
     vloc_psi     :   3685.69s CPU   3729.05s WALL (  315867 calls)
     add_vuspsi   :     53.76s CPU     53.29s WALL (  315867 calls)

     General routines
     calbec       :     86.93s CPU     87.34s WALL (  410539 calls)
     fft          :     13.01s CPU     13.48s WALL (    4538 calls)
     ffts         :      0.43s CPU      0.44s WALL (     626 calls)
     fftw         :   4075.06s CPU   4131.16s WALL (10710510 calls)
     interpolate  :      1.14s CPU      1.16s WALL (     318 calls)
 
     Parallel routines
     fft_scatt_xy :    771.78s CPU    782.69s WALL (10715674 calls)
     fft_scatt_yz :    842.21s CPU    844.54s WALL (10715674 calls)
 
     PWSCF        :     1h35m CPU       35h 1m WALL

      37h
 
   This run was terminated on:   0:29:38  15Jan2020            

=------------------------------------------------------------------------------=
   JOB DONE.
=------------------------------------------------------------------------------=
