
     Program PWSCF v.6.0 (svn rev. 13079) starts on 26Apr2018 at 11: 0:18 

     This program is part of the open-source Quantum ESPRESSO suite
     for quantum simulation of materials; please cite
         "P. Giannozzi et al., J. Phys.:Condens. Matter 21 395502 (2009);
          URL http://www.quantum-espresso.org", 
     in publications or presentations arising from this work. More details at
     http://www.quantum-espresso.org/quote

     Parallel version (MPI), running on     4 processors
     R & G space division:  proc/nbgrp/npool/nimage =       4
     Waiting for input...
     Reading input from standard input

     Current dimensions of program PWSCF are:
     Max number of different atomic species (ntypx) = 10
     Max number of k-points (npk) =  40000
     Max angular momentum in pseudopotentials (lmaxx) =  3

     Subspace diagonalization in iterative solution of the eigenvalue problem:
     a serial algorithm will be used


     Parallelization info
     --------------------
     sticks:   dense  smooth     PW     G-vecs:    dense   smooth      PW
     Min         311     121     45                 6957     1740     400
     Max         312     122     46                 6960     1741     401
     Sum        1247     487    181                27835     6963    1601



     bravais-lattice index     =            0
     lattice parameter (alat)  =       1.8897  a.u.
     unit-cell volume          =     146.6684 (a.u.)^3
     number of atoms/cell      =            1
     number of atomic types    =            1
     number of electrons       =        12.00
     number of Kohn-Sham states=           10
     kinetic-energy cutoff     =      50.0000  Ry
     charge density cutoff     =     500.0000  Ry
     convergence threshold     =      1.0E-10
     mixing beta               =       0.6000
     number of iterations used =            8  plain     mixing
     Exchange-correlation      = SLA  PW   PBE  PBE ( 1  4  3  4 0 0)
     nstep                     =           50


     celldm(1)=   1.889726  celldm(2)=   0.000000  celldm(3)=   0.000000
     celldm(4)=   0.000000  celldm(5)=   0.000000  celldm(6)=   0.000000

     crystal axes: (cart. coord. in units of alat)
               a(1) = (   1.758031  -1.758031   1.758031 )  
               a(2) = (   1.758031   1.758031  -1.758031 )  
               a(3) = (  -1.758031   1.758031   1.758031 )  

     reciprocal axes: (cart. coord. in units 2 pi/alat)
               b(1) = (  0.284409  0.000000  0.284409 )  
               b(2) = (  0.284409  0.284409  0.000000 )  
               b(3) = (  0.000000  0.284409  0.284409 )  


     PseudoPot. # 1 for Ti read from file:
     ./Ti.pbe-sp-van_ak.UPF
     MD5 check sum: f98fea3e8887528921fefa5636a534ca
     Pseudo is Ultrasoft, Zval = 12.0
     Generated by new atomic code, or converted to UPF format
     Using radial grid of  851 points,  6 beta functions with: 
                l(1) =   0
                l(2) =   0
                l(3) =   1
                l(4) =   1
                l(5) =   2
                l(6) =   2
     Q(r) pseudized with  8 coefficients,  rinner =    1.000   1.000   1.000
                                                       1.000   1.000

     atomic species   valence    mass     pseudopotential
        Ti            12.00    47.86700     Ti( 1.00)

     48 Sym. Ops., with inversion, found



   Cartesian axes

     site n.     atom                  positions (alat units)
         1           Ti  tau(   1) = (   1.7580316   1.7580316   1.7580316  )

     number of k points=   256  Marzari-Vanderbilt smearing, width (Ry)=  0.0200

     Number of k-points >= 100: set verbosity='high' to print them.

     Dense  grid:    27835 G-vectors     FFT dimensions: (  45,  45,  45)

     Smooth grid:     6963 G-vectors     FFT dimensions: (  25,  25,  25)

     Estimated max dynamical RAM per process >      13.38Mb

     Estimated total allocated dynamical RAM >      53.53Mb

     Initial potential from superposition of free atoms

     starting charge   10.99996, renormalised to   12.00000
     Starting wfc are   10 randomized atomic wfcs

     total cpu time spent up to now is        1.0 secs

     per-process dynamical memory:    47.2 Mb

     Self-consistent Calculation

     iteration #  1     ecut=    50.00 Ry     beta=0.60
     Davidson diagonalization with overlap
     ethr =  1.00E-02,  avg # of iterations =  3.2

     total cpu time spent up to now is        3.2 secs

     total energy              =    -116.31765621 Ry
     Harris-Foulkes estimate   =    -116.93492289 Ry
     estimated scf accuracy    <       0.85757417 Ry

     iteration #  2     ecut=    50.00 Ry     beta=0.60
     Davidson diagonalization with overlap
     ethr =  7.15E-03,  avg # of iterations =  2.9

     total cpu time spent up to now is        5.1 secs

     total energy              =    -116.52948385 Ry
     Harris-Foulkes estimate   =    -116.72806210 Ry
     estimated scf accuracy    <       0.39659273 Ry

     iteration #  3     ecut=    50.00 Ry     beta=0.60
     Davidson diagonalization with overlap
     ethr =  3.30E-03,  avg # of iterations =  2.9

     total cpu time spent up to now is        6.7 secs

     total energy              =    -116.62122854 Ry
     Harris-Foulkes estimate   =    -116.62529602 Ry
     estimated scf accuracy    <       0.00746311 Ry

     iteration #  4     ecut=    50.00 Ry     beta=0.60
     Davidson diagonalization with overlap
     ethr =  6.22E-05,  avg # of iterations =  3.0

     total cpu time spent up to now is        8.8 secs

     total energy              =    -116.62481555 Ry
     Harris-Foulkes estimate   =    -116.62479958 Ry
     estimated scf accuracy    <       0.00015259 Ry

     iteration #  5     ecut=    50.00 Ry     beta=0.60
     Davidson diagonalization with overlap
     ethr =  1.27E-06,  avg # of iterations =  1.5

     total cpu time spent up to now is       10.1 secs

     total energy              =    -116.62475870 Ry
     Harris-Foulkes estimate   =    -116.62481829 Ry
     estimated scf accuracy    <       0.00015023 Ry

     iteration #  6     ecut=    50.00 Ry     beta=0.60
     Davidson diagonalization with overlap
     ethr =  1.25E-06,  avg # of iterations =  2.7

     total cpu time spent up to now is       11.7 secs

     total energy              =    -116.62478871 Ry
     Harris-Foulkes estimate   =    -116.62478935 Ry
     estimated scf accuracy    <       0.00000218 Ry

     iteration #  7     ecut=    50.00 Ry     beta=0.60
     Davidson diagonalization with overlap
     ethr =  1.82E-08,  avg # of iterations =  3.0

     total cpu time spent up to now is       13.5 secs

     total energy              =    -116.62479018 Ry
     Harris-Foulkes estimate   =    -116.62479016 Ry
     estimated scf accuracy    <       0.00000002 Ry

     iteration #  8     ecut=    50.00 Ry     beta=0.60
     Davidson diagonalization with overlap
     ethr =  1.89E-10,  avg # of iterations =  2.2

     total cpu time spent up to now is       15.0 secs

     total energy              =    -116.62479018 Ry
     Harris-Foulkes estimate   =    -116.62479018 Ry
     estimated scf accuracy    <          1.2E-09 Ry

     iteration #  9     ecut=    50.00 Ry     beta=0.60
     Davidson diagonalization with overlap
     ethr =  1.00E-11,  avg # of iterations =  2.3

     total cpu time spent up to now is       16.6 secs

     total energy              =    -116.62479018 Ry
     Harris-Foulkes estimate   =    -116.62479018 Ry
     estimated scf accuracy    <          7.7E-10 Ry

     iteration # 10     ecut=    50.00 Ry     beta=0.60
     Davidson diagonalization with overlap
     ethr =  6.45E-12,  avg # of iterations =  2.7

     total cpu time spent up to now is       18.2 secs

     End of self-consistent calculation

     Number of k-points >= 100: set verbosity='high' to print the bands.

     the Fermi energy is     9.9591 ev

!    total energy              =    -116.62479018 Ry
     Harris-Foulkes estimate   =    -116.62479018 Ry
     estimated scf accuracy    <          4.7E-11 Ry

     The total energy is the sum of the following terms:

     one-electron contribution =     -50.88971851 Ry
     hartree contribution      =      27.51439887 Ry
     xc contribution           =     -14.37789784 Ry
     ewald contribution        =     -78.87092309 Ry
     smearing contrib. (-TS)   =      -0.00064961 Ry

     convergence has been achieved in  10 iterations

     Forces acting on atoms (Ry/au):

     atom    1 type  1   force =     0.00000000    0.00000000    0.00000000

     Total force =     0.000000     Total SCF correction =     0.000000


     entering subroutine stress ...

          total   stress  (Ry/bohr**3)                   (kbar)     P= -164.76
  -0.00112003  -0.00000000  -0.00000000       -164.76     -0.00     -0.00
  -0.00000000  -0.00112003  -0.00000000         -0.00   -164.76     -0.00
  -0.00000000  -0.00000000  -0.00112003         -0.00     -0.00   -164.76


     BFGS Geometry Optimization

     number of scf cycles    =   1
     number of bfgs steps    =   0

     enthalpy new            =    -116.6247901803 Ry

     new trust radius        =       0.0678214075 bohr
     new conv_thr            =            1.0E-10 Ry

     new unit-cell volume =    134.68969 a.u.^3 (    19.95895 Ang^3 )

CELL_PARAMETERS (alat=  1.88972599)
   1.708805422  -1.708805422   1.708805422
   1.708805422   1.708805422  -1.708805422
  -1.708805422   1.708805422   1.708805422

ATOMIC_POSITIONS (angstrom)
Ti       1.708805422   1.708805422   1.708805422


     NEW-OLD atomic charge density approx. for the potential
     extrapolated charge   11.02171, renormalised to   12.00000

     total cpu time spent up to now is       19.5 secs

     per-process dynamical memory:    69.2 Mb

     Self-consistent Calculation

     iteration #  1     ecut=    50.00 Ry     beta=0.60
     Davidson diagonalization with overlap
     ethr =  1.00E-06,  avg # of iterations =  4.9

     total cpu time spent up to now is       22.5 secs

     total energy              =    -115.33879477 Ry
     Harris-Foulkes estimate   =    -119.67558288 Ry
     estimated scf accuracy    <       1.26334202 Ry

     iteration #  2     ecut=    50.00 Ry     beta=0.60
     Davidson diagonalization with overlap
     ethr =  1.00E-02,  avg # of iterations =  3.0

     total cpu time spent up to now is       24.8 secs

     total energy              =    -116.67912454 Ry
     Harris-Foulkes estimate   =    -117.46718712 Ry
     estimated scf accuracy    <       2.04123223 Ry

     iteration #  3     ecut=    50.00 Ry     beta=0.60
     Davidson diagonalization with overlap
     ethr =  1.00E-02,  avg # of iterations =  2.0

     total cpu time spent up to now is       26.2 secs

     total energy              =    -116.77166096 Ry
     Harris-Foulkes estimate   =    -116.76804359 Ry
     estimated scf accuracy    <       0.58232683 Ry

     iteration #  4     ecut=    50.00 Ry     beta=0.60
     Davidson diagonalization with overlap
     ethr =  4.85E-03,  avg # of iterations =  1.4

     total cpu time spent up to now is       27.5 secs

     total energy              =    -116.64279463 Ry
     Harris-Foulkes estimate   =    -116.78784654 Ry
     estimated scf accuracy    <       0.55383889 Ry

     iteration #  5     ecut=    50.00 Ry     beta=0.60
     Davidson diagonalization with overlap
     ethr =  4.62E-03,  avg # of iterations =  1.8

     total cpu time spent up to now is       28.9 secs

     total energy              =    -116.66154023 Ry
     Harris-Foulkes estimate   =    -116.67404263 Ry
     estimated scf accuracy    <       0.18569520 Ry

     iteration #  6     ecut=    50.00 Ry     beta=0.60
     Davidson diagonalization with overlap
     ethr =  1.55E-03,  avg # of iterations =  1.8

     total cpu time spent up to now is       30.3 secs

     total energy              =    -116.63010053 Ry
     Harris-Foulkes estimate   =    -116.66881898 Ry
     estimated scf accuracy    <       0.12893944 Ry

     iteration #  7     ecut=    50.00 Ry     beta=0.60
     Davidson diagonalization with overlap
     ethr =  1.07E-03,  avg # of iterations =  2.1

     total cpu time spent up to now is       31.7 secs

     total energy              =    -116.64101572 Ry
     Harris-Foulkes estimate   =    -116.63990069 Ry
     estimated scf accuracy    <       0.02681044 Ry

     iteration #  8     ecut=    50.00 Ry     beta=0.60
     Davidson diagonalization with overlap
     ethr =  2.23E-04,  avg # of iterations =  2.5

     total cpu time spent up to now is       33.2 secs

     total energy              =    -116.64144311 Ry
     Harris-Foulkes estimate   =    -116.64273767 Ry
     estimated scf accuracy    <       0.02292986 Ry

     iteration #  9     ecut=    50.00 Ry     beta=0.60
     Davidson diagonalization with overlap
     ethr =  1.91E-04,  avg # of iterations =  1.0

     total cpu time spent up to now is       34.5 secs

     total energy              =    -116.63995507 Ry
     Harris-Foulkes estimate   =    -116.64158016 Ry
     estimated scf accuracy    <       0.01846686 Ry

     iteration # 10     ecut=    50.00 Ry     beta=0.60
     Davidson diagonalization with overlap
     ethr =  1.54E-04,  avg # of iterations =  1.0

     total cpu time spent up to now is       35.8 secs

     total energy              =    -116.63532300 Ry
     Harris-Foulkes estimate   =    -116.64009530 Ry
     estimated scf accuracy    <       0.01303606 Ry

     iteration # 11     ecut=    50.00 Ry     beta=0.60
     Davidson diagonalization with overlap
     ethr =  1.09E-04,  avg # of iterations =  2.6

     total cpu time spent up to now is       37.2 secs

     total energy              =    -116.63682666 Ry
     Harris-Foulkes estimate   =    -116.63681618 Ry
     estimated scf accuracy    <       0.00103980 Ry

     iteration # 12     ecut=    50.00 Ry     beta=0.60
     Davidson diagonalization with overlap
     ethr =  8.67E-06,  avg # of iterations =  2.0

     total cpu time spent up to now is       38.7 secs

     total energy              =    -116.63718795 Ry
     Harris-Foulkes estimate   =    -116.63688696 Ry
     estimated scf accuracy    <       0.00098469 Ry

     iteration # 13     ecut=    50.00 Ry     beta=0.60
     Davidson diagonalization with overlap
     ethr =  8.21E-06,  avg # of iterations =  1.0

     total cpu time spent up to now is       40.0 secs

     total energy              =    -116.63730716 Ry
     Harris-Foulkes estimate   =    -116.63723301 Ry
     estimated scf accuracy    <       0.00197183 Ry

     iteration # 14     ecut=    50.00 Ry     beta=0.60
     Davidson diagonalization with overlap
     ethr =  8.21E-06,  avg # of iterations =  1.0

     total cpu time spent up to now is       41.3 secs

     total energy              =    -116.63692505 Ry
     Harris-Foulkes estimate   =    -116.63731990 Ry
     estimated scf accuracy    <       0.00228021 Ry

     iteration # 15     ecut=    50.00 Ry     beta=0.60
     Davidson diagonalization with overlap
     ethr =  8.21E-06,  avg # of iterations =  1.0

     total cpu time spent up to now is       42.5 secs

     total energy              =    -116.63680354 Ry
     Harris-Foulkes estimate   =    -116.63695847 Ry
     estimated scf accuracy    <       0.00127901 Ry

     iteration # 16     ecut=    50.00 Ry     beta=0.60
     Davidson diagonalization with overlap
     ethr =  8.21E-06,  avg # of iterations =  1.0

     total cpu time spent up to now is       43.8 secs

     total energy              =    -116.63658323 Ry
     Harris-Foulkes estimate   =    -116.63682267 Ry
     estimated scf accuracy    <       0.00075685 Ry

     iteration # 17     ecut=    50.00 Ry     beta=0.60
     Davidson diagonalization with overlap
     ethr =  6.31E-06,  avg # of iterations =  2.7

     total cpu time spent up to now is       45.4 secs

     total energy              =    -116.63673568 Ry
     Harris-Foulkes estimate   =    -116.63669918 Ry
     estimated scf accuracy    <       0.00024397 Ry

     iteration # 18     ecut=    50.00 Ry     beta=0.60
     Davidson diagonalization with overlap
     ethr =  2.03E-06,  avg # of iterations =  1.1

     total cpu time spent up to now is       46.6 secs

     total energy              =    -116.63678725 Ry
     Harris-Foulkes estimate   =    -116.63673971 Ry
     estimated scf accuracy    <       0.00033572 Ry

     iteration # 19     ecut=    50.00 Ry     beta=0.60
     Davidson diagonalization with overlap
     ethr =  2.03E-06,  avg # of iterations =  2.9

     total cpu time spent up to now is       48.3 secs

     total energy              =    -116.63748038 Ry
     Harris-Foulkes estimate   =    -116.63687612 Ry
     estimated scf accuracy    <       0.00077902 Ry

     iteration # 20     ecut=    50.00 Ry     beta=0.60
     Davidson diagonalization with overlap
     ethr =  2.03E-06,  avg # of iterations =  2.9

     total cpu time spent up to now is       50.3 secs

     total energy              =    -116.63819867 Ry
     Harris-Foulkes estimate   =    -116.63763638 Ry
     estimated scf accuracy    <       0.00317648 Ry

     iteration # 21     ecut=    50.00 Ry     beta=0.60
     Davidson diagonalization with overlap
     ethr =  2.03E-06,  avg # of iterations =  3.0

     total cpu time spent up to now is       51.9 secs

     total energy              =    -116.63468232 Ry
     Harris-Foulkes estimate   =    -116.63835178 Ry
     estimated scf accuracy    <       0.00619353 Ry

     iteration # 22     ecut=    50.00 Ry     beta=0.60
     Davidson diagonalization with overlap
     ethr =  2.03E-06,  avg # of iterations =  3.3

     total cpu time spent up to now is       54.4 secs

     total energy              =    -116.63652098 Ry
     Harris-Foulkes estimate   =    -116.63673984 Ry
     estimated scf accuracy    <       0.00063986 Ry

     iteration # 23     ecut=    50.00 Ry     beta=0.60
     Davidson diagonalization with overlap
     ethr =  2.03E-06,  avg # of iterations =  2.7

     total cpu time spent up to now is       56.0 secs

     total energy              =    -116.63660412 Ry
     Harris-Foulkes estimate   =    -116.63660578 Ry
     estimated scf accuracy    <       0.00001850 Ry

     iteration # 24     ecut=    50.00 Ry     beta=0.60
     Davidson diagonalization with overlap
     ethr =  1.54E-07,  avg # of iterations =  2.0

     total cpu time spent up to now is       57.4 secs

     total energy              =    -116.63660598 Ry
     Harris-Foulkes estimate   =    -116.63660643 Ry
     estimated scf accuracy    <       0.00000236 Ry

     iteration # 25     ecut=    50.00 Ry     beta=0.60
     Davidson diagonalization with overlap
     ethr =  1.96E-08,  avg # of iterations =  2.8

     total cpu time spent up to now is       59.0 secs

     total energy              =    -116.63660681 Ry
     Harris-Foulkes estimate   =    -116.63660689 Ry
     estimated scf accuracy    <       0.00000013 Ry

     iteration # 26     ecut=    50.00 Ry     beta=0.60
     Davidson diagonalization with overlap
     ethr =  1.12E-09,  avg # of iterations =  2.8

     total cpu time spent up to now is       60.6 secs

     total energy              =    -116.63660685 Ry
     Harris-Foulkes estimate   =    -116.63660688 Ry
     estimated scf accuracy    <       0.00000007 Ry

     iteration # 27     ecut=    50.00 Ry     beta=0.60
     Davidson diagonalization with overlap
     ethr =  5.59E-10,  avg # of iterations =  2.5

     total cpu time spent up to now is       62.0 secs

     total energy              =    -116.63660686 Ry
     Harris-Foulkes estimate   =    -116.63660686 Ry
     estimated scf accuracy    <          2.5E-09 Ry

     iteration # 28     ecut=    50.00 Ry     beta=0.60
     Davidson diagonalization with overlap
     ethr =  2.06E-11,  avg # of iterations =  2.9

     total cpu time spent up to now is       63.8 secs

     total energy              =    -116.63660686 Ry
     Harris-Foulkes estimate   =    -116.63660686 Ry
     estimated scf accuracy    <          1.1E-09 Ry

     iteration # 29     ecut=    50.00 Ry     beta=0.60
     Davidson diagonalization with overlap
     ethr =  9.00E-12,  avg # of iterations =  2.7

     total cpu time spent up to now is       65.4 secs

     End of self-consistent calculation

     Number of k-points >= 100: set verbosity='high' to print the bands.

     the Fermi energy is    11.0802 ev

!    total energy              =    -116.63660686 Ry
     Harris-Foulkes estimate   =    -116.63660686 Ry
     estimated scf accuracy    <          7.5E-11 Ry

     The total energy is the sum of the following terms:

     one-electron contribution =     -47.41717036 Ry
     hartree contribution      =      26.35405023 Ry
     xc contribution           =     -14.43018666 Ry
     ewald contribution        =     -81.14298177 Ry
     smearing contrib. (-TS)   =      -0.00031831 Ry

     convergence has been achieved in  29 iterations

     Forces acting on atoms (Ry/au):

     atom    1 type  1   force =     0.00000000    0.00000000    0.00000000

     Total force =     0.000000     Total SCF correction =     0.000000


     entering subroutine stress ...

          total   stress  (Ry/bohr**3)                   (kbar)     P= -122.16
  -0.00083040   0.00000000   0.00000000       -122.16      0.00      0.00
   0.00000000  -0.00083040   0.00000000          0.00   -122.16      0.00
   0.00000000   0.00000000  -0.00083040          0.00      0.00   -122.16


     number of scf cycles    =   2
     number of bfgs steps    =   1

     enthalpy old            =    -116.6247901803 Ry
     enthalpy new            =    -116.6366068615 Ry

     CASE: enthalpy_new < enthalpy_old

     new trust radius        =       0.1002977148 bohr
     new conv_thr            =            1.0E-12 Ry

     new unit-cell volume =    117.97308 a.u.^3 (    17.48181 Ang^3 )

CELL_PARAMETERS (alat=  1.88972599)
   1.634966306  -1.634966306   1.634966306
   1.634966306   1.634966306  -1.634966306
  -1.634966306   1.634966306   1.634966306

ATOMIC_POSITIONS (angstrom)
Ti       1.634966306   1.634966306   1.634966306


     NEW-OLD atomic charge density approx. for the potential
     extrapolated charge   10.44132, renormalised to   12.00000

     total cpu time spent up to now is       66.7 secs

     per-process dynamical memory:    69.6 Mb

     Self-consistent Calculation

     iteration #  1     ecut=    50.00 Ry     beta=0.60
     Davidson diagonalization with overlap
     ethr =  1.00E-06,  avg # of iterations =  5.0

     total cpu time spent up to now is       69.8 secs

     total energy              =    -114.17822420 Ry
     Harris-Foulkes estimate   =    -121.14824397 Ry
     estimated scf accuracy    <       2.42919964 Ry

     iteration #  2     ecut=    50.00 Ry     beta=0.60
     Davidson diagonalization with overlap
     ethr =  1.00E-02,  avg # of iterations =  3.1

     total cpu time spent up to now is       72.2 secs

     total energy              =    -116.73654544 Ry
     Harris-Foulkes estimate   =    -118.00323830 Ry
     estimated scf accuracy    <       3.13384537 Ry

     iteration #  3     ecut=    50.00 Ry     beta=0.60
     Davidson diagonalization with overlap
     ethr =  1.00E-02,  avg # of iterations =  2.5

     total cpu time spent up to now is       73.6 secs

     total energy              =    -116.90128001 Ry
     Harris-Foulkes estimate   =    -116.88882369 Ry
     estimated scf accuracy    <       0.80053935 Ry

     iteration #  4     ecut=    50.00 Ry     beta=0.60
     Davidson diagonalization with overlap
     ethr =  6.67E-03,  avg # of iterations =  1.0

     total cpu time spent up to now is       74.9 secs

     total energy              =    -116.69254012 Ry
     Harris-Foulkes estimate   =    -116.91399243 Ry
     estimated scf accuracy    <       0.81655532 Ry

     iteration #  5     ecut=    50.00 Ry     beta=0.60
     Davidson diagonalization with overlap
     ethr =  6.67E-03,  avg # of iterations =  1.2

     total cpu time spent up to now is       76.2 secs

     total energy              =    -116.64218288 Ry
     Harris-Foulkes estimate   =    -116.72182066 Ry
     estimated scf accuracy    <       0.33891856 Ry

     iteration #  6     ecut=    50.00 Ry     beta=0.60
     Davidson diagonalization with overlap
     ethr =  2.82E-03,  avg # of iterations =  2.3

     total cpu time spent up to now is       77.7 secs

     total energy              =    -116.67702401 Ry
     Harris-Foulkes estimate   =    -116.67221644 Ry
     estimated scf accuracy    <       0.09072717 Ry

     iteration #  7     ecut=    50.00 Ry     beta=0.60
     Davidson diagonalization with overlap
     ethr =  7.56E-04,  avg # of iterations =  1.1

     total cpu time spent up to now is       79.0 secs

     total energy              =    -116.65210116 Ry
     Harris-Foulkes estimate   =    -116.67781958 Ry
     estimated scf accuracy    <       0.10516097 Ry

     iteration #  8     ecut=    50.00 Ry     beta=0.60
     Davidson diagonalization with overlap
     ethr =  7.56E-04,  avg # of iterations =  1.1

     total cpu time spent up to now is       80.3 secs

     total energy              =    -116.64204695 Ry
     Harris-Foulkes estimate   =    -116.65541646 Ry
     estimated scf accuracy    <       0.04449884 Ry

     iteration #  9     ecut=    50.00 Ry     beta=0.60
     Davidson diagonalization with overlap
     ethr =  3.71E-04,  avg # of iterations =  2.5

     total cpu time spent up to now is       81.8 secs

     total energy              =    -116.64663134 Ry
     Harris-Foulkes estimate   =    -116.64722313 Ry
     estimated scf accuracy    <       0.00810968 Ry

     iteration # 10     ecut=    50.00 Ry     beta=0.60
     Davidson diagonalization with overlap
     ethr =  6.76E-05,  avg # of iterations =  1.3

     total cpu time spent up to now is       83.1 secs

     total energy              =    -116.64680036 Ry
     Harris-Foulkes estimate   =    -116.64694908 Ry
     estimated scf accuracy    <       0.00649974 Ry

     iteration # 11     ecut=    50.00 Ry     beta=0.60
     Davidson diagonalization with overlap
     ethr =  5.42E-05,  avg # of iterations =  1.0

     total cpu time spent up to now is       84.4 secs

     total energy              =    -116.64821963 Ry
     Harris-Foulkes estimate   =    -116.64690550 Ry
     estimated scf accuracy    <       0.00585407 Ry

     iteration # 12     ecut=    50.00 Ry     beta=0.60
     Davidson diagonalization with overlap
     ethr =  4.88E-05,  avg # of iterations =  1.0

     total cpu time spent up to now is       85.7 secs

     total energy              =    -116.65425382 Ry
     Harris-Foulkes estimate   =    -116.64842351 Ry
     estimated scf accuracy    <       0.01029070 Ry

     iteration # 13     ecut=    50.00 Ry     beta=0.60
     Davidson diagonalization with overlap
     ethr =  4.88E-05,  avg # of iterations =  2.9

     total cpu time spent up to now is       87.6 secs

     total energy              =    -116.64417215 Ry
     Harris-Foulkes estimate   =    -116.65757270 Ry
     estimated scf accuracy    <       0.03980592 Ry

     iteration # 14     ecut=    50.00 Ry     beta=0.60
     Davidson diagonalization with overlap
     ethr =  4.88E-05,  avg # of iterations =  2.9

     total cpu time spent up to now is       89.2 secs

     total energy              =    -116.64543821 Ry
     Harris-Foulkes estimate   =    -116.64687898 Ry
     estimated scf accuracy    <       0.00574883 Ry

     iteration # 15     ecut=    50.00 Ry     beta=0.60
     Davidson diagonalization with overlap
     ethr =  4.79E-05,  avg # of iterations =  1.0

     total cpu time spent up to now is       90.5 secs

     total energy              =    -116.64517079 Ry
     Harris-Foulkes estimate   =    -116.64571843 Ry
     estimated scf accuracy    <       0.00210751 Ry

     iteration # 16     ecut=    50.00 Ry     beta=0.60
     Davidson diagonalization with overlap
     ethr =  1.76E-05,  avg # of iterations =  2.0

     total cpu time spent up to now is       91.9 secs

     total energy              =    -116.64538128 Ry
     Harris-Foulkes estimate   =    -116.64534529 Ry
     estimated scf accuracy    <       0.00053198 Ry

     iteration # 17     ecut=    50.00 Ry     beta=0.60
     Davidson diagonalization with overlap
     ethr =  4.43E-06,  avg # of iterations =  1.1

     total cpu time spent up to now is       93.2 secs

     total energy              =    -116.64525492 Ry
     Harris-Foulkes estimate   =    -116.64539106 Ry
     estimated scf accuracy    <       0.00064981 Ry

     iteration # 18     ecut=    50.00 Ry     beta=0.60
     Davidson diagonalization with overlap
     ethr =  4.43E-06,  avg # of iterations =  1.0

     total cpu time spent up to now is       94.5 secs

     total energy              =    -116.64519119 Ry
     Harris-Foulkes estimate   =    -116.64527400 Ry
     estimated scf accuracy    <       0.00029223 Ry

     iteration # 19     ecut=    50.00 Ry     beta=0.60
     Davidson diagonalization with overlap
     ethr =  2.44E-06,  avg # of iterations =  1.9

     total cpu time spent up to now is       95.9 secs

     total energy              =    -116.64517524 Ry
     Harris-Foulkes estimate   =    -116.64521112 Ry
     estimated scf accuracy    <       0.00008419 Ry

     iteration # 20     ecut=    50.00 Ry     beta=0.60
     Davidson diagonalization with overlap
     ethr =  7.02E-07,  avg # of iterations =  2.5

     total cpu time spent up to now is       97.4 secs

     total energy              =    -116.64520263 Ry
     Harris-Foulkes estimate   =    -116.64518771 Ry
     estimated scf accuracy    <       0.00003690 Ry

     iteration # 21     ecut=    50.00 Ry     beta=0.60
     Davidson diagonalization with overlap
     ethr =  3.07E-07,  avg # of iterations =  1.0

     total cpu time spent up to now is       98.7 secs

     total energy              =    -116.64517834 Ry
     Harris-Foulkes estimate   =    -116.64520368 Ry
     estimated scf accuracy    <       0.00007564 Ry

     iteration # 22     ecut=    50.00 Ry     beta=0.60
     Davidson diagonalization with overlap
     ethr =  3.07E-07,  avg # of iterations =  1.3

     total cpu time spent up to now is      100.0 secs

     total energy              =    -116.64518552 Ry
     Harris-Foulkes estimate   =    -116.64518074 Ry
     estimated scf accuracy    <       0.00001749 Ry

     iteration # 23     ecut=    50.00 Ry     beta=0.60
     Davidson diagonalization with overlap
     ethr =  1.46E-07,  avg # of iterations =  2.9

     total cpu time spent up to now is      101.8 secs

     total energy              =    -116.64518787 Ry
     Harris-Foulkes estimate   =    -116.64520026 Ry
     estimated scf accuracy    <       0.00008471 Ry

     iteration # 24     ecut=    50.00 Ry     beta=0.60
     Davidson diagonalization with overlap
     ethr =  1.46E-07,  avg # of iterations =  1.9

     total cpu time spent up to now is      103.2 secs

     total energy              =    -116.64517865 Ry
     Harris-Foulkes estimate   =    -116.64518966 Ry
     estimated scf accuracy    <       0.00004562 Ry

     iteration # 25     ecut=    50.00 Ry     beta=0.60
     Davidson diagonalization with overlap
     ethr =  1.46E-07,  avg # of iterations =  2.7

     total cpu time spent up to now is      104.7 secs

     total energy              =    -116.64518411 Ry
     Harris-Foulkes estimate   =    -116.64518109 Ry
     estimated scf accuracy    <       0.00001200 Ry

     iteration # 26     ecut=    50.00 Ry     beta=0.60
     Davidson diagonalization with overlap
     ethr =  1.00E-07,  avg # of iterations =  1.1

     total cpu time spent up to now is      106.0 secs

     total energy              =    -116.64517915 Ry
     Harris-Foulkes estimate   =    -116.64518476 Ry
     estimated scf accuracy    <       0.00001342 Ry

     iteration # 27     ecut=    50.00 Ry     beta=0.60
     Davidson diagonalization with overlap
     ethr =  1.00E-07,  avg # of iterations =  1.5

     total cpu time spent up to now is      107.3 secs

     total energy              =    -116.64518004 Ry
     Harris-Foulkes estimate   =    -116.64518008 Ry
     estimated scf accuracy    <       0.00000007 Ry

     iteration # 28     ecut=    50.00 Ry     beta=0.60
     Davidson diagonalization with overlap
     ethr =  5.54E-10,  avg # of iterations =  3.5

     total cpu time spent up to now is      109.3 secs

     total energy              =    -116.64518020 Ry
     Harris-Foulkes estimate   =    -116.64518024 Ry
     estimated scf accuracy    <       0.00000012 Ry

     iteration # 29     ecut=    50.00 Ry     beta=0.60
     Davidson diagonalization with overlap
     ethr =  5.54E-10,  avg # of iterations =  2.4

     total cpu time spent up to now is      110.7 secs

     total energy              =    -116.64518020 Ry
     Harris-Foulkes estimate   =    -116.64518021 Ry
     estimated scf accuracy    <       0.00000003 Ry

     iteration # 30     ecut=    50.00 Ry     beta=0.60
     Davidson diagonalization with overlap
     ethr =  2.10E-10,  avg # of iterations =  2.5

     total cpu time spent up to now is      112.2 secs

     total energy              =    -116.64518020 Ry
     Harris-Foulkes estimate   =    -116.64518020 Ry
     estimated scf accuracy    <          1.1E-09 Ry

     iteration # 31     ecut=    50.00 Ry     beta=0.60
     Davidson diagonalization with overlap
     ethr =  9.50E-12,  avg # of iterations =  2.9

     total cpu time spent up to now is      113.9 secs

     total energy              =    -116.64518020 Ry
     Harris-Foulkes estimate   =    -116.64518020 Ry
     estimated scf accuracy    <          2.7E-11 Ry

     iteration # 32     ecut=    50.00 Ry     beta=0.60
     Davidson diagonalization with overlap
     ethr =  2.29E-13,  avg # of iterations =  1.8

     total cpu time spent up to now is      115.3 secs

     total energy              =    -116.64518020 Ry
     Harris-Foulkes estimate   =    -116.64518020 Ry
     estimated scf accuracy    <          4.2E-11 Ry

     iteration # 33     ecut=    50.00 Ry     beta=0.60
     Davidson diagonalization with overlap
     ethr =  2.29E-13,  avg # of iterations =  2.9

     total cpu time spent up to now is      117.1 secs

     total energy              =    -116.64518020 Ry
     Harris-Foulkes estimate   =    -116.64518020 Ry
     estimated scf accuracy    <          4.1E-12 Ry

     iteration # 34     ecut=    50.00 Ry     beta=0.60
     Davidson diagonalization with overlap
     ethr =  1.00E-13,  avg # of iterations =  2.7

     total cpu time spent up to now is      118.6 secs

     total energy              =    -116.64518020 Ry
     Harris-Foulkes estimate   =    -116.64518020 Ry
     estimated scf accuracy    <          2.0E-12 Ry

     iteration # 35     ecut=    50.00 Ry     beta=0.60
     Davidson diagonalization with overlap
     ethr =  1.00E-13,  avg # of iterations =  1.0

     total cpu time spent up to now is      119.9 secs

     End of self-consistent calculation

     Number of k-points >= 100: set verbosity='high' to print the bands.

     the Fermi energy is    13.0066 ev

!    total energy              =    -116.64518020 Ry
     Harris-Foulkes estimate   =    -116.64518020 Ry
     estimated scf accuracy    <          1.7E-13 Ry

     The total energy is the sum of the following terms:

     one-electron contribution =     -41.89589491 Ry
     hartree contribution      =      24.58325020 Ry
     xc contribution           =     -14.52498846 Ry
     ewald contribution        =     -84.80759923 Ry
     smearing contrib. (-TS)   =       0.00005220 Ry

     convergence has been achieved in  35 iterations

     Forces acting on atoms (Ry/au):

     atom    1 type  1   force =     0.00000000    0.00000000    0.00000000

     Total force =     0.000000     Total SCF correction =     0.000000


     entering subroutine stress ...

          total   stress  (Ry/bohr**3)                   (kbar)     P=  -17.93
  -0.00012185  -0.00000000   0.00000000        -17.93     -0.00      0.00
  -0.00000000  -0.00012185   0.00000000         -0.00    -17.93      0.00
   0.00000000   0.00000000  -0.00012185          0.00      0.00    -17.93


     number of scf cycles    =   3
     number of bfgs steps    =   2

     enthalpy old            =    -116.6366068615 Ry
     enthalpy new            =    -116.6451801988 Ry

     CASE: enthalpy_new < enthalpy_old

     new trust radius        =       0.0152240942 bohr
     new conv_thr            =            1.0E-12 Ry

     new unit-cell volume =    115.51007 a.u.^3 (    17.11683 Ang^3 )

CELL_PARAMETERS (alat=  1.88972599)
   1.623508042  -1.623508042   1.623508042
   1.623508042   1.623508042  -1.623508042
  -1.623508042   1.623508042   1.623508042

ATOMIC_POSITIONS (angstrom)
Ti       1.623508042   1.623508042   1.623508042


     NEW-OLD atomic charge density approx. for the potential
     extrapolated charge   11.76545, renormalised to   12.00000

     total cpu time spent up to now is      121.3 secs

     per-process dynamical memory:    69.6 Mb

     Self-consistent Calculation

     iteration #  1     ecut=    50.00 Ry     beta=0.60
     Davidson diagonalization with overlap
     ethr =  1.00E-06,  avg # of iterations =  4.0

     total cpu time spent up to now is      123.9 secs

     total energy              =    -116.59937970 Ry
     Harris-Foulkes estimate   =    -117.23505086 Ry
     estimated scf accuracy    <       0.04094246 Ry

     iteration #  2     ecut=    50.00 Ry     beta=0.60
     Davidson diagonalization with overlap
     ethr =  3.41E-04,  avg # of iterations =  3.0

     total cpu time spent up to now is      126.2 secs

     total energy              =    -116.64260112 Ry
     Harris-Foulkes estimate   =    -116.67436804 Ry
     estimated scf accuracy    <       0.08839208 Ry

     iteration #  3     ecut=    50.00 Ry     beta=0.60
     Davidson diagonalization with overlap
     ethr =  3.41E-04,  avg # of iterations =  2.7

     total cpu time spent up to now is      127.7 secs

     total energy              =    -116.64874580 Ry
     Harris-Foulkes estimate   =    -116.64916204 Ry
     estimated scf accuracy    <       0.01342449 Ry

     iteration #  4     ecut=    50.00 Ry     beta=0.60
     Davidson diagonalization with overlap
     ethr =  1.12E-04,  avg # of iterations =  1.1

     total cpu time spent up to now is      129.2 secs

     total energy              =    -116.64797125 Ry
     Harris-Foulkes estimate   =    -116.64894102 Ry
     estimated scf accuracy    <       0.01215434 Ry

     iteration #  5     ecut=    50.00 Ry     beta=0.60
     Davidson diagonalization with overlap
     ethr =  1.01E-04,  avg # of iterations =  1.0

     total cpu time spent up to now is      130.5 secs

     total energy              =    -116.64680398 Ry
     Harris-Foulkes estimate   =    -116.64805359 Ry
     estimated scf accuracy    <       0.00914360 Ry

     iteration #  6     ecut=    50.00 Ry     beta=0.60
     Davidson diagonalization with overlap
     ethr =  7.62E-05,  avg # of iterations =  1.0

     total cpu time spent up to now is      131.8 secs

     total energy              =    -116.64300010 Ry
     Harris-Foulkes estimate   =    -116.64692977 Ry
     estimated scf accuracy    <       0.00532880 Ry

     iteration #  7     ecut=    50.00 Ry     beta=0.60
     Davidson diagonalization with overlap
     ethr =  4.44E-05,  avg # of iterations =  2.9

     total cpu time spent up to now is      134.5 secs

     total energy              =    -116.64467872 Ry
     Harris-Foulkes estimate   =    -116.64618904 Ry
     estimated scf accuracy    <       0.00283031 Ry

     iteration #  8     ecut=    50.00 Ry     beta=0.60
     Davidson diagonalization with overlap
     ethr =  2.36E-05,  avg # of iterations =  2.7

     total cpu time spent up to now is      136.9 secs

     total energy              =    -116.64528435 Ry
     Harris-Foulkes estimate   =    -116.64528815 Ry
     estimated scf accuracy    <       0.00000455 Ry

     iteration #  9     ecut=    50.00 Ry     beta=0.60
     Davidson diagonalization with overlap
     ethr =  3.80E-08,  avg # of iterations =  3.2

     total cpu time spent up to now is      141.4 secs

     total energy              =    -116.64532648 Ry
     Harris-Foulkes estimate   =    -116.64530438 Ry
     estimated scf accuracy    <       0.00001270 Ry

     iteration # 10     ecut=    50.00 Ry     beta=0.60
     Davidson diagonalization with overlap
     ethr =  3.80E-08,  avg # of iterations =  3.0

     total cpu time spent up to now is      145.6 secs

     total energy              =    -116.64526981 Ry
     Harris-Foulkes estimate   =    -116.64533720 Ry
     estimated scf accuracy    <       0.00011757 Ry

     iteration # 11     ecut=    50.00 Ry     beta=0.60
     Davidson diagonalization with overlap
     ethr =  3.80E-08,  avg # of iterations =  3.2

     total cpu time spent up to now is      149.2 secs

     total energy              =    -116.64530197 Ry
     Harris-Foulkes estimate   =    -116.64530215 Ry
     estimated scf accuracy    <       0.00000474 Ry

     iteration # 12     ecut=    50.00 Ry     beta=0.60
     Davidson diagonalization with overlap
     ethr =  3.80E-08,  avg # of iterations =  1.0

     total cpu time spent up to now is      150.6 secs

     total energy              =    -116.64530215 Ry
     Harris-Foulkes estimate   =    -116.64530198 Ry
     estimated scf accuracy    <       0.00000424 Ry

     iteration # 13     ecut=    50.00 Ry     beta=0.60
     Davidson diagonalization with overlap
     ethr =  3.53E-08,  avg # of iterations =  1.0

     total cpu time spent up to now is      151.9 secs

     total energy              =    -116.64530235 Ry
     Harris-Foulkes estimate   =    -116.64530215 Ry
     estimated scf accuracy    <       0.00000468 Ry

     iteration # 14     ecut=    50.00 Ry     beta=0.60
     Davidson diagonalization with overlap
     ethr =  3.53E-08,  avg # of iterations =  1.0

     total cpu time spent up to now is      153.6 secs

     total energy              =    -116.64530161 Ry
     Harris-Foulkes estimate   =    -116.64530236 Ry
     estimated scf accuracy    <       0.00000533 Ry

     iteration # 15     ecut=    50.00 Ry     beta=0.60
     Davidson diagonalization with overlap
     ethr =  3.53E-08,  avg # of iterations =  1.0

     total cpu time spent up to now is      155.0 secs

     total energy              =    -116.64530196 Ry
     Harris-Foulkes estimate   =    -116.64530171 Ry
     estimated scf accuracy    <       0.00000300 Ry

     iteration # 16     ecut=    50.00 Ry     beta=0.60
     Davidson diagonalization with overlap
     ethr =  2.50E-08,  avg # of iterations =  1.0

     total cpu time spent up to now is      156.8 secs

     total energy              =    -116.64530213 Ry
     Harris-Foulkes estimate   =    -116.64530198 Ry
     estimated scf accuracy    <       0.00000371 Ry

     iteration # 17     ecut=    50.00 Ry     beta=0.60
     Davidson diagonalization with overlap
     ethr =  2.50E-08,  avg # of iterations =  1.0

     total cpu time spent up to now is      158.6 secs

     total energy              =    -116.64530218 Ry
     Harris-Foulkes estimate   =    -116.64530214 Ry
     estimated scf accuracy    <       0.00000308 Ry

     iteration # 18     ecut=    50.00 Ry     beta=0.60
     Davidson diagonalization with overlap
     ethr =  2.50E-08,  avg # of iterations =  1.0

     total cpu time spent up to now is      161.0 secs

     total energy              =    -116.64530338 Ry
     Harris-Foulkes estimate   =    -116.64530219 Ry
     estimated scf accuracy    <       0.00000265 Ry

     iteration # 19     ecut=    50.00 Ry     beta=0.60
     Davidson diagonalization with overlap
     ethr =  2.21E-08,  avg # of iterations =  1.0

     total cpu time spent up to now is      163.9 secs

     total energy              =    -116.64530204 Ry
     Harris-Foulkes estimate   =    -116.64530356 Ry
     estimated scf accuracy    <       0.00000625 Ry

     iteration # 20     ecut=    50.00 Ry     beta=0.60
     Davidson diagonalization with overlap
     ethr =  2.21E-08,  avg # of iterations =  1.0

     total cpu time spent up to now is      166.3 secs

     total energy              =    -116.64530179 Ry
     Harris-Foulkes estimate   =    -116.64530219 Ry
     estimated scf accuracy    <       0.00000276 Ry

     iteration # 21     ecut=    50.00 Ry     beta=0.60
     Davidson diagonalization with overlap
     ethr =  2.21E-08,  avg # of iterations =  1.0

     total cpu time spent up to now is      168.9 secs

     total energy              =    -116.64530184 Ry
     Harris-Foulkes estimate   =    -116.64530183 Ry
     estimated scf accuracy    <       0.00000153 Ry

     iteration # 22     ecut=    50.00 Ry     beta=0.60
     Davidson diagonalization with overlap
     ethr =  1.28E-08,  avg # of iterations =  1.0

     total cpu time spent up to now is      170.9 secs

     total energy              =    -116.64530118 Ry
     Harris-Foulkes estimate   =    -116.64530185 Ry
     estimated scf accuracy    <       0.00000159 Ry

     iteration # 23     ecut=    50.00 Ry     beta=0.60
     Davidson diagonalization with overlap
     ethr =  1.28E-08,  avg # of iterations =  2.7

     total cpu time spent up to now is      174.3 secs

     total energy              =    -116.64530137 Ry
     Harris-Foulkes estimate   =    -116.64530141 Ry
     estimated scf accuracy    <       0.00000006 Ry

     iteration # 24     ecut=    50.00 Ry     beta=0.60
     Davidson diagonalization with overlap
     ethr =  4.87E-10,  avg # of iterations =  2.9

     total cpu time spent up to now is      176.4 secs

     total energy              =    -116.64530140 Ry
     Harris-Foulkes estimate   =    -116.64530140 Ry
     estimated scf accuracy    <          3.1E-09 Ry

     iteration # 25     ecut=    50.00 Ry     beta=0.60
     Davidson diagonalization with overlap
     ethr =  2.57E-11,  avg # of iterations =  2.9

     total cpu time spent up to now is      178.3 secs

     total energy              =    -116.64530140 Ry
     Harris-Foulkes estimate   =    -116.64530140 Ry
     estimated scf accuracy    <          5.1E-10 Ry

     iteration # 26     ecut=    50.00 Ry     beta=0.60
     Davidson diagonalization with overlap
     ethr =  4.22E-12,  avg # of iterations =  2.6

     total cpu time spent up to now is      180.2 secs

     total energy              =    -116.64530140 Ry
     Harris-Foulkes estimate   =    -116.64530140 Ry
     estimated scf accuracy    <          2.0E-11 Ry

     iteration # 27     ecut=    50.00 Ry     beta=0.60
     Davidson diagonalization with overlap
     ethr =  1.69E-13,  avg # of iterations =  2.9

     total cpu time spent up to now is      183.7 secs

     End of self-consistent calculation

     Number of k-points >= 100: set verbosity='high' to print the bands.

     the Fermi energy is    13.3352 ev

!    total energy              =    -116.64530140 Ry
     Harris-Foulkes estimate   =    -116.64530140 Ry
     estimated scf accuracy    <          1.2E-13 Ry

     The total energy is the sum of the following terms:

     one-electron contribution =     -41.00260266 Ry
     hartree contribution      =      24.30500247 Ry
     xc contribution           =     -14.54164316 Ry
     ewald contribution        =     -85.40614745 Ry
     smearing contrib. (-TS)   =       0.00008939 Ry

     convergence has been achieved in  27 iterations

     Forces acting on atoms (Ry/au):

     atom    1 type  1   force =     0.00000000    0.00000000    0.00000000

     Total force =     0.000000     Total SCF correction =     0.000000


     entering subroutine stress ...

          total   stress  (Ry/bohr**3)                   (kbar)     P=    3.79
   0.00002577  -0.00000000   0.00000000          3.79     -0.00      0.00
  -0.00000000   0.00002577   0.00000000         -0.00      3.79      0.00
   0.00000000   0.00000000   0.00002577          0.00      0.00      3.79


     number of scf cycles    =   4
     number of bfgs steps    =   3

     enthalpy old            =    -116.6451801988 Ry
     enthalpy new            =    -116.6453013987 Ry

     CASE: enthalpy_new < enthalpy_old

     new trust radius        =       0.0026177539 bohr
     new conv_thr            =            1.0E-12 Ry

     new unit-cell volume =    115.93260 a.u.^3 (    17.17944 Ang^3 )

CELL_PARAMETERS (alat=  1.88972599)
   1.625485209  -1.625485209   1.625485209
   1.625485209   1.625485209  -1.625485209
  -1.625485209   1.625485209   1.625485209

ATOMIC_POSITIONS (angstrom)
Ti       1.625485209   1.625485209   1.625485209


     NEW-OLD atomic charge density approx. for the potential
     extrapolated charge   12.04009, renormalised to   12.00000

     total cpu time spent up to now is      185.3 secs

     per-process dynamical memory:    69.6 Mb

     Self-consistent Calculation

     iteration #  1     ecut=    50.00 Ry     beta=0.60
     Davidson diagonalization with overlap
     ethr =  1.00E-06,  avg # of iterations =  3.3

     total cpu time spent up to now is      188.0 secs

     total energy              =    -116.64406818 Ry
     Harris-Foulkes estimate   =    -116.54605357 Ry
     estimated scf accuracy    <       0.00108178 Ry

     iteration #  2     ecut=    50.00 Ry     beta=0.60
     Davidson diagonalization with overlap
     ethr =  9.01E-06,  avg # of iterations =  3.0

     total cpu time spent up to now is      190.8 secs

     total energy              =    -116.64521052 Ry
     Harris-Foulkes estimate   =    -116.64610738 Ry
     estimated scf accuracy    <       0.00253866 Ry

     iteration #  3     ecut=    50.00 Ry     beta=0.60
     Davidson diagonalization with overlap
     ethr =  9.01E-06,  avg # of iterations =  2.7

     total cpu time spent up to now is      192.8 secs

     total energy              =    -116.64536206 Ry
     Harris-Foulkes estimate   =    -116.64540827 Ry
     estimated scf accuracy    <       0.00035664 Ry

     iteration #  4     ecut=    50.00 Ry     beta=0.60
     Davidson diagonalization with overlap
     ethr =  2.97E-06,  avg # of iterations =  1.0

     total cpu time spent up to now is      194.6 secs

     total energy              =    -116.64531276 Ry
     Harris-Foulkes estimate   =    -116.64537058 Ry
     estimated scf accuracy    <       0.00022846 Ry

     iteration #  5     ecut=    50.00 Ry     beta=0.60
     Davidson diagonalization with overlap
     ethr =  1.90E-06,  avg # of iterations =  1.0

     total cpu time spent up to now is      196.4 secs

     total energy              =    -116.64529117 Ry
     Harris-Foulkes estimate   =    -116.64532257 Ry
     estimated scf accuracy    <       0.00007463 Ry

     iteration #  6     ecut=    50.00 Ry     beta=0.60
     Davidson diagonalization with overlap
     ethr =  6.22E-07,  avg # of iterations =  1.9

     total cpu time spent up to now is      198.3 secs

     total energy              =    -116.64530672 Ry
     Harris-Foulkes estimate   =    -116.64530658 Ry
     estimated scf accuracy    <       0.00000117 Ry

     iteration #  7     ecut=    50.00 Ry     beta=0.60
     Davidson diagonalization with overlap
     ethr =  9.72E-09,  avg # of iterations =  2.9

     total cpu time spent up to now is      200.7 secs

     total energy              =    -116.64530620 Ry
     Harris-Foulkes estimate   =    -116.64530716 Ry
     estimated scf accuracy    <       0.00000152 Ry

     iteration #  8     ecut=    50.00 Ry     beta=0.60
     Davidson diagonalization with overlap
     ethr =  9.72E-09,  avg # of iterations =  2.9

     total cpu time spent up to now is      203.3 secs

     total energy              =    -116.64530694 Ry
     Harris-Foulkes estimate   =    -116.64530684 Ry
     estimated scf accuracy    <       0.00000047 Ry

     iteration #  9     ecut=    50.00 Ry     beta=0.60
     Davidson diagonalization with overlap
     ethr =  3.89E-09,  avg # of iterations =  3.1

     total cpu time spent up to now is      205.4 secs

     total energy              =    -116.64530631 Ry
     Harris-Foulkes estimate   =    -116.64530904 Ry
     estimated scf accuracy    <       0.00000837 Ry

     iteration # 10     ecut=    50.00 Ry     beta=0.60
     Davidson diagonalization with overlap
     ethr =  3.89E-09,  avg # of iterations =  3.0

     total cpu time spent up to now is      207.7 secs

     total energy              =    -116.64530657 Ry
     Harris-Foulkes estimate   =    -116.64530697 Ry
     estimated scf accuracy    <       0.00000107 Ry

     iteration # 11     ecut=    50.00 Ry     beta=0.60
     Davidson diagonalization with overlap
     ethr =  3.89E-09,  avg # of iterations =  2.7

     total cpu time spent up to now is      210.5 secs

     total energy              =    -116.64530671 Ry
     Harris-Foulkes estimate   =    -116.64530671 Ry
     estimated scf accuracy    <          1.8E-09 Ry

     iteration # 12     ecut=    50.00 Ry     beta=0.60
     Davidson diagonalization with overlap
     ethr =  1.46E-11,  avg # of iterations =  3.8

     total cpu time spent up to now is      213.2 secs

     total energy              =    -116.64530671 Ry
     Harris-Foulkes estimate   =    -116.64530674 Ry
     estimated scf accuracy    <       0.00000014 Ry

     iteration # 13     ecut=    50.00 Ry     beta=0.60
     Davidson diagonalization with overlap
     ethr =  1.46E-11,  avg # of iterations =  3.2

     total cpu time spent up to now is      215.5 secs

     total energy              =    -116.64530670 Ry
     Harris-Foulkes estimate   =    -116.64530671 Ry
     estimated scf accuracy    <       0.00000003 Ry

     iteration # 14     ecut=    50.00 Ry     beta=0.60
     Davidson diagonalization with overlap
     ethr =  1.46E-11,  avg # of iterations =  3.6

     total cpu time spent up to now is      218.0 secs

     total energy              =    -116.64530671 Ry
     Harris-Foulkes estimate   =    -116.64530671 Ry
     estimated scf accuracy    <          6.7E-09 Ry

     iteration # 15     ecut=    50.00 Ry     beta=0.60
     Davidson diagonalization with overlap
     ethr =  1.46E-11,  avg # of iterations =  2.7

     total cpu time spent up to now is      219.9 secs

     total energy              =    -116.64530671 Ry
     Harris-Foulkes estimate   =    -116.64530671 Ry
     estimated scf accuracy    <          1.0E-09 Ry

     iteration # 16     ecut=    50.00 Ry     beta=0.60
     Davidson diagonalization with overlap
     ethr =  8.74E-12,  avg # of iterations =  1.9

     total cpu time spent up to now is      221.5 secs

     total energy              =    -116.64530671 Ry
     Harris-Foulkes estimate   =    -116.64530671 Ry
     estimated scf accuracy    <          1.9E-10 Ry

     iteration # 17     ecut=    50.00 Ry     beta=0.60
     Davidson diagonalization with overlap
     ethr =  1.60E-12,  avg # of iterations =  2.6

     total cpu time spent up to now is      223.3 secs

     total energy              =    -116.64530671 Ry
     Harris-Foulkes estimate   =    -116.64530671 Ry
     estimated scf accuracy    <          2.2E-10 Ry

     iteration # 18     ecut=    50.00 Ry     beta=0.60
     Davidson diagonalization with overlap
     ethr =  1.60E-12,  avg # of iterations =  1.0

     total cpu time spent up to now is      225.1 secs

     total energy              =    -116.64530671 Ry
     Harris-Foulkes estimate   =    -116.64530671 Ry
     estimated scf accuracy    <          1.4E-10 Ry

     iteration # 19     ecut=    50.00 Ry     beta=0.60
     Davidson diagonalization with overlap
     ethr =  1.13E-12,  avg # of iterations =  1.9

     total cpu time spent up to now is      226.9 secs

     total energy              =    -116.64530671 Ry
     Harris-Foulkes estimate   =    -116.64530671 Ry
     estimated scf accuracy    <          2.6E-12 Ry

     iteration # 20     ecut=    50.00 Ry     beta=0.60
     Davidson diagonalization with overlap
     ethr =  1.00E-13,  avg # of iterations =  1.5

     total cpu time spent up to now is      228.4 secs

     End of self-consistent calculation

     Number of k-points >= 100: set verbosity='high' to print the bands.

     the Fermi energy is    13.2779 ev

!    total energy              =    -116.64530671 Ry
     Harris-Foulkes estimate   =    -116.64530671 Ry
     estimated scf accuracy    <          1.1E-13 Ry

     The total energy is the sum of the following terms:

     one-electron contribution =     -41.15747991 Ry
     hartree contribution      =      24.35308239 Ry
     xc contribution           =     -14.53872940 Ry
     ewald contribution        =     -85.30226326 Ry
     smearing contrib. (-TS)   =       0.00008346 Ry

     convergence has been achieved in  20 iterations

     Forces acting on atoms (Ry/au):

     atom    1 type  1   force =     0.00000000    0.00000000    0.00000000

     Total force =     0.000000     Total SCF correction =     0.000000


     entering subroutine stress ...

          total   stress  (Ry/bohr**3)                   (kbar)     P=   -0.08
  -0.00000056  -0.00000000   0.00000000         -0.08     -0.00      0.00
  -0.00000000  -0.00000056  -0.00000000         -0.00     -0.08     -0.00
  -0.00000000  -0.00000000  -0.00000056         -0.00     -0.00     -0.08


     number of scf cycles    =   5
     number of bfgs steps    =   4

     enthalpy old            =    -116.6453013987 Ry
     enthalpy new            =    -116.6453067091 Ry

     CASE: enthalpy_new < enthalpy_old

     small trust_radius: resetting bfgs history

     new trust radius        =       0.0000300454 bohr
     new conv_thr            =            1.0E-12 Ry

     new unit-cell volume =    115.92774 a.u.^3 (    17.17872 Ang^3 )

CELL_PARAMETERS (alat=  1.88972599)
   1.625462530  -1.625462530   1.625462530
   1.625462530   1.625462530  -1.625462530
  -1.625462530   1.625462530   1.625462530

ATOMIC_POSITIONS (angstrom)
Ti       1.625462530   1.625462530   1.625462530


     NEW-OLD atomic charge density approx. for the potential
     extrapolated charge   11.99954, renormalised to   12.00000

     total cpu time spent up to now is      229.9 secs

     per-process dynamical memory:    69.6 Mb

     Self-consistent Calculation

     iteration #  1     ecut=    50.00 Ry     beta=0.60
     Davidson diagonalization with overlap
     ethr =  1.00E-06,  avg # of iterations =  2.0

     Threshold (ethr) on eigenvalues was too large:
     Diagonalizing with lowered threshold

     Davidson diagonalization with overlap
     ethr =  1.19E-09,  avg # of iterations =  1.0

     total cpu time spent up to now is      234.0 secs

     total energy              =    -116.64530655 Ry
     Harris-Foulkes estimate   =    -116.64644958 Ry
     estimated scf accuracy    <       0.00000014 Ry

     iteration #  2     ecut=    50.00 Ry     beta=0.60
     Davidson diagonalization with overlap
     ethr =  1.20E-09,  avg # of iterations =  3.0

     total cpu time spent up to now is      238.9 secs

     total energy              =    -116.64530670 Ry
     Harris-Foulkes estimate   =    -116.64530682 Ry
     estimated scf accuracy    <       0.00000033 Ry

     iteration #  3     ecut=    50.00 Ry     beta=0.60
     Davidson diagonalization with overlap
     ethr =  1.20E-09,  avg # of iterations =  2.7

     total cpu time spent up to now is      241.0 secs

     total energy              =    -116.64530673 Ry
     Harris-Foulkes estimate   =    -116.64530672 Ry
     estimated scf accuracy    <       0.00000005 Ry

     iteration #  4     ecut=    50.00 Ry     beta=0.60
     Davidson diagonalization with overlap
     ethr =  3.95E-10,  avg # of iterations =  1.0

     total cpu time spent up to now is      244.0 secs

     total energy              =    -116.64530674 Ry
     Harris-Foulkes estimate   =    -116.64530673 Ry
     estimated scf accuracy    <       0.00000005 Ry

     iteration #  5     ecut=    50.00 Ry     beta=0.60
     Davidson diagonalization with overlap
     ethr =  3.95E-10,  avg # of iterations =  1.0

     total cpu time spent up to now is      245.6 secs

     total energy              =    -116.64530668 Ry
     Harris-Foulkes estimate   =    -116.64530675 Ry
     estimated scf accuracy    <       0.00000010 Ry

     iteration #  6     ecut=    50.00 Ry     beta=0.60
     Davidson diagonalization with overlap
     ethr =  3.95E-10,  avg # of iterations =  2.9

     total cpu time spent up to now is      248.5 secs

     total energy              =    -116.64530671 Ry
     Harris-Foulkes estimate   =    -116.64530671 Ry
     estimated scf accuracy    <       0.00000001 Ry

     iteration #  7     ecut=    50.00 Ry     beta=0.60
     Davidson diagonalization with overlap
     ethr =  9.91E-11,  avg # of iterations =  1.0

     total cpu time spent up to now is      250.3 secs

     total energy              =    -116.64530671 Ry
     Harris-Foulkes estimate   =    -116.64530671 Ry
     estimated scf accuracy    <          2.9E-09 Ry

     iteration #  8     ecut=    50.00 Ry     beta=0.60
     Davidson diagonalization with overlap
     ethr =  2.45E-11,  avg # of iterations =  2.4

     total cpu time spent up to now is      252.4 secs

     total energy              =    -116.64530671 Ry
     Harris-Foulkes estimate   =    -116.64530671 Ry
     estimated scf accuracy    <          1.9E-09 Ry

     iteration #  9     ecut=    50.00 Ry     beta=0.60
     Davidson diagonalization with overlap
     ethr =  1.61E-11,  avg # of iterations =  1.0

     total cpu time spent up to now is      254.1 secs

     total energy              =    -116.64530671 Ry
     Harris-Foulkes estimate   =    -116.64530671 Ry
     estimated scf accuracy    <          2.1E-09 Ry

     iteration # 10     ecut=    50.00 Ry     beta=0.60
     Davidson diagonalization with overlap
     ethr =  1.61E-11,  avg # of iterations =  1.0

     total cpu time spent up to now is      255.5 secs

     total energy              =    -116.64530671 Ry
     Harris-Foulkes estimate   =    -116.64530671 Ry
     estimated scf accuracy    <          2.0E-09 Ry

     iteration # 11     ecut=    50.00 Ry     beta=0.60
     Davidson diagonalization with overlap
     ethr =  1.61E-11,  avg # of iterations =  2.7

     total cpu time spent up to now is      257.2 secs

     total energy              =    -116.64530671 Ry
     Harris-Foulkes estimate   =    -116.64530671 Ry
     estimated scf accuracy    <          4.5E-11 Ry

     iteration # 12     ecut=    50.00 Ry     beta=0.60
     Davidson diagonalization with overlap
     ethr =  3.75E-13,  avg # of iterations =  2.8

     total cpu time spent up to now is      260.0 secs

     total energy              =    -116.64530671 Ry
     Harris-Foulkes estimate   =    -116.64530671 Ry
     estimated scf accuracy    <          1.0E-10 Ry

     iteration # 13     ecut=    50.00 Ry     beta=0.60
     Davidson diagonalization with overlap
     ethr =  3.75E-13,  avg # of iterations =  1.8

     total cpu time spent up to now is      262.4 secs

     total energy              =    -116.64530671 Ry
     Harris-Foulkes estimate   =    -116.64530671 Ry
     estimated scf accuracy    <          1.6E-10 Ry

     iteration # 14     ecut=    50.00 Ry     beta=0.60
     Davidson diagonalization with overlap
     ethr =  3.75E-13,  avg # of iterations =  2.7

     total cpu time spent up to now is      266.8 secs

     total energy              =    -116.64530671 Ry
     Harris-Foulkes estimate   =    -116.64530671 Ry
     estimated scf accuracy    <          1.8E-11 Ry

     iteration # 15     ecut=    50.00 Ry     beta=0.60
     Davidson diagonalization with overlap
     ethr =  1.49E-13,  avg # of iterations =  1.0

     total cpu time spent up to now is      268.4 secs

     total energy              =    -116.64530671 Ry
     Harris-Foulkes estimate   =    -116.64530671 Ry
     estimated scf accuracy    <          1.5E-11 Ry

     iteration # 16     ecut=    50.00 Ry     beta=0.60
     Davidson diagonalization with overlap
     ethr =  1.21E-13,  avg # of iterations =  1.0

     total cpu time spent up to now is      269.8 secs

     total energy              =    -116.64530671 Ry
     Harris-Foulkes estimate   =    -116.64530671 Ry
     estimated scf accuracy    <          1.6E-11 Ry

     iteration # 17     ecut=    50.00 Ry     beta=0.60
     Davidson diagonalization with overlap
     ethr =  1.21E-13,  avg # of iterations =  2.9

     total cpu time spent up to now is      272.3 secs

     total energy              =    -116.64530671 Ry
     Harris-Foulkes estimate   =    -116.64530671 Ry
     estimated scf accuracy    <          2.0E-11 Ry

     iteration # 18     ecut=    50.00 Ry     beta=0.60
     Davidson diagonalization with overlap
     ethr =  1.21E-13,  avg # of iterations =  1.0

     total cpu time spent up to now is      274.0 secs

     total energy              =    -116.64530671 Ry
     Harris-Foulkes estimate   =    -116.64530671 Ry
     estimated scf accuracy    <          1.5E-11 Ry

     iteration # 19     ecut=    50.00 Ry     beta=0.60
     Davidson diagonalization with overlap
     ethr =  1.21E-13,  avg # of iterations =  2.7

     total cpu time spent up to now is      275.8 secs

     total energy              =    -116.64530671 Ry
     Harris-Foulkes estimate   =    -116.64530671 Ry
     estimated scf accuracy    <          1.8E-12 Ry

     iteration # 20     ecut=    50.00 Ry     beta=0.60
     Davidson diagonalization with overlap
     ethr =  1.00E-13,  avg # of iterations =  1.0

     total cpu time spent up to now is      278.1 secs

     End of self-consistent calculation

     Number of k-points >= 100: set verbosity='high' to print the bands.

     the Fermi energy is    13.2786 ev

!    total energy              =    -116.64530671 Ry
     Harris-Foulkes estimate   =    -116.64530671 Ry
     estimated scf accuracy    <          9.3E-13 Ry

     The total energy is the sum of the following terms:

     one-electron contribution =     -41.15570493 Ry
     hartree contribution      =      24.35253087 Ry
     xc contribution           =     -14.53876275 Ry
     ewald contribution        =     -85.30345344 Ry
     smearing contrib. (-TS)   =       0.00008353 Ry

     convergence has been achieved in  20 iterations

     Forces acting on atoms (Ry/au):

     atom    1 type  1   force =     0.00000000    0.00000000    0.00000000

     Total force =     0.000000     Total SCF correction =     0.000000


     entering subroutine stress ...

          total   stress  (Ry/bohr**3)                   (kbar)     P=   -0.04
  -0.00000025  -0.00000000  -0.00000000         -0.04     -0.00     -0.00
  -0.00000000  -0.00000025  -0.00000000         -0.00     -0.04     -0.00
  -0.00000000  -0.00000000  -0.00000025         -0.00     -0.00     -0.04


     number of scf cycles    =   6
     number of bfgs steps    =   5

     enthalpy old            =    -116.6453067091 Ry
     enthalpy new            =    -116.6453067110 Ry

     CASE: enthalpy_new < enthalpy_old

     Message from routine bfgs:
     history already reset at previous step: stopping
     small trust_radius: resetting bfgs history

     new trust radius        =       0.0000132831 bohr
     new conv_thr            =            1.0E-12 Ry

     new unit-cell volume =    115.92560 a.u.^3 (    17.17840 Ang^3 )

CELL_PARAMETERS (alat=  1.88972599)
   1.625452503  -1.625452503   1.625452503
   1.625452503   1.625452503  -1.625452503
  -1.625452503   1.625452503   1.625452503

ATOMIC_POSITIONS (angstrom)
Ti       1.625452503   1.625452503   1.625452503


     NEW-OLD atomic charge density approx. for the potential
     extrapolated charge   11.99980, renormalised to   12.00000

     total cpu time spent up to now is      279.6 secs

     per-process dynamical memory:    69.6 Mb

     Self-consistent Calculation

     iteration #  1     ecut=    50.00 Ry     beta=0.60
     Davidson diagonalization with overlap
     ethr =  1.00E-06,  avg # of iterations =  2.0

     Threshold (ethr) on eigenvalues was too large:
     Diagonalizing with lowered threshold

     Davidson diagonalization with overlap
     ethr =  2.34E-10,  avg # of iterations =  1.0

     total cpu time spent up to now is      282.9 secs

     total energy              =    -116.64530668 Ry
     Harris-Foulkes estimate   =    -116.64581196 Ry
     estimated scf accuracy    <       0.00000003 Ry

     iteration #  2     ecut=    50.00 Ry     beta=0.60
     Davidson diagonalization with overlap
     ethr =  2.35E-10,  avg # of iterations =  3.0

     total cpu time spent up to now is      285.3 secs

     total energy              =    -116.64530671 Ry
     Harris-Foulkes estimate   =    -116.64530673 Ry
     estimated scf accuracy    <       0.00000007 Ry

     iteration #  3     ecut=    50.00 Ry     beta=0.60
     Davidson diagonalization with overlap
     ethr =  2.35E-10,  avg # of iterations =  2.7

     total cpu time spent up to now is      287.3 secs

     total energy              =    -116.64530671 Ry
     Harris-Foulkes estimate   =    -116.64530671 Ry
     estimated scf accuracy    <          9.3E-09 Ry

     iteration #  4     ecut=    50.00 Ry     beta=0.60
     Davidson diagonalization with overlap
     ethr =  7.71E-11,  avg # of iterations =  1.0

     total cpu time spent up to now is      288.8 secs

     total energy              =    -116.64530671 Ry
     Harris-Foulkes estimate   =    -116.64530671 Ry
     estimated scf accuracy    <          9.0E-09 Ry

     iteration #  5     ecut=    50.00 Ry     beta=0.60
     Davidson diagonalization with overlap
     ethr =  7.47E-11,  avg # of iterations =  2.9

     total cpu time spent up to now is      290.9 secs

     total energy              =    -116.64530671 Ry
     Harris-Foulkes estimate   =    -116.64530671 Ry
     estimated scf accuracy    <          1.1E-09 Ry

     iteration #  6     ecut=    50.00 Ry     beta=0.60
     Davidson diagonalization with overlap
     ethr =  9.32E-12,  avg # of iterations =  2.0

     total cpu time spent up to now is      292.6 secs

     total energy              =    -116.64530671 Ry
     Harris-Foulkes estimate   =    -116.64530671 Ry
     estimated scf accuracy    <          1.2E-10 Ry

     iteration #  7     ecut=    50.00 Ry     beta=0.60
     Davidson diagonalization with overlap
     ethr =  1.01E-12,  avg # of iterations =  1.8

     total cpu time spent up to now is      294.4 secs

     total energy              =    -116.64530671 Ry
     Harris-Foulkes estimate   =    -116.64530671 Ry
     estimated scf accuracy    <          1.3E-10 Ry

     iteration #  8     ecut=    50.00 Ry     beta=0.60
     Davidson diagonalization with overlap
     ethr =  1.01E-12,  avg # of iterations =  1.0

     total cpu time spent up to now is      295.8 secs

     total energy              =    -116.64530671 Ry
     Harris-Foulkes estimate   =    -116.64530671 Ry
     estimated scf accuracy    <          1.7E-10 Ry

     iteration #  9     ecut=    50.00 Ry     beta=0.60
     Davidson diagonalization with overlap
     ethr =  1.01E-12,  avg # of iterations =  1.0

     total cpu time spent up to now is      297.3 secs

     total energy              =    -116.64530671 Ry
     Harris-Foulkes estimate   =    -116.64530671 Ry
     estimated scf accuracy    <          9.2E-11 Ry

     iteration # 10     ecut=    50.00 Ry     beta=0.60
     Davidson diagonalization with overlap
     ethr =  7.67E-13,  avg # of iterations =  2.5

     total cpu time spent up to now is      299.1 secs

     total energy              =    -116.64530671 Ry
     Harris-Foulkes estimate   =    -116.64530671 Ry
     estimated scf accuracy    <          1.1E-11 Ry

     iteration # 11     ecut=    50.00 Ry     beta=0.60
     Davidson diagonalization with overlap
     ethr =  1.00E-13,  avg # of iterations =  2.9

     total cpu time spent up to now is      301.2 secs

     End of self-consistent calculation

     Number of k-points >= 100: set verbosity='high' to print the bands.

     the Fermi energy is    13.2789 ev

!    total energy              =    -116.64530671 Ry
     Harris-Foulkes estimate   =    -116.64530671 Ry
     estimated scf accuracy    <          4.7E-13 Ry

     The total energy is the sum of the following terms:

     one-electron contribution =     -41.15491890 Ry
     hartree contribution      =      24.35228542 Ry
     xc contribution           =     -14.53877717 Ry
     ewald contribution        =     -85.30397963 Ry
     smearing contrib. (-TS)   =       0.00008356 Ry

     convergence has been achieved in  11 iterations

     Forces acting on atoms (Ry/au):

     atom    1 type  1   force =     0.00000000    0.00000000    0.00000000

     Total force =     0.000000     Total SCF correction =     0.000000


     entering subroutine stress ...

          total   stress  (Ry/bohr**3)                   (kbar)     P=   -0.02
  -0.00000015  -0.00000000  -0.00000000         -0.02     -0.00     -0.00
  -0.00000000  -0.00000015  -0.00000000         -0.00     -0.02     -0.00
  -0.00000000  -0.00000000  -0.00000015         -0.00     -0.00     -0.02


     bfgs converged in   7 scf cycles and   6 bfgs steps
     (criteria: energy <  1.0E-10, force <  1.0E-05, cell <  1.0E-03)

     End of BFGS Geometry Optimization

     Final enthalpy =    -116.6453067114 Ry
Begin final coordinates
     new unit-cell volume =    115.92560 a.u.^3 (    17.17840 Ang^3 )

CELL_PARAMETERS (alat=  1.88972599)
   1.625452503  -1.625452503   1.625452503
   1.625452503   1.625452503  -1.625452503
  -1.625452503   1.625452503   1.625452503

ATOMIC_POSITIONS (angstrom)
Ti       1.625452503   1.625452503   1.625452503
End final coordinates



     A final scf calculation at the relaxed structure.
     The G-vectors are recalculated for the final unit cell
     Results may differ from those at the preceding step.

   Info: using nr1, nr2, nr3 values from input

   Info: using nr1, nr2, nr3 values from input

     Parallelization info
     --------------------
     sticks:   dense  smooth     PW     G-vecs:    dense   smooth      PW
     Min         262     103     42                 5442     1367     352
     Max         263     104     43                 5443     1369     353
     Sum        1051     415    169                21769     5473    1409



     bravais-lattice index     =            0
     lattice parameter (alat)  =       1.8897  a.u.
     unit-cell volume          =     115.9256 (a.u.)^3
     number of atoms/cell      =            1
     number of atomic types    =            1
     number of electrons       =        12.00
     number of Kohn-Sham states=           10
     kinetic-energy cutoff     =      50.0000  Ry
     charge density cutoff     =     500.0000  Ry
     convergence threshold     =      1.0E-12
     mixing beta               =       0.6000
     number of iterations used =            8  plain     mixing
     Exchange-correlation      = SLA  PW   PBE  PBE ( 1  4  3  4 0 0)

     celldm(1)=   1.889726  celldm(2)=   0.000000  celldm(3)=   0.000000
     celldm(4)=   0.000000  celldm(5)=   0.000000  celldm(6)=   0.000000

     crystal axes: (cart. coord. in units of alat)
               a(1) = (   1.625453  -1.625453   1.625453 )  
               a(2) = (   1.625453   1.625453  -1.625453 )  
               a(3) = (  -1.625453   1.625453   1.625453 )  

     reciprocal axes: (cart. coord. in units 2 pi/alat)
               b(1) = (  0.307607 -0.000000  0.307607 )  
               b(2) = (  0.307607  0.307607  0.000000 )  
               b(3) = (  0.000000  0.307607  0.307607 )  


     PseudoPot. # 1 for Ti read from file:
     ./Ti.pbe-sp-van_ak.UPF
     MD5 check sum: f98fea3e8887528921fefa5636a534ca
     Pseudo is Ultrasoft, Zval = 12.0
     Generated by new atomic code, or converted to UPF format
     Using radial grid of  851 points,  6 beta functions with: 
                l(1) =   0
                l(2) =   0
                l(3) =   1
                l(4) =   1
                l(5) =   2
                l(6) =   2
     Q(r) pseudized with  8 coefficients,  rinner =    1.000   1.000   1.000
                                                       1.000   1.000

     atomic species   valence    mass     pseudopotential
        Ti            12.00    47.86700     Ti( 1.00)

     48 Sym. Ops., with inversion, found



   Cartesian axes

     site n.     atom                  positions (alat units)
         1           Ti  tau(   1) = (   1.6254526   1.6254526   1.6254526  )

     number of k points=   256  Marzari-Vanderbilt smearing, width (Ry)=  0.0200

     Number of k-points >= 100: set verbosity='high' to print them.

     Dense  grid:    21769 G-vectors     FFT dimensions: (  45,  45,  45)

     Smooth grid:     5473 G-vectors     FFT dimensions: (  25,  25,  25)

     Estimated max dynamical RAM per process >      10.91Mb

     Estimated total allocated dynamical RAM >      43.65Mb

     Initial potential from superposition of free atoms

     starting charge   10.99996, renormalised to   12.00000
     Starting wfc are   10 randomized atomic wfcs

     total cpu time spent up to now is      303.2 secs

     per-process dynamical memory:    68.5 Mb

     Self-consistent Calculation

     iteration #  1     ecut=    50.00 Ry     beta=0.60
     Davidson diagonalization with overlap
     ethr =  1.00E-06,  avg # of iterations =  5.8

     total cpu time spent up to now is      307.6 secs

     total energy              =    -116.40388107 Ry
     Harris-Foulkes estimate   =    -116.90320128 Ry
     estimated scf accuracy    <       0.69864073 Ry

     iteration #  2     ecut=    50.00 Ry     beta=0.60
     Davidson diagonalization with overlap
     ethr =  5.82E-03,  avg # of iterations =  2.8

     total cpu time spent up to now is      309.6 secs

     total energy              =    -116.60308839 Ry
     Harris-Foulkes estimate   =    -116.69932972 Ry
     estimated scf accuracy    <       0.17972567 Ry

     iteration #  3     ecut=    50.00 Ry     beta=0.60
     Davidson diagonalization with overlap
     ethr =  1.50E-03,  avg # of iterations =  2.8

     total cpu time spent up to now is      311.6 secs

     total energy              =    -116.64395012 Ry
     Harris-Foulkes estimate   =    -116.64472510 Ry
     estimated scf accuracy    <       0.00110470 Ry

     iteration #  4     ecut=    50.00 Ry     beta=0.60
     Davidson diagonalization with overlap
     ethr =  9.21E-06,  avg # of iterations =  3.1

     total cpu time spent up to now is      314.2 secs

     total energy              =    -116.64519142 Ry
     Harris-Foulkes estimate   =    -116.64524692 Ry
     estimated scf accuracy    <       0.00018215 Ry

     iteration #  5     ecut=    50.00 Ry     beta=0.60
     Davidson diagonalization with overlap
     ethr =  1.52E-06,  avg # of iterations =  1.2

     total cpu time spent up to now is      315.7 secs

     total energy              =    -116.64518764 Ry
     Harris-Foulkes estimate   =    -116.64520272 Ry
     estimated scf accuracy    <       0.00003451 Ry

     iteration #  6     ecut=    50.00 Ry     beta=0.60
     Davidson diagonalization with overlap
     ethr =  2.88E-07,  avg # of iterations =  2.9

     total cpu time spent up to now is      317.4 secs

     total energy              =    -116.64520171 Ry
     Harris-Foulkes estimate   =    -116.64520315 Ry
     estimated scf accuracy    <       0.00000408 Ry

     iteration #  7     ecut=    50.00 Ry     beta=0.60
     Davidson diagonalization with overlap
     ethr =  3.40E-08,  avg # of iterations =  1.4

     total cpu time spent up to now is      319.0 secs

     total energy              =    -116.64520182 Ry
     Harris-Foulkes estimate   =    -116.64520201 Ry
     estimated scf accuracy    <       0.00000063 Ry

     iteration #  8     ecut=    50.00 Ry     beta=0.60
     Davidson diagonalization with overlap
     ethr =  5.22E-09,  avg # of iterations =  2.5

     total cpu time spent up to now is      320.8 secs

     total energy              =    -116.64520193 Ry
     Harris-Foulkes estimate   =    -116.64520196 Ry
     estimated scf accuracy    <       0.00000004 Ry

     iteration #  9     ecut=    50.00 Ry     beta=0.60
     Davidson diagonalization with overlap
     ethr =  3.55E-10,  avg # of iterations =  2.9

     total cpu time spent up to now is      322.6 secs

     total energy              =    -116.64520195 Ry
     Harris-Foulkes estimate   =    -116.64520196 Ry
     estimated scf accuracy    <       0.00000002 Ry

     iteration # 10     ecut=    50.00 Ry     beta=0.60
     Davidson diagonalization with overlap
     ethr =  1.71E-10,  avg # of iterations =  2.7

     total cpu time spent up to now is      324.1 secs

     total energy              =    -116.64520195 Ry
     Harris-Foulkes estimate   =    -116.64520195 Ry
     estimated scf accuracy    <          1.7E-11 Ry

     iteration # 11     ecut=    50.00 Ry     beta=0.60
     Davidson diagonalization with overlap
     ethr =  1.40E-13,  avg # of iterations =  3.8

     total cpu time spent up to now is      326.3 secs

     total energy              =    -116.64520195 Ry
     Harris-Foulkes estimate   =    -116.64520195 Ry
     estimated scf accuracy    <          3.9E-10 Ry

     iteration # 12     ecut=    50.00 Ry     beta=0.60
     Davidson diagonalization with overlap
     ethr =  1.40E-13,  avg # of iterations =  3.4

     total cpu time spent up to now is      328.5 secs

     total energy              =    -116.64520195 Ry
     Harris-Foulkes estimate   =    -116.64520195 Ry
     estimated scf accuracy    <          2.5E-12 Ry

     iteration # 13     ecut=    50.00 Ry     beta=0.60
     Davidson diagonalization with overlap
     ethr =  1.00E-13,  avg # of iterations =  1.0

     total cpu time spent up to now is      329.7 secs

     total energy              =    -116.64520195 Ry
     Harris-Foulkes estimate   =    -116.64520195 Ry
     estimated scf accuracy    <          2.6E-12 Ry

     iteration # 14     ecut=    50.00 Ry     beta=0.60
     Davidson diagonalization with overlap
     ethr =  1.00E-13,  avg # of iterations =  1.0

     total cpu time spent up to now is      331.0 secs

     End of self-consistent calculation

     Number of k-points >= 100: set verbosity='high' to print the bands.

     the Fermi energy is    13.2792 ev

!    total energy              =    -116.64520195 Ry
     Harris-Foulkes estimate   =    -116.64520195 Ry
     estimated scf accuracy    <          8.0E-14 Ry

     The total energy is the sum of the following terms:

     one-electron contribution =     -41.15471810 Ry
     hartree contribution      =      24.35249314 Ry
     xc contribution           =     -14.53908107 Ry
     ewald contribution        =     -85.30397963 Ry
     smearing contrib. (-TS)   =       0.00008371 Ry

     convergence has been achieved in  14 iterations

     Forces acting on atoms (Ry/au):

     atom    1 type  1   force =     0.00000000    0.00000000    0.00000000

     Total force =     0.000000     Total SCF correction =     0.000000


     entering subroutine stress ...

          total   stress  (Ry/bohr**3)                   (kbar)     P=    0.41
   0.00000282  -0.00000000  -0.00000000          0.41     -0.00     -0.00
  -0.00000000   0.00000282  -0.00000000         -0.00      0.41     -0.00
  -0.00000000  -0.00000000   0.00000282         -0.00     -0.00      0.41


     init_run     :      1.66s CPU      1.77s WALL (       2 calls)
     electrons    :    284.88s CPU    319.38s WALL (       8 calls)
     update_pot   :      1.84s CPU      1.90s WALL (       6 calls)
     forces       :      2.02s CPU      2.04s WALL (       8 calls)
     stress       :      6.03s CPU      6.08s WALL (       8 calls)

     Called by init_run:
     wfcinit      :      1.10s CPU      1.19s WALL (       2 calls)
     potinit      :      0.14s CPU      0.14s WALL (       2 calls)

     Called by electrons:
     c_bands      :    230.58s CPU    259.45s WALL (     168 calls)
     sum_band     :     43.83s CPU     48.67s WALL (     168 calls)
     v_of_rho     :      3.75s CPU      4.01s WALL (     174 calls)
     newd         :      6.31s CPU      6.70s WALL (     174 calls)
     mix_rho      :      0.40s CPU      0.44s WALL (     168 calls)

     Called by c_bands:
     init_us_2    :      7.52s CPU      8.33s WALL (   90624 calls)
     cegterg      :    216.79s CPU    243.96s WALL (   43008 calls)

     Called by sum_band:
     sum_band:bec :      0.29s CPU      0.33s WALL (   43008 calls)
     addusdens    :      6.27s CPU      6.73s WALL (     168 calls)

     Called by *egterg:
     h_psi        :    150.45s CPU    169.56s WALL (  136656 calls)
     s_psi        :      6.55s CPU      7.36s WALL (  136656 calls)
     g_psi        :      0.98s CPU      1.10s WALL (   93136 calls)
     cdiaghg      :     23.29s CPU     26.03s WALL (  134096 calls)

     Called by h_psi:
     h_psi:pot    :    149.75s CPU    168.78s WALL (  136656 calls)
     h_psi:calbec :      9.11s CPU     10.28s WALL (  136656 calls)
     vloc_psi     :    133.73s CPU    150.73s WALL (  136656 calls)
     add_vuspsi   :      6.57s CPU      7.41s WALL (  136656 calls)

     General routines
     calbec       :     13.16s CPU     14.71s WALL (  189904 calls)
     fft          :      2.52s CPU      2.67s WALL (    2830 calls)
     ffts         :      0.04s CPU      0.06s WALL (     342 calls)
     fftw         :    136.45s CPU    153.82s WALL ( 2556538 calls)
     interpolate  :      0.34s CPU      0.40s WALL (     342 calls)

     Parallel routines
     fft_scatter  :     67.07s CPU     76.45s WALL ( 2559710 calls)

     PWSCF        :  4m56.84s CPU     5m31.60s WALL


   This run was terminated on:  11: 5:50  26Apr2018            

=------------------------------------------------------------------------------=
   JOB DONE.
=------------------------------------------------------------------------------=
