
     Program PWSCF v.6.0 (svn rev. 13079) starts on 27Apr2018 at 10:45:34 

     This program is part of the open-source Quantum ESPRESSO suite
     for quantum simulation of materials; please cite
         "P. Giannozzi et al., J. Phys.:Condens. Matter 21 395502 (2009);
          URL http://www.quantum-espresso.org", 
     in publications or presentations arising from this work. More details at
     http://www.quantum-espresso.org/quote

     Parallel version (MPI), running on     4 processors
     R & G space division:  proc/nbgrp/npool/nimage =       4
     Waiting for input...
     Reading input from standard input

     Current dimensions of program PWSCF are:
     Max number of different atomic species (ntypx) = 10
     Max number of k-points (npk) =  40000
     Max angular momentum in pseudopotentials (lmaxx) =  3

     Subspace diagonalization in iterative solution of the eigenvalue problem:
     a serial algorithm will be used


     Parallelization info
     --------------------
     sticks:   dense  smooth     PW     G-vecs:    dense   smooth      PW
     Min         933     371    131                20808     5230    1110
     Max         934     372    132                20809     5231    1111
     Sum        3735    1485    527                83235    20921    4443



     bravais-lattice index     =            0
     lattice parameter (alat)  =       1.8897  a.u.
     unit-cell volume          =     440.0051 (a.u.)^3
     number of atoms/cell      =            3
     number of atomic types    =            2
     number of electrons       =        37.00
     number of Kohn-Sham states=           23
     kinetic-energy cutoff     =      50.0000  Ry
     charge density cutoff     =     500.0000  Ry
     convergence threshold     =      1.0E-10
     mixing beta               =       0.6000
     number of iterations used =            8  plain     mixing
     Exchange-correlation      = SLA  PW   PBE  PBE ( 1  4  3  4 0 0)
     nstep                     =           50


     celldm(1)=   1.889726  celldm(2)=   0.000000  celldm(3)=   0.000000
     celldm(4)=   0.000000  celldm(5)=   0.000000  celldm(6)=   0.000000

     crystal axes: (cart. coord. in units of alat)
               a(1) = (  -1.758031   5.274095  -1.758031 )  
               a(2) = (   1.758031   5.274095   1.758031 )  
               a(3) = (   1.758031  -5.274095  -1.758031 )  

     reciprocal axes: (cart. coord. in units 2 pi/alat)
               b(1) = (  0.000000  0.094803 -0.284409 )  
               b(2) = (  0.284409  0.094803  0.000000 )  
               b(3) = (  0.284409  0.000000 -0.284409 )  


     PseudoPot. # 1 for Nb read from file:
     ./Nb.pbe-nsp-van.UPF
     MD5 check sum: 0a22fc7fb0ba19a08ca5db297a5d2854
     Pseudo is Ultrasoft + core correction, Zval = 13.0
     Generated by new atomic code, or converted to UPF format
     Using radial grid of  887 points,  6 beta functions with: 
                l(1) =   0
                l(2) =   0
                l(3) =   1
                l(4) =   1
                l(5) =   2
                l(6) =   2
     Q(r) pseudized with  6 coefficients,  rinner =    1.000   1.000   1.000
                                                       1.000   1.000

     PseudoPot. # 2 for Ti read from file:
     ./Ti.pbe-sp-van_ak.UPF
     MD5 check sum: f98fea3e8887528921fefa5636a534ca
     Pseudo is Ultrasoft, Zval = 12.0
     Generated by new atomic code, or converted to UPF format
     Using radial grid of  851 points,  6 beta functions with: 
                l(1) =   0
                l(2) =   0
                l(3) =   1
                l(4) =   1
                l(5) =   2
                l(6) =   2
     Q(r) pseudized with  8 coefficients,  rinner =    1.000   1.000   1.000
                                                       1.000   1.000

     atomic species   valence    mass     pseudopotential
        Nb            13.00    92.90638     Nb( 1.00)
        Ti            12.00    47.86700     Ti( 1.00)

      8 Sym. Ops. (no inversion) found
          (note:  8 additional sym.ops. were found but ignored
           their fractional translations are incommensurate with FFT grid)


   Cartesian axes

     site n.     atom                  positions (alat units)
         1           Ti  tau(   1) = (   1.7580316   1.7580316  -1.7580316  )
         2           Ti  tau(   2) = (   1.7580316   5.2740949  -1.7580316  )
         3           Nb  tau(   3) = (   1.7580316  -1.7580316  -1.7580316  )

     number of k points=   244  Marzari-Vanderbilt smearing, width (Ry)=  0.0200

     Number of k-points >= 100: set verbosity='high' to print them.

     Dense  grid:    83235 G-vectors     FFT dimensions: (  80,  80,  80)

     Smooth grid:    20921 G-vectors     FFT dimensions: (  50,  50,  50)

     Estimated max dynamical RAM per process >      76.39Mb

     Estimated total allocated dynamical RAM >     305.55Mb

     Initial potential from superposition of free atoms

     starting charge   34.99718, renormalised to   37.00000
     Starting wfc are   33 randomized atomic wfcs

     total cpu time spent up to now is       18.2 secs

     per-process dynamical memory:   143.3 Mb

     Self-consistent Calculation

     iteration #  1     ecut=    50.00 Ry     beta=0.60
     Davidson diagonalization with overlap
     ethr =  1.00E-02,  avg # of iterations =  3.5

     total cpu time spent up to now is       60.8 secs

     total energy              =    -348.04687306 Ry
     Harris-Foulkes estimate   =    -352.24382318 Ry
     estimated scf accuracy    <       5.38929068 Ry

     iteration #  2     ecut=    50.00 Ry     beta=0.60
     Davidson diagonalization with overlap
     ethr =  1.00E-02,  avg # of iterations =  5.1

     total cpu time spent up to now is      116.4 secs

     total energy              =    -348.64624636 Ry
     Harris-Foulkes estimate   =    -358.32114802 Ry
     estimated scf accuracy    <      32.59457379 Ry

     iteration #  3     ecut=    50.00 Ry     beta=0.60
     Davidson diagonalization with overlap
     ethr =  1.00E-02,  avg # of iterations =  4.5

     total cpu time spent up to now is      165.8 secs

     total energy              =    -351.14632060 Ry
     Harris-Foulkes estimate   =    -351.21636138 Ry
     estimated scf accuracy    <       0.56625074 Ry

     iteration #  4     ecut=    50.00 Ry     beta=0.60
     Davidson diagonalization with overlap
     ethr =  1.53E-03,  avg # of iterations =  5.1

     total cpu time spent up to now is      204.1 secs

     total energy              =    -351.15908589 Ry
     Harris-Foulkes estimate   =    -351.19838918 Ry
     estimated scf accuracy    <       0.22834702 Ry

     iteration #  5     ecut=    50.00 Ry     beta=0.60
     Davidson diagonalization with overlap
     ethr =  6.17E-04,  avg # of iterations =  3.3

     total cpu time spent up to now is      240.4 secs

     total energy              =    -351.16001120 Ry
     Harris-Foulkes estimate   =    -351.18524857 Ry
     estimated scf accuracy    <       0.30745488 Ry

     iteration #  6     ecut=    50.00 Ry     beta=0.60
     Davidson diagonalization with overlap
     ethr =  6.17E-04,  avg # of iterations =  1.1

     total cpu time spent up to now is      275.4 secs

     total energy              =    -351.14539998 Ry
     Harris-Foulkes estimate   =    -351.16480797 Ry
     estimated scf accuracy    <       0.14181221 Ry

     iteration #  7     ecut=    50.00 Ry     beta=0.60
     Davidson diagonalization with overlap
     ethr =  3.83E-04,  avg # of iterations =  2.1

     total cpu time spent up to now is      307.6 secs

     total energy              =    -351.15185933 Ry
     Harris-Foulkes estimate   =    -351.15273506 Ry
     estimated scf accuracy    <       0.02441704 Ry

     iteration #  8     ecut=    50.00 Ry     beta=0.60
     Davidson diagonalization with overlap
     ethr =  6.60E-05,  avg # of iterations =  6.6

     total cpu time spent up to now is      354.3 secs

     total energy              =    -351.15564819 Ry
     Harris-Foulkes estimate   =    -351.15593603 Ry
     estimated scf accuracy    <       0.00857364 Ry

     iteration #  9     ecut=    50.00 Ry     beta=0.60
     Davidson diagonalization with overlap
     ethr =  2.32E-05,  avg # of iterations =  2.1

     total cpu time spent up to now is      386.6 secs

     total energy              =    -351.15444062 Ry
     Harris-Foulkes estimate   =    -351.15590202 Ry
     estimated scf accuracy    <       0.00727586 Ry

     iteration # 10     ecut=    50.00 Ry     beta=0.60
     Davidson diagonalization with overlap
     ethr =  1.97E-05,  avg # of iterations =  1.5

     total cpu time spent up to now is      417.8 secs

     total energy              =    -351.15479461 Ry
     Harris-Foulkes estimate   =    -351.15490052 Ry
     estimated scf accuracy    <       0.00057472 Ry

     iteration # 11     ecut=    50.00 Ry     beta=0.60
     Davidson diagonalization with overlap
     ethr =  1.55E-06,  avg # of iterations =  6.7

     total cpu time spent up to now is      471.4 secs

     total energy              =    -351.15503426 Ry
     Harris-Foulkes estimate   =    -351.15506566 Ry
     estimated scf accuracy    <       0.00055843 Ry

     iteration # 12     ecut=    50.00 Ry     beta=0.60
     Davidson diagonalization with overlap
     ethr =  1.51E-06,  avg # of iterations =  1.0

     total cpu time spent up to now is      502.0 secs

     total energy              =    -351.15500170 Ry
     Harris-Foulkes estimate   =    -351.15503910 Ry
     estimated scf accuracy    <       0.00029028 Ry

     iteration # 13     ecut=    50.00 Ry     beta=0.60
     Davidson diagonalization with overlap
     ethr =  7.85E-07,  avg # of iterations =  2.5

     total cpu time spent up to now is      536.8 secs

     total energy              =    -351.15502805 Ry
     Harris-Foulkes estimate   =    -351.15502917 Ry
     estimated scf accuracy    <       0.00002055 Ry

     iteration # 14     ecut=    50.00 Ry     beta=0.60
     Davidson diagonalization with overlap
     ethr =  5.55E-08,  avg # of iterations =  4.3

     total cpu time spent up to now is      576.2 secs

     total energy              =    -351.15503008 Ry
     Harris-Foulkes estimate   =    -351.15503106 Ry
     estimated scf accuracy    <       0.00002494 Ry

     iteration # 15     ecut=    50.00 Ry     beta=0.60
     Davidson diagonalization with overlap
     ethr =  5.55E-08,  avg # of iterations =  1.0

     total cpu time spent up to now is      606.8 secs

     total energy              =    -351.15502780 Ry
     Harris-Foulkes estimate   =    -351.15503051 Ry
     estimated scf accuracy    <       0.00001860 Ry

     iteration # 16     ecut=    50.00 Ry     beta=0.60
     Davidson diagonalization with overlap
     ethr =  5.03E-08,  avg # of iterations =  1.5

     total cpu time spent up to now is      638.0 secs

     total energy              =    -351.15502883 Ry
     Harris-Foulkes estimate   =    -351.15502884 Ry
     estimated scf accuracy    <       0.00000089 Ry

     iteration # 17     ecut=    50.00 Ry     beta=0.60
     Davidson diagonalization with overlap
     ethr =  2.40E-09,  avg # of iterations =  5.2

     total cpu time spent up to now is      684.6 secs

     total energy              =    -351.15502927 Ry
     Harris-Foulkes estimate   =    -351.15502929 Ry
     estimated scf accuracy    <       0.00000024 Ry

     iteration # 18     ecut=    50.00 Ry     beta=0.60
     Davidson diagonalization with overlap
     ethr =  6.50E-10,  avg # of iterations =  1.2

     total cpu time spent up to now is      715.5 secs

     total energy              =    -351.15502923 Ry
     Harris-Foulkes estimate   =    -351.15502927 Ry
     estimated scf accuracy    <       0.00000012 Ry

     iteration # 19     ecut=    50.00 Ry     beta=0.60
     Davidson diagonalization with overlap
     ethr =  3.31E-10,  avg # of iterations =  3.9

     total cpu time spent up to now is      756.6 secs

     total energy              =    -351.15502926 Ry
     Harris-Foulkes estimate   =    -351.15502927 Ry
     estimated scf accuracy    <       0.00000010 Ry

     iteration # 20     ecut=    50.00 Ry     beta=0.60
     Davidson diagonalization with overlap
     ethr =  2.65E-10,  avg # of iterations =  1.0

     total cpu time spent up to now is      787.4 secs

     total energy              =    -351.15502926 Ry
     Harris-Foulkes estimate   =    -351.15502926 Ry
     estimated scf accuracy    <       0.00000002 Ry

     iteration # 21     ecut=    50.00 Ry     beta=0.60
     Davidson diagonalization with overlap
     ethr =  5.32E-11,  avg # of iterations =  4.1

     total cpu time spent up to now is      828.7 secs

     total energy              =    -351.15502926 Ry
     Harris-Foulkes estimate   =    -351.15502926 Ry
     estimated scf accuracy    <          7.4E-09 Ry

     iteration # 22     ecut=    50.00 Ry     beta=0.60
     Davidson diagonalization with overlap
     ethr =  1.99E-11,  avg # of iterations =  1.1

     total cpu time spent up to now is      860.1 secs

     total energy              =    -351.15502926 Ry
     Harris-Foulkes estimate   =    -351.15502926 Ry
     estimated scf accuracy    <          3.4E-09 Ry

     iteration # 23     ecut=    50.00 Ry     beta=0.60
     Davidson diagonalization with overlap
     ethr =  9.16E-12,  avg # of iterations =  1.7

     total cpu time spent up to now is      892.6 secs

     total energy              =    -351.15502926 Ry
     Harris-Foulkes estimate   =    -351.15502926 Ry
     estimated scf accuracy    <          1.2E-09 Ry

     iteration # 24     ecut=    50.00 Ry     beta=0.60
     Davidson diagonalization with overlap
     ethr =  3.19E-12,  avg # of iterations =  4.0

     total cpu time spent up to now is      932.5 secs

     total energy              =    -351.15502926 Ry
     Harris-Foulkes estimate   =    -351.15502926 Ry
     estimated scf accuracy    <          1.1E-10 Ry

     iteration # 25     ecut=    50.00 Ry     beta=0.60
     Davidson diagonalization with overlap
     ethr =  2.99E-13,  avg # of iterations =  3.9

     total cpu time spent up to now is      971.4 secs

     End of self-consistent calculation

     Number of k-points >= 100: set verbosity='high' to print the bands.

     the Fermi energy is    11.4479 ev

!    total energy              =    -351.15502926 Ry
     Harris-Foulkes estimate   =    -351.15502926 Ry
     estimated scf accuracy    <          9.7E-11 Ry

     The total energy is the sum of the following terms:

     one-electron contribution =    -126.34774517 Ry
     hartree contribution      =      72.30019047 Ry
     xc contribution           =     -46.99759907 Ry
     ewald contribution        =    -250.10861073 Ry
     smearing contrib. (-TS)   =      -0.00126476 Ry

     convergence has been achieved in  25 iterations

     Forces acting on atoms (Ry/au):

     atom    1 type  2   force =     0.00000000    0.02429123    0.00000000
     atom    2 type  2   force =     0.00000000   -0.02428642    0.00000000
     atom    3 type  1   force =     0.00000000   -0.00000481    0.00000000

     Total force =     0.034350     Total SCF correction =     0.000020


     entering subroutine stress ...

          total   stress  (Ry/bohr**3)                   (kbar)     P= -190.06
  -0.00126704  -0.00000000   0.00000000       -186.39     -0.00      0.00
  -0.00000000  -0.00134193   0.00000000         -0.00   -197.40      0.00
   0.00000000   0.00000000  -0.00126704          0.00      0.00   -186.39


     BFGS Geometry Optimization

     number of scf cycles    =   1
     number of bfgs steps    =   0

     enthalpy new            =    -351.1550292615 Ry

     new trust radius        =       0.1407435889 bohr
     new conv_thr            =            1.0E-10 Ry

     new unit-cell volume =    398.73039 a.u.^3 (    59.08575 Ang^3 )

CELL_PARAMETERS (alat=  1.88972599)
  -1.702344193   5.097157898  -1.702344193
   1.702344193   5.097157898   1.702344193
   1.702344193  -5.097157898  -1.702344193

ATOMIC_POSITIONS (angstrom)
Ti       1.702344193   1.711475755  -1.702344193
Ti       1.702344193   5.084737236  -1.702344193
Nb       1.702344193  -1.699055093  -1.702344193


     NEW-OLD atomic charge density approx. for the potential
     extrapolated charge   33.37725, renormalised to   37.00000

     total cpu time spent up to now is      984.0 secs

     per-process dynamical memory:   155.2 Mb

     Self-consistent Calculation

     iteration #  1     ecut=    50.00 Ry     beta=0.60
     Davidson diagonalization with overlap
     c_bands:  1 eigenvalues not converged
     c_bands:  1 eigenvalues not converged
     c_bands:  1 eigenvalues not converged
     c_bands:  1 eigenvalues not converged
     c_bands:  1 eigenvalues not converged
     c_bands:  1 eigenvalues not converged
     c_bands:  1 eigenvalues not converged
     c_bands:  1 eigenvalues not converged
     c_bands:  1 eigenvalues not converged
     c_bands:  1 eigenvalues not converged
     ethr =  1.00E-06,  avg # of iterations = 14.7

     total cpu time spent up to now is     1109.3 secs

     total energy              =    -339.92573459 Ry
     Harris-Foulkes estimate   =    -360.14911746 Ry
     estimated scf accuracy    <      12.17032320 Ry

     iteration #  2     ecut=    50.00 Ry     beta=0.60
     Davidson diagonalization with overlap
     ethr =  1.00E-02,  avg # of iterations =  5.5

     total cpu time spent up to now is     1172.5 secs

     total energy              =    -350.57994253 Ry
     Harris-Foulkes estimate   =    -366.72352410 Ry
     estimated scf accuracy    <      48.80615817 Ry

     iteration #  3     ecut=    50.00 Ry     beta=0.60
     Davidson diagonalization with overlap
     ethr =  1.00E-02,  avg # of iterations =  3.8

     total cpu time spent up to now is     1221.0 secs

     total energy              =    -351.94947106 Ry
     Harris-Foulkes estimate   =    -353.72001136 Ry
     estimated scf accuracy    <       8.14140893 Ry

     iteration #  4     ecut=    50.00 Ry     beta=0.60
     Davidson diagonalization with overlap
     ethr =  1.00E-02,  avg # of iterations =  1.3

     total cpu time spent up to now is     1252.0 secs

     total energy              =    -351.33536168 Ry
     Harris-Foulkes estimate   =    -352.08013131 Ry
     estimated scf accuracy    <       5.25213326 Ry

     iteration #  5     ecut=    50.00 Ry     beta=0.60
     Davidson diagonalization with overlap
     ethr =  1.00E-02,  avg # of iterations =  1.6

     total cpu time spent up to now is     1283.5 secs

     total energy              =    -351.78201780 Ry
     Harris-Foulkes estimate   =    -351.50031373 Ry
     estimated scf accuracy    <       1.89007604 Ry

     iteration #  6     ecut=    50.00 Ry     beta=0.60
     Davidson diagonalization with overlap
     ethr =  5.11E-03,  avg # of iterations =  1.1

     total cpu time spent up to now is     1314.3 secs

     total energy              =    -351.42549953 Ry
     Harris-Foulkes estimate   =    -351.87938375 Ry
     estimated scf accuracy    <       4.26080357 Ry

     iteration #  7     ecut=    50.00 Ry     beta=0.60
     Davidson diagonalization with overlap
     ethr =  5.11E-03,  avg # of iterations =  1.1

     total cpu time spent up to now is     1345.0 secs

     total energy              =    -351.27704077 Ry
     Harris-Foulkes estimate   =    -351.46912434 Ry
     estimated scf accuracy    <       2.25728226 Ry

     iteration #  8     ecut=    50.00 Ry     beta=0.60
     Davidson diagonalization with overlap
     ethr =  5.11E-03,  avg # of iterations =  1.0

     total cpu time spent up to now is     1375.5 secs

     total energy              =    -351.22927899 Ry
     Harris-Foulkes estimate   =    -351.30514693 Ry
     estimated scf accuracy    <       1.28311637 Ry

     iteration #  9     ecut=    50.00 Ry     beta=0.60
     Davidson diagonalization with overlap
     ethr =  3.47E-03,  avg # of iterations =  1.2

     total cpu time spent up to now is     1406.4 secs

     total energy              =    -351.21037618 Ry
     Harris-Foulkes estimate   =    -351.24607453 Ry
     estimated scf accuracy    <       0.80596098 Ry

     iteration # 10     ecut=    50.00 Ry     beta=0.60
     Davidson diagonalization with overlap
     ethr =  2.18E-03,  avg # of iterations =  2.1

     total cpu time spent up to now is     1438.5 secs

     total energy              =    -351.03198727 Ry
     Harris-Foulkes estimate   =    -351.22950118 Ry
     estimated scf accuracy    <       0.45750439 Ry

     iteration # 11     ecut=    50.00 Ry     beta=0.60
     Davidson diagonalization with overlap
     ethr =  1.24E-03,  avg # of iterations =  5.4

     total cpu time spent up to now is     1488.0 secs

     total energy              =    -351.21635108 Ry
     Harris-Foulkes estimate   =    -351.30129343 Ry
     estimated scf accuracy    <       1.12265602 Ry

     iteration # 12     ecut=    50.00 Ry     beta=0.60
     Davidson diagonalization with overlap
     ethr =  1.24E-03,  avg # of iterations =  1.0

     total cpu time spent up to now is     1518.6 secs

     total energy              =    -351.23593111 Ry
     Harris-Foulkes estimate   =    -351.22675032 Ry
     estimated scf accuracy    <       0.65490757 Ry

     iteration # 13     ecut=    50.00 Ry     beta=0.60
     Davidson diagonalization with overlap
     ethr =  1.24E-03,  avg # of iterations =  1.0

     total cpu time spent up to now is     1549.4 secs

     total energy              =    -351.21031853 Ry
     Harris-Foulkes estimate   =    -351.23805587 Ry
     estimated scf accuracy    <       0.68855291 Ry

     iteration # 14     ecut=    50.00 Ry     beta=0.60
     Davidson diagonalization with overlap
     ethr =  1.24E-03,  avg # of iterations =  1.0

     total cpu time spent up to now is     1580.1 secs

     total energy              =    -351.23407541 Ry
     Harris-Foulkes estimate   =    -351.21449937 Ry
     estimated scf accuracy    <       0.47729156 Ry

     iteration # 15     ecut=    50.00 Ry     beta=0.60
     Davidson diagonalization with overlap
     ethr =  1.24E-03,  avg # of iterations =  1.0

     total cpu time spent up to now is     1610.7 secs

     total energy              =    -351.37274960 Ry
     Harris-Foulkes estimate   =    -351.23685726 Ry
     estimated scf accuracy    <       0.56587684 Ry

     iteration # 16     ecut=    50.00 Ry     beta=0.60
     Davidson diagonalization with overlap
     ethr =  1.24E-03,  avg # of iterations =  2.4

     total cpu time spent up to now is     1643.8 secs

     total energy              =    -351.19621385 Ry
     Harris-Foulkes estimate   =    -351.41166996 Ry
     estimated scf accuracy    <       1.59927418 Ry

     iteration # 17     ecut=    50.00 Ry     beta=0.60
     Davidson diagonalization with overlap
     ethr =  1.24E-03,  avg # of iterations =  2.4

     total cpu time spent up to now is     1678.0 secs

     total energy              =    -351.18154129 Ry
     Harris-Foulkes estimate   =    -351.23953255 Ry
     estimated scf accuracy    <       0.60201230 Ry

     iteration # 18     ecut=    50.00 Ry     beta=0.60
     Davidson diagonalization with overlap
     ethr =  1.24E-03,  avg # of iterations =  1.1

     total cpu time spent up to now is     1708.7 secs

     total energy              =    -351.19040054 Ry
     Harris-Foulkes estimate   =    -351.19541058 Ry
     estimated scf accuracy    <       0.31996370 Ry

     iteration # 19     ecut=    50.00 Ry     beta=0.60
     Davidson diagonalization with overlap
     ethr =  8.65E-04,  avg # of iterations =  1.2

     total cpu time spent up to now is     1739.7 secs

     total energy              =    -351.15207812 Ry
     Harris-Foulkes estimate   =    -351.19620204 Ry
     estimated scf accuracy    <       0.26353552 Ry

     iteration # 20     ecut=    50.00 Ry     beta=0.60
     Davidson diagonalization with overlap
     ethr =  7.12E-04,  avg # of iterations =  4.1

     total cpu time spent up to now is     1780.2 secs

     total energy              =    -351.20450897 Ry
     Harris-Foulkes estimate   =    -351.21276214 Ry
     estimated scf accuracy    <       0.10779102 Ry

     iteration # 21     ecut=    50.00 Ry     beta=0.60
     Davidson diagonalization with overlap
     ethr =  2.91E-04,  avg # of iterations =  1.8

     total cpu time spent up to now is     1812.2 secs

     total energy              =    -351.20066714 Ry
     Harris-Foulkes estimate   =    -351.20634472 Ry
     estimated scf accuracy    <       0.07829095 Ry

     iteration # 22     ecut=    50.00 Ry     beta=0.60
     Davidson diagonalization with overlap
     ethr =  2.12E-04,  avg # of iterations =  1.1

     total cpu time spent up to now is     1842.8 secs

     total energy              =    -351.19921180 Ry
     Harris-Foulkes estimate   =    -351.20207950 Ry
     estimated scf accuracy    <       0.03434782 Ry

     iteration # 23     ecut=    50.00 Ry     beta=0.60
     Davidson diagonalization with overlap
     ethr =  9.28E-05,  avg # of iterations =  3.0

     total cpu time spent up to now is     1876.9 secs

     total energy              =    -351.20072010 Ry
     Harris-Foulkes estimate   =    -351.20105449 Ry
     estimated scf accuracy    <       0.00442693 Ry

     iteration # 24     ecut=    50.00 Ry     beta=0.60
     Davidson diagonalization with overlap
     ethr =  1.20E-05,  avg # of iterations =  6.5

     total cpu time spent up to now is     1923.1 secs

     total energy              =    -351.20148399 Ry
     Harris-Foulkes estimate   =    -351.20152016 Ry
     estimated scf accuracy    <       0.00024127 Ry

     iteration # 25     ecut=    50.00 Ry     beta=0.60
     Davidson diagonalization with overlap
     c_bands:  1 eigenvalues not converged
     c_bands:  1 eigenvalues not converged
     ethr =  6.52E-07,  avg # of iterations =  4.8

     total cpu time spent up to now is     1962.7 secs

     total energy              =    -351.20149135 Ry
     Harris-Foulkes estimate   =    -351.20151908 Ry
     estimated scf accuracy    <       0.00007957 Ry

     iteration # 26     ecut=    50.00 Ry     beta=0.60
     Davidson diagonalization with overlap
     ethr =  2.15E-07,  avg # of iterations =  4.2

     total cpu time spent up to now is     2008.2 secs

     total energy              =    -351.20151548 Ry
     Harris-Foulkes estimate   =    -351.20152819 Ry
     estimated scf accuracy    <       0.00015755 Ry

     iteration # 27     ecut=    50.00 Ry     beta=0.60
     Davidson diagonalization with overlap
     ethr =  2.15E-07,  avg # of iterations =  1.0

     total cpu time spent up to now is     2038.9 secs

     total energy              =    -351.20150061 Ry
     Harris-Foulkes estimate   =    -351.20151688 Ry
     estimated scf accuracy    <       0.00008911 Ry

     iteration # 28     ecut=    50.00 Ry     beta=0.60
     Davidson diagonalization with overlap
     ethr =  2.15E-07,  avg # of iterations =  3.2

     total cpu time spent up to now is     2076.3 secs

     total energy              =    -351.20151065 Ry
     Harris-Foulkes estimate   =    -351.20151082 Ry
     estimated scf accuracy    <       0.00000101 Ry

     iteration # 29     ecut=    50.00 Ry     beta=0.60
     Davidson diagonalization with overlap
     ethr =  2.73E-09,  avg # of iterations =  4.7

     total cpu time spent up to now is     2122.3 secs

     total energy              =    -351.20151113 Ry
     Harris-Foulkes estimate   =    -351.20151119 Ry
     estimated scf accuracy    <       0.00000049 Ry

     iteration # 30     ecut=    50.00 Ry     beta=0.60
     Davidson diagonalization with overlap
     ethr =  1.34E-09,  avg # of iterations =  1.3

     total cpu time spent up to now is     2153.3 secs

     total energy              =    -351.20151113 Ry
     Harris-Foulkes estimate   =    -351.20151115 Ry
     estimated scf accuracy    <       0.00000018 Ry

     iteration # 31     ecut=    50.00 Ry     beta=0.60
     Davidson diagonalization with overlap
     ethr =  4.84E-10,  avg # of iterations =  3.7

     total cpu time spent up to now is     2190.0 secs

     total energy              =    -351.20151114 Ry
     Harris-Foulkes estimate   =    -351.20151114 Ry
     estimated scf accuracy    <          1.8E-09 Ry

     iteration # 32     ecut=    50.00 Ry     beta=0.60
     Davidson diagonalization with overlap
     ethr =  4.74E-12,  avg # of iterations =  5.5

     total cpu time spent up to now is     2242.7 secs

     total energy              =    -351.20151115 Ry
     Harris-Foulkes estimate   =    -351.20151115 Ry
     estimated scf accuracy    <          5.8E-09 Ry

     iteration # 33     ecut=    50.00 Ry     beta=0.60
     Davidson diagonalization with overlap
     ethr =  4.74E-12,  avg # of iterations =  3.8

     total cpu time spent up to now is     2282.4 secs

     End of self-consistent calculation

     Number of k-points >= 100: set verbosity='high' to print the bands.

     the Fermi energy is    12.9203 ev

!    total energy              =    -351.20151115 Ry
     Harris-Foulkes estimate   =    -351.20151115 Ry
     estimated scf accuracy    <          5.4E-11 Ry

     The total energy is the sum of the following terms:

     one-electron contribution =    -113.97307411 Ry
     hartree contribution      =      68.40121311 Ry
     xc contribution           =     -47.21413184 Ry
     ewald contribution        =    -258.41459428 Ry
     smearing contrib. (-TS)   =      -0.00092403 Ry

     convergence has been achieved in  33 iterations

     Forces acting on atoms (Ry/au):

     atom    1 type  2   force =     0.00000000    0.02075117   -0.00000000
     atom    2 type  2   force =    -0.00000000   -0.02074972    0.00000000
     atom    3 type  1   force =    -0.00000000   -0.00000145    0.00000000

     Total force =     0.029346     Total SCF correction =     0.000015


     entering subroutine stress ...

          total   stress  (Ry/bohr**3)                   (kbar)     P= -127.47
  -0.00083724   0.00000000  -0.00000000       -123.16      0.00     -0.00
   0.00000000  -0.00092517   0.00000000          0.00   -136.10      0.00
  -0.00000000  -0.00000000  -0.00083724         -0.00     -0.00   -123.16


     number of scf cycles    =   2
     number of bfgs steps    =   1

     enthalpy old            =    -351.1550292615 Ry
     enthalpy new            =    -351.2015111467 Ry

     CASE: enthalpy_new < enthalpy_old

     new trust radius        =       0.2079459716 bohr
     new conv_thr            =            1.0E-10 Ry

     new unit-cell volume =    343.31258 a.u.^3 (    50.87367 Ang^3 )

CELL_PARAMETERS (alat=  1.88972599)
  -1.622423568   4.831752995  -1.622423568
   1.622423568   4.831752995   1.622423568
   1.622423568  -4.831752995  -1.622423568

ATOMIC_POSITIONS (angstrom)
Ti       1.622423568   1.644900674  -1.622423568
Ti       1.622423568   4.797440568  -1.622423568
Nb       1.622423568  -1.610588246  -1.622423568


     NEW-OLD atomic charge density approx. for the potential
     extrapolated charge   31.35073, renormalised to   37.00000

     total cpu time spent up to now is     2295.1 secs

     per-process dynamical memory:   148.2 Mb

     Self-consistent Calculation

     iteration #  1     ecut=    50.00 Ry     beta=0.60
     Davidson diagonalization with overlap
     c_bands:  1 eigenvalues not converged
     c_bands:  1 eigenvalues not converged
     ethr =  1.00E-06,  avg # of iterations = 15.1

     total cpu time spent up to now is     2418.9 secs

     total energy              =    -332.03223748 Ry
     Harris-Foulkes estimate   =    -363.86315551 Ry
     estimated scf accuracy    <      20.65896312 Ry

     iteration #  2     ecut=    50.00 Ry     beta=0.60
     Davidson diagonalization with overlap
     ethr =  1.00E-02,  avg # of iterations =  5.8

     total cpu time spent up to now is     2486.3 secs

     total energy              =    -349.67615802 Ry
     Harris-Foulkes estimate   =    -373.70408839 Ry
     estimated scf accuracy    <      68.22903076 Ry

     iteration #  3     ecut=    50.00 Ry     beta=0.60
     Davidson diagonalization with overlap
     ethr =  1.00E-02,  avg # of iterations =  3.9

     total cpu time spent up to now is     2538.7 secs

     total energy              =    -352.15645877 Ry
     Harris-Foulkes estimate   =    -354.73590561 Ry
     estimated scf accuracy    <      10.86078120 Ry

     iteration #  4     ecut=    50.00 Ry     beta=0.60
     Davidson diagonalization with overlap
     ethr =  1.00E-02,  avg # of iterations =  1.2

     total cpu time spent up to now is     2569.5 secs

     total energy              =    -351.00370040 Ry
     Harris-Foulkes estimate   =    -352.34054431 Ry
     estimated scf accuracy    <       5.67875451 Ry

     iteration #  5     ecut=    50.00 Ry     beta=0.60
     Davidson diagonalization with overlap
     ethr =  1.00E-02,  avg # of iterations =  2.5

     total cpu time spent up to now is     2605.0 secs

     total energy              =    -351.81462594 Ry
     Harris-Foulkes estimate   =    -351.44679055 Ry
     estimated scf accuracy    <       0.75433230 Ry

     iteration #  6     ecut=    50.00 Ry     beta=0.60
     Davidson diagonalization with overlap
     ethr =  2.04E-03,  avg # of iterations =  3.8

     total cpu time spent up to now is     2645.3 secs

     total energy              =    -351.40171213 Ry
     Harris-Foulkes estimate   =    -352.14569645 Ry
     estimated scf accuracy    <       4.81430877 Ry

     iteration #  7     ecut=    50.00 Ry     beta=0.60
     Davidson diagonalization with overlap
     ethr =  2.04E-03,  avg # of iterations =  2.4

     total cpu time spent up to now is     2678.0 secs

     total energy              =    -351.19702550 Ry
     Harris-Foulkes estimate   =    -351.48535841 Ry
     estimated scf accuracy    <       1.87572511 Ry

     iteration #  8     ecut=    50.00 Ry     beta=0.60
     Davidson diagonalization with overlap
     ethr =  2.04E-03,  avg # of iterations =  3.1

     total cpu time spent up to now is     2714.4 secs

     total energy              =    -351.14767360 Ry
     Harris-Foulkes estimate   =    -351.28831387 Ry
     estimated scf accuracy    <       0.38378989 Ry

     iteration #  9     ecut=    50.00 Ry     beta=0.60
     Davidson diagonalization with overlap
     ethr =  1.04E-03,  avg # of iterations =  4.4

     total cpu time spent up to now is     2756.1 secs

     total energy              =    -351.23121257 Ry
     Harris-Foulkes estimate   =    -351.22665205 Ry
     estimated scf accuracy    <       0.04657653 Ry

     iteration # 10     ecut=    50.00 Ry     beta=0.60
     Davidson diagonalization with overlap
     ethr =  1.26E-04,  avg # of iterations =  6.1

     total cpu time spent up to now is     2798.2 secs

     total energy              =    -351.24736793 Ry
     Harris-Foulkes estimate   =    -351.23602919 Ry
     estimated scf accuracy    <       0.10729185 Ry

     iteration # 11     ecut=    50.00 Ry     beta=0.60
     Davidson diagonalization with overlap
     ethr =  1.26E-04,  avg # of iterations =  3.4

     total cpu time spent up to now is     2834.4 secs

     total energy              =    -351.21618996 Ry
     Harris-Foulkes estimate   =    -351.25251555 Ry
     estimated scf accuracy    <       0.25594194 Ry

     iteration # 12     ecut=    50.00 Ry     beta=0.60
     Davidson diagonalization with overlap
     ethr =  1.26E-04,  avg # of iterations =  3.6

     total cpu time spent up to now is     2872.5 secs

     total energy              =    -351.22112832 Ry
     Harris-Foulkes estimate   =    -351.22691821 Ry
     estimated scf accuracy    <       0.03333615 Ry

     iteration # 13     ecut=    50.00 Ry     beta=0.60
     Davidson diagonalization with overlap
     ethr =  9.01E-05,  avg # of iterations =  4.5

     total cpu time spent up to now is     2915.0 secs

     total energy              =    -351.22694953 Ry
     Harris-Foulkes estimate   =    -351.22902935 Ry
     estimated scf accuracy    <       0.01578415 Ry

     iteration # 14     ecut=    50.00 Ry     beta=0.60
     Davidson diagonalization with overlap
     ethr =  4.27E-05,  avg # of iterations =  1.8

     total cpu time spent up to now is     2946.7 secs

     total energy              =    -351.22770736 Ry
     Harris-Foulkes estimate   =    -351.22724180 Ry
     estimated scf accuracy    <       0.00970774 Ry

     iteration # 15     ecut=    50.00 Ry     beta=0.60
     Davidson diagonalization with overlap
     ethr =  2.62E-05,  avg # of iterations =  1.0

     total cpu time spent up to now is     2977.4 secs

     total energy              =    -351.22735421 Ry
     Harris-Foulkes estimate   =    -351.22783612 Ry
     estimated scf accuracy    <       0.01081255 Ry

     iteration # 16     ecut=    50.00 Ry     beta=0.60
     Davidson diagonalization with overlap
     ethr =  2.62E-05,  avg # of iterations =  1.0

     total cpu time spent up to now is     3008.1 secs

     total energy              =    -351.22271174 Ry
     Harris-Foulkes estimate   =    -351.22750902 Ry
     estimated scf accuracy    <       0.00944233 Ry

     iteration # 17     ecut=    50.00 Ry     beta=0.60
     Davidson diagonalization with overlap
     ethr =  2.55E-05,  avg # of iterations =  4.6

     total cpu time spent up to now is     3051.4 secs

     total energy              =    -351.22427394 Ry
     Harris-Foulkes estimate   =    -351.22563135 Ry
     estimated scf accuracy    <       0.01063291 Ry

     iteration # 18     ecut=    50.00 Ry     beta=0.60
     Davidson diagonalization with overlap
     ethr =  2.55E-05,  avg # of iterations =  1.0

     total cpu time spent up to now is     3082.2 secs

     total energy              =    -351.22343861 Ry
     Harris-Foulkes estimate   =    -351.22455981 Ry
     estimated scf accuracy    <       0.00357042 Ry

     iteration # 19     ecut=    50.00 Ry     beta=0.60
     Davidson diagonalization with overlap
     ethr =  9.65E-06,  avg # of iterations =  4.5

     total cpu time spent up to now is     3126.0 secs

     total energy              =    -351.22422196 Ry
     Harris-Foulkes estimate   =    -351.22501044 Ry
     estimated scf accuracy    <       0.00484776 Ry

     iteration # 20     ecut=    50.00 Ry     beta=0.60
     Davidson diagonalization with overlap
     ethr =  9.65E-06,  avg # of iterations =  1.7

     total cpu time spent up to now is     3157.6 secs

     total energy              =    -351.22435457 Ry
     Harris-Foulkes estimate   =    -351.22444498 Ry
     estimated scf accuracy    <       0.00063218 Ry

     iteration # 21     ecut=    50.00 Ry     beta=0.60
     Davidson diagonalization with overlap
     ethr =  1.71E-06,  avg # of iterations =  5.1

     total cpu time spent up to now is     3202.6 secs

     total energy              =    -351.22453931 Ry
     Harris-Foulkes estimate   =    -351.22454752 Ry
     estimated scf accuracy    <       0.00010914 Ry

     iteration # 22     ecut=    50.00 Ry     beta=0.60
     Davidson diagonalization with overlap
     ethr =  2.95E-07,  avg # of iterations =  1.5

     total cpu time spent up to now is     3233.9 secs

     total energy              =    -351.22453170 Ry
     Harris-Foulkes estimate   =    -351.22454133 Ry
     estimated scf accuracy    <       0.00006189 Ry

     iteration # 23     ecut=    50.00 Ry     beta=0.60
     Davidson diagonalization with overlap
     ethr =  1.67E-07,  avg # of iterations =  2.6

     total cpu time spent up to now is     3268.7 secs

     total energy              =    -351.22453711 Ry
     Harris-Foulkes estimate   =    -351.22453720 Ry
     estimated scf accuracy    <       0.00000034 Ry

     iteration # 24     ecut=    50.00 Ry     beta=0.60
     Davidson diagonalization with overlap
     ethr =  9.13E-10,  avg # of iterations =  5.8

     total cpu time spent up to now is     3319.8 secs

     total energy              =    -351.22453760 Ry
     Harris-Foulkes estimate   =    -351.22453767 Ry
     estimated scf accuracy    <       0.00000055 Ry

     iteration # 25     ecut=    50.00 Ry     beta=0.60
     Davidson diagonalization with overlap
     ethr =  9.13E-10,  avg # of iterations =  1.0

     total cpu time spent up to now is     3350.5 secs

     total energy              =    -351.22453759 Ry
     Harris-Foulkes estimate   =    -351.22453762 Ry
     estimated scf accuracy    <       0.00000016 Ry

     iteration # 26     ecut=    50.00 Ry     beta=0.60
     Davidson diagonalization with overlap
     ethr =  4.38E-10,  avg # of iterations =  3.3

     total cpu time spent up to now is     3389.2 secs

     total energy              =    -351.22453762 Ry
     Harris-Foulkes estimate   =    -351.22453762 Ry
     estimated scf accuracy    <          9.8E-09 Ry

     iteration # 27     ecut=    50.00 Ry     beta=0.60
     Davidson diagonalization with overlap
     ethr =  2.65E-11,  avg # of iterations =  2.6

     total cpu time spent up to now is     3424.2 secs

     total energy              =    -351.22453762 Ry
     Harris-Foulkes estimate   =    -351.22453762 Ry
     estimated scf accuracy    <          3.3E-09 Ry

     iteration # 28     ecut=    50.00 Ry     beta=0.60
     Davidson diagonalization with overlap
     ethr =  8.91E-12,  avg # of iterations =  2.3

     total cpu time spent up to now is     3456.8 secs

     total energy              =    -351.22453762 Ry
     Harris-Foulkes estimate   =    -351.22453762 Ry
     estimated scf accuracy    <          1.3E-09 Ry

     iteration # 29     ecut=    50.00 Ry     beta=0.60
     Davidson diagonalization with overlap
     ethr =  3.40E-12,  avg # of iterations =  3.7

     total cpu time spent up to now is     3495.3 secs

     End of self-consistent calculation

     Number of k-points >= 100: set verbosity='high' to print the bands.

     the Fermi energy is    15.4225 ev

!    total energy              =    -351.22453762 Ry
     Harris-Foulkes estimate   =    -351.22453762 Ry
     estimated scf accuracy    <          3.3E-11 Ry

     The total energy is the sum of the following terms:

     one-electron contribution =     -94.80886155 Ry
     hartree contribution      =      62.68558566 Ry
     xc contribution           =     -47.60144730 Ry
     ewald contribution        =    -271.49933585 Ry
     smearing contrib. (-TS)   =      -0.00047858 Ry

     convergence has been achieved in  29 iterations

     Forces acting on atoms (Ry/au):

     atom    1 type  2   force =     0.00000000    0.00853124    0.00000000
     atom    2 type  2   force =     0.00000000   -0.00853359   -0.00000000
     atom    3 type  1   force =     0.00000000    0.00000236    0.00000000

     Total force =     0.012067     Total SCF correction =     0.000016


     entering subroutine stress ...

          total   stress  (Ry/bohr**3)                   (kbar)     P=   31.81
   0.00025524  -0.00000000   0.00000000         37.55     -0.00      0.00
  -0.00000000   0.00013819   0.00000000         -0.00     20.33      0.00
   0.00000000   0.00000000   0.00025524          0.00      0.00     37.55


     number of scf cycles    =   3
     number of bfgs steps    =   2

     enthalpy old            =    -351.2015111467 Ry
     enthalpy new            =    -351.2245376204 Ry

     CASE: enthalpy_new < enthalpy_old

     new trust radius        =       0.0344415998 bohr
     new conv_thr            =            1.0E-10 Ry

     new unit-cell volume =    352.38813 a.u.^3 (    52.21853 Ang^3 )

CELL_PARAMETERS (alat=  1.88972599)
  -1.637502574   4.868562908  -1.637502574
   1.637502574   4.868562908   1.637502574
   1.637502574  -4.868562908  -1.637502574

ATOMIC_POSITIONS (angstrom)
Ti       1.637502574   1.658550612  -1.637502574
Ti       1.637502574   4.832869528  -1.637502574
Nb       1.637502574  -1.622857232  -1.637502574


     NEW-OLD atomic charge density approx. for the potential
     extrapolated charge   37.90133, renormalised to   37.00000

     total cpu time spent up to now is     3508.1 secs

     per-process dynamical memory:   148.2 Mb

     Self-consistent Calculation

     iteration #  1     ecut=    50.00 Ry     beta=0.60
     Davidson diagonalization with overlap
     ethr =  1.00E-06,  avg # of iterations = 11.3

     total cpu time spent up to now is     3596.5 secs

     total energy              =    -351.08869347 Ry
     Harris-Foulkes estimate   =    -349.52522174 Ry
     estimated scf accuracy    <       0.11337802 Ry

     iteration #  2     ecut=    50.00 Ry     beta=0.60
     Davidson diagonalization with overlap
     ethr =  3.06E-04,  avg # of iterations =  5.2

     total cpu time spent up to now is     3659.0 secs

     total energy              =    -351.10529747 Ry
     Harris-Foulkes estimate   =    -351.39754385 Ry
     estimated scf accuracy    <       1.40807992 Ry

     iteration #  3     ecut=    50.00 Ry     beta=0.60
     Davidson diagonalization with overlap
     ethr =  3.06E-04,  avg # of iterations =  4.5

     total cpu time spent up to now is     3708.1 secs

     total energy              =    -351.21059129 Ry
     Harris-Foulkes estimate   =    -351.26094158 Ry
     estimated scf accuracy    <       0.20562568 Ry

     iteration #  4     ecut=    50.00 Ry     beta=0.60
     Davidson diagonalization with overlap
     ethr =  3.06E-04,  avg # of iterations =  3.0

     total cpu time spent up to now is     3743.9 secs

     total energy              =    -351.22831711 Ry
     Harris-Foulkes estimate   =    -351.23250244 Ry
     estimated scf accuracy    <       0.02970894 Ry

     iteration #  5     ecut=    50.00 Ry     beta=0.60
     Davidson diagonalization with overlap
     ethr =  8.03E-05,  avg # of iterations =  2.0

     total cpu time spent up to now is     3776.0 secs

     total energy              =    -351.22627334 Ry
     Harris-Foulkes estimate   =    -351.22945942 Ry
     estimated scf accuracy    <       0.01836863 Ry

     iteration #  6     ecut=    50.00 Ry     beta=0.60
     Davidson diagonalization with overlap
     ethr =  4.96E-05,  avg # of iterations =  1.3

     total cpu time spent up to now is     3807.0 secs

     total energy              =    -351.22594379 Ry
     Harris-Foulkes estimate   =    -351.22685191 Ry
     estimated scf accuracy    <       0.00874186 Ry

     iteration #  7     ecut=    50.00 Ry     beta=0.60
     Davidson diagonalization with overlap
     ethr =  2.36E-05,  avg # of iterations =  2.0

     total cpu time spent up to now is     3839.3 secs

     total energy              =    -351.22548295 Ry
     Harris-Foulkes estimate   =    -351.22625163 Ry
     estimated scf accuracy    <       0.00505931 Ry

     iteration #  8     ecut=    50.00 Ry     beta=0.60
     Davidson diagonalization with overlap
     ethr =  1.37E-05,  avg # of iterations =  2.2

     total cpu time spent up to now is     3871.7 secs

     total energy              =    -351.22548827 Ry
     Harris-Foulkes estimate   =    -351.22568936 Ry
     estimated scf accuracy    <       0.00206860 Ry

     iteration #  9     ecut=    50.00 Ry     beta=0.60
     Davidson diagonalization with overlap
     ethr =  5.59E-06,  avg # of iterations =  3.8

     total cpu time spent up to now is     3908.2 secs

     total energy              =    -351.22572717 Ry
     Harris-Foulkes estimate   =    -351.22563820 Ry
     estimated scf accuracy    <       0.00071868 Ry

     iteration # 10     ecut=    50.00 Ry     beta=0.60
     Davidson diagonalization with overlap
     ethr =  1.94E-06,  avg # of iterations =  3.2

     total cpu time spent up to now is     3941.5 secs

     total energy              =    -351.22539449 Ry
     Harris-Foulkes estimate   =    -351.22574279 Ry
     estimated scf accuracy    <       0.00105677 Ry

     iteration # 11     ecut=    50.00 Ry     beta=0.60
     Davidson diagonalization with overlap
     ethr =  1.94E-06,  avg # of iterations =  3.4

     total cpu time spent up to now is     3980.1 secs

     total energy              =    -351.22551472 Ry
     Harris-Foulkes estimate   =    -351.22551019 Ry
     estimated scf accuracy    <       0.00003219 Ry

     iteration # 12     ecut=    50.00 Ry     beta=0.60
     Davidson diagonalization with overlap
     ethr =  8.70E-08,  avg # of iterations =  3.6

     total cpu time spent up to now is     4020.2 secs

     total energy              =    -351.22551689 Ry
     Harris-Foulkes estimate   =    -351.22552225 Ry
     estimated scf accuracy    <       0.00004299 Ry

     iteration # 13     ecut=    50.00 Ry     beta=0.60
     Davidson diagonalization with overlap
     ethr =  8.70E-08,  avg # of iterations =  1.2

     total cpu time spent up to now is     4051.0 secs

     total energy              =    -351.22551386 Ry
     Harris-Foulkes estimate   =    -351.22551774 Ry
     estimated scf accuracy    <       0.00002104 Ry

     iteration # 14     ecut=    50.00 Ry     beta=0.60
     Davidson diagonalization with overlap
     ethr =  5.69E-08,  avg # of iterations =  3.2

     total cpu time spent up to now is     4087.4 secs

     total energy              =    -351.22551630 Ry
     Harris-Foulkes estimate   =    -351.22551595 Ry
     estimated scf accuracy    <       0.00000229 Ry

     iteration # 15     ecut=    50.00 Ry     beta=0.60
     Davidson diagonalization with overlap
     ethr =  6.19E-09,  avg # of iterations =  3.2

     total cpu time spent up to now is     4123.5 secs

     total energy              =    -351.22551608 Ry
     Harris-Foulkes estimate   =    -351.22551652 Ry
     estimated scf accuracy    <       0.00000331 Ry

     iteration # 16     ecut=    50.00 Ry     beta=0.60
     Davidson diagonalization with overlap
     ethr =  6.19E-09,  avg # of iterations =  1.0

     total cpu time spent up to now is     4154.1 secs

     total energy              =    -351.22551497 Ry
     Harris-Foulkes estimate   =    -351.22551611 Ry
     estimated scf accuracy    <       0.00000222 Ry

     iteration # 17     ecut=    50.00 Ry     beta=0.60
     Davidson diagonalization with overlap
     ethr =  6.00E-09,  avg # of iterations =  3.7

     total cpu time spent up to now is     4194.7 secs

     total energy              =    -351.22551549 Ry
     Harris-Foulkes estimate   =    -351.22551559 Ry
     estimated scf accuracy    <       0.00000133 Ry

     iteration # 18     ecut=    50.00 Ry     beta=0.60
     Davidson diagonalization with overlap
     ethr =  3.59E-09,  avg # of iterations =  1.0

     total cpu time spent up to now is     4225.2 secs

     total energy              =    -351.22551545 Ry
     Harris-Foulkes estimate   =    -351.22551552 Ry
     estimated scf accuracy    <       0.00000089 Ry

     iteration # 19     ecut=    50.00 Ry     beta=0.60
     Davidson diagonalization with overlap
     ethr =  2.42E-09,  avg # of iterations =  1.0

     total cpu time spent up to now is     4255.7 secs

     total energy              =    -351.22551542 Ry
     Harris-Foulkes estimate   =    -351.22551546 Ry
     estimated scf accuracy    <       0.00000053 Ry

     iteration # 20     ecut=    50.00 Ry     beta=0.60
     Davidson diagonalization with overlap
     ethr =  1.43E-09,  avg # of iterations =  1.7

     total cpu time spent up to now is     4287.5 secs

     total energy              =    -351.22551541 Ry
     Harris-Foulkes estimate   =    -351.22551543 Ry
     estimated scf accuracy    <       0.00000021 Ry

     iteration # 21     ecut=    50.00 Ry     beta=0.60
     Davidson diagonalization with overlap
     ethr =  5.58E-10,  avg # of iterations =  3.4

     total cpu time spent up to now is     4323.7 secs

     total energy              =    -351.22551543 Ry
     Harris-Foulkes estimate   =    -351.22551543 Ry
     estimated scf accuracy    <          9.0E-09 Ry

     iteration # 22     ecut=    50.00 Ry     beta=0.60
     Davidson diagonalization with overlap
     ethr =  2.42E-11,  avg # of iterations =  4.2

     total cpu time spent up to now is     4364.1 secs

     total energy              =    -351.22551543 Ry
     Harris-Foulkes estimate   =    -351.22551543 Ry
     estimated scf accuracy    <          6.8E-10 Ry

     iteration # 23     ecut=    50.00 Ry     beta=0.60
     Davidson diagonalization with overlap
     ethr =  1.83E-12,  avg # of iterations =  3.3

     total cpu time spent up to now is     4401.8 secs

     total energy              =    -351.22551543 Ry
     Harris-Foulkes estimate   =    -351.22551543 Ry
     estimated scf accuracy    <          4.5E-10 Ry

     iteration # 24     ecut=    50.00 Ry     beta=0.60
     Davidson diagonalization with overlap
     ethr =  1.23E-12,  avg # of iterations =  3.8

     total cpu time spent up to now is     4441.3 secs

     total energy              =    -351.22551543 Ry
     Harris-Foulkes estimate   =    -351.22551543 Ry
     estimated scf accuracy    <          2.6E-10 Ry

     iteration # 25     ecut=    50.00 Ry     beta=0.60
     Davidson diagonalization with overlap
     ethr =  7.01E-13,  avg # of iterations =  1.1

     total cpu time spent up to now is     4472.2 secs

     total energy              =    -351.22551543 Ry
     Harris-Foulkes estimate   =    -351.22551543 Ry
     estimated scf accuracy    <          3.2E-10 Ry

     iteration # 26     ecut=    50.00 Ry     beta=0.60
     Davidson diagonalization with overlap
     ethr =  7.01E-13,  avg # of iterations =  1.0

     total cpu time spent up to now is     4502.7 secs

     total energy              =    -351.22551543 Ry
     Harris-Foulkes estimate   =    -351.22551543 Ry
     estimated scf accuracy    <          1.2E-10 Ry

     iteration # 27     ecut=    50.00 Ry     beta=0.60
     Davidson diagonalization with overlap
     ethr =  3.16E-13,  avg # of iterations =  2.8

     total cpu time spent up to now is     4538.3 secs

     End of self-consistent calculation

     Number of k-points >= 100: set verbosity='high' to print the bands.

     the Fermi energy is    14.9614 ev

!    total energy              =    -351.22551543 Ry
     Harris-Foulkes estimate   =    -351.22551543 Ry
     estimated scf accuracy    <          5.4E-12 Ry

     The total energy is the sum of the following terms:

     one-electron contribution =     -98.25376193 Ry
     hartree contribution      =      63.69983602 Ry
     xc contribution           =     -47.53004468 Ry
     ewald contribution        =    -269.14099446 Ry
     smearing contrib. (-TS)   =      -0.00055038 Ry

     convergence has been achieved in  27 iterations

     Forces acting on atoms (Ry/au):

     atom    1 type  2   force =    -0.00000000    0.00979200    0.00000000
     atom    2 type  2   force =     0.00000000   -0.00979382   -0.00000000
     atom    3 type  1   force =    -0.00000000    0.00000182    0.00000000

     Total force =     0.013849     Total SCF correction =     0.000007


     entering subroutine stress ...

          total   stress  (Ry/bohr**3)                   (kbar)     P=   -2.12
   0.00002161  -0.00000000  -0.00000000          3.18     -0.00     -0.00
  -0.00000000  -0.00008647  -0.00000000         -0.00    -12.72     -0.00
  -0.00000000  -0.00000000   0.00002161         -0.00     -0.00      3.18


     number of scf cycles    =   4
     number of bfgs steps    =   3

     enthalpy old            =    -351.2245376204 Ry
     enthalpy new            =    -351.2255154326 Ry

     CASE: enthalpy_new < enthalpy_old

     new trust radius        =       0.0094425734 bohr
     new conv_thr            =            1.0E-10 Ry

     new unit-cell volume =    352.26126 a.u.^3 (    52.19973 Ang^3 )

CELL_PARAMETERS (alat=  1.88972599)
  -1.638867784   4.858705191  -1.638867784
   1.638867784   4.858705191   1.638867784
   1.638867784  -4.858705191  -1.638867784

ATOMIC_POSITIONS (angstrom)
Ti       1.638867784   1.660178189  -1.638867784
Ti       1.638867784   4.818097405  -1.638867784
Nb       1.638867784  -1.619570403  -1.638867784


     NEW-OLD atomic charge density approx. for the potential
     extrapolated charge   36.98740, renormalised to   37.00000

     total cpu time spent up to now is     4551.1 secs

     per-process dynamical memory:   155.2 Mb

     Self-consistent Calculation

     iteration #  1     ecut=    50.00 Ry     beta=0.60
     Davidson diagonalization with overlap
     ethr =  1.00E-06,  avg # of iterations =  4.2

     total cpu time spent up to now is     4615.1 secs

     total energy              =    -351.22500935 Ry
     Harris-Foulkes estimate   =    -351.25002270 Ry
     estimated scf accuracy    <       0.00115733 Ry

     iteration #  2     ecut=    50.00 Ry     beta=0.60
     Davidson diagonalization with overlap
     ethr =  3.13E-06,  avg # of iterations =  5.3

     total cpu time spent up to now is     4668.3 secs

     total energy              =    -351.22346823 Ry
     Harris-Foulkes estimate   =    -351.22808068 Ry
     estimated scf accuracy    <       0.02543907 Ry

     iteration #  3     ecut=    50.00 Ry     beta=0.60
     Davidson diagonalization with overlap
     ethr =  3.13E-06,  avg # of iterations =  5.2

     total cpu time spent up to now is     4720.6 secs

     total energy              =    -351.22573797 Ry
     Harris-Foulkes estimate   =    -351.22580018 Ry
     estimated scf accuracy    <       0.00024345 Ry

     iteration #  4     ecut=    50.00 Ry     beta=0.60
     Davidson diagonalization with overlap
     ethr =  6.58E-07,  avg # of iterations =  1.7

     total cpu time spent up to now is     4752.1 secs

     total energy              =    -351.22574023 Ry
     Harris-Foulkes estimate   =    -351.22575214 Ry
     estimated scf accuracy    <       0.00005629 Ry

     iteration #  5     ecut=    50.00 Ry     beta=0.60
     Davidson diagonalization with overlap
     ethr =  1.52E-07,  avg # of iterations =  3.9

     total cpu time spent up to now is     4793.9 secs

     total energy              =    -351.22575938 Ry
     Harris-Foulkes estimate   =    -351.22576032 Ry
     estimated scf accuracy    <       0.00001468 Ry

     iteration #  6     ecut=    50.00 Ry     beta=0.60
     Davidson diagonalization with overlap
     ethr =  3.97E-08,  avg # of iterations =  1.4

     total cpu time spent up to now is     4825.0 secs

     total energy              =    -351.22575908 Ry
     Harris-Foulkes estimate   =    -351.22575979 Ry
     estimated scf accuracy    <       0.00000975 Ry

     iteration #  7     ecut=    50.00 Ry     beta=0.60
     Davidson diagonalization with overlap
     ethr =  2.63E-08,  avg # of iterations =  1.0

     total cpu time spent up to now is     4855.6 secs

     total energy              =    -351.22575889 Ry
     Harris-Foulkes estimate   =    -351.22575934 Ry
     estimated scf accuracy    <       0.00000707 Ry

     iteration #  8     ecut=    50.00 Ry     beta=0.60
     Davidson diagonalization with overlap
     ethr =  1.91E-08,  avg # of iterations =  1.1

     total cpu time spent up to now is     4886.4 secs

     total energy              =    -351.22575858 Ry
     Harris-Foulkes estimate   =    -351.22575905 Ry
     estimated scf accuracy    <       0.00000396 Ry

     iteration #  9     ecut=    50.00 Ry     beta=0.60
     Davidson diagonalization with overlap
     ethr =  1.07E-08,  avg # of iterations =  3.0

     total cpu time spent up to now is     4921.3 secs

     total energy              =    -351.22575879 Ry
     Harris-Foulkes estimate   =    -351.22575884 Ry
     estimated scf accuracy    <       0.00000050 Ry

     iteration # 10     ecut=    50.00 Ry     beta=0.60
     Davidson diagonalization with overlap
     ethr =  1.35E-09,  avg # of iterations =  3.8

     total cpu time spent up to now is     4959.8 secs

     total energy              =    -351.22575887 Ry
     Harris-Foulkes estimate   =    -351.22575887 Ry
     estimated scf accuracy    <       0.00000005 Ry

     iteration # 11     ecut=    50.00 Ry     beta=0.60
     Davidson diagonalization with overlap
     ethr =  1.43E-10,  avg # of iterations =  3.6

     total cpu time spent up to now is     4997.5 secs

     total energy              =    -351.22575887 Ry
     Harris-Foulkes estimate   =    -351.22575887 Ry
     estimated scf accuracy    <          6.9E-09 Ry

     iteration # 12     ecut=    50.00 Ry     beta=0.60
     Davidson diagonalization with overlap
     ethr =  1.86E-11,  avg # of iterations =  2.8

     total cpu time spent up to now is     5033.6 secs

     total energy              =    -351.22575887 Ry
     Harris-Foulkes estimate   =    -351.22575888 Ry
     estimated scf accuracy    <       0.00000001 Ry

     iteration # 13     ecut=    50.00 Ry     beta=0.60
     Davidson diagonalization with overlap
     ethr =  1.86E-11,  avg # of iterations =  2.4

     total cpu time spent up to now is     5066.4 secs

     total energy              =    -351.22575887 Ry
     Harris-Foulkes estimate   =    -351.22575887 Ry
     estimated scf accuracy    <          1.0E-09 Ry

     iteration # 14     ecut=    50.00 Ry     beta=0.60
     Davidson diagonalization with overlap
     ethr =  2.72E-12,  avg # of iterations =  4.1

     total cpu time spent up to now is     5108.6 secs

     total energy              =    -351.22575887 Ry
     Harris-Foulkes estimate   =    -351.22575887 Ry
     estimated scf accuracy    <          3.0E-10 Ry

     iteration # 15     ecut=    50.00 Ry     beta=0.60
     Davidson diagonalization with overlap
     ethr =  8.22E-13,  avg # of iterations =  1.5

     total cpu time spent up to now is     5139.8 secs

     End of self-consistent calculation

     Number of k-points >= 100: set verbosity='high' to print the bands.

     the Fermi energy is    14.9674 ev

!    total energy              =    -351.22575887 Ry
     Harris-Foulkes estimate   =    -351.22575887 Ry
     estimated scf accuracy    <          5.7E-11 Ry

     The total energy is the sum of the following terms:

     one-electron contribution =     -98.27854539 Ry
     hartree contribution      =      63.72235011 Ry
     xc contribution           =     -47.53230852 Ry
     ewald contribution        =    -269.13669165 Ry
     smearing contrib. (-TS)   =      -0.00056342 Ry

     convergence has been achieved in  15 iterations

     Forces acting on atoms (Ry/au):

     atom    1 type  2   force =    -0.00000000    0.00828442    0.00000000
     atom    2 type  2   force =     0.00000000   -0.00828649   -0.00000000
     atom    3 type  1   force =     0.00000000    0.00000207    0.00000000

     Total force =     0.011717     Total SCF correction =     0.000015


     entering subroutine stress ...

          total   stress  (Ry/bohr**3)                   (kbar)     P=   -1.21
   0.00002666   0.00000000  -0.00000000          3.92      0.00     -0.00
   0.00000000  -0.00007792  -0.00000000          0.00    -11.46     -0.00
   0.00000000  -0.00000000   0.00002666          0.00     -0.00      3.92


     number of scf cycles    =   5
     number of bfgs steps    =   4

     enthalpy old            =    -351.2255154326 Ry
     enthalpy new            =    -351.2257588740 Ry

     CASE: enthalpy_new < enthalpy_old


     WARNING: bfgs curvature condition failed, Theta= 0.912
     new trust radius        =       0.0141351816 bohr
     new conv_thr            =            1.0E-10 Ry

     new unit-cell volume =    352.33237 a.u.^3 (    52.21027 Ang^3 )

CELL_PARAMETERS (alat=  1.88972599)
  -1.641587821   4.843594826  -1.641587821
   1.641587821   4.843594826   1.641587821
   1.641587821  -4.843594826  -1.641587821

ATOMIC_POSITIONS (angstrom)
Ti       1.641587821   1.662470119  -1.641587821
Ti       1.641587821   4.795656575  -1.641587821
Nb       1.641587821  -1.614531868  -1.641587821


     NEW-OLD atomic charge density approx. for the potential
     extrapolated charge   37.00706, renormalised to   37.00000

     total cpu time spent up to now is     5152.6 secs

     per-process dynamical memory:   155.2 Mb

     Self-consistent Calculation

     iteration #  1     ecut=    50.00 Ry     beta=0.60
     Davidson diagonalization with overlap
     ethr =  1.00E-06,  avg # of iterations =  5.3

     total cpu time spent up to now is     5220.6 secs

     total energy              =    -351.22413963 Ry
     Harris-Foulkes estimate   =    -351.21284497 Ry
     estimated scf accuracy    <       0.00290803 Ry

     iteration #  2     ecut=    50.00 Ry     beta=0.60
     Davidson diagonalization with overlap
     ethr =  7.86E-06,  avg # of iterations =  5.3

     total cpu time spent up to now is     5274.3 secs

     total energy              =    -351.22008401 Ry
     Harris-Foulkes estimate   =    -351.23265865 Ry
     estimated scf accuracy    <       0.07169119 Ry

     iteration #  3     ecut=    50.00 Ry     beta=0.60
     Davidson diagonalization with overlap
     ethr =  7.86E-06,  avg # of iterations =  5.1

     total cpu time spent up to now is     5326.0 secs

     total energy              =    -351.22605277 Ry
     Harris-Foulkes estimate   =    -351.22609289 Ry
     estimated scf accuracy    <       0.00010000 Ry

     iteration #  4     ecut=    50.00 Ry     beta=0.60
     Davidson diagonalization with overlap
     ethr =  2.70E-07,  avg # of iterations =  3.3

     total cpu time spent up to now is     5364.2 secs

     total energy              =    -351.22607235 Ry
     Harris-Foulkes estimate   =    -351.22607247 Ry
     estimated scf accuracy    <       0.00000119 Ry

     iteration #  5     ecut=    50.00 Ry     beta=0.60
     Davidson diagonalization with overlap
     ethr =  3.22E-09,  avg # of iterations =  5.0

     total cpu time spent up to now is     5419.0 secs

     total energy              =    -351.22607397 Ry
     Harris-Foulkes estimate   =    -351.22607433 Ry
     estimated scf accuracy    <       0.00000250 Ry

     iteration #  6     ecut=    50.00 Ry     beta=0.60
     Davidson diagonalization with overlap
     ethr =  3.22E-09,  avg # of iterations =  3.5

     total cpu time spent up to now is     5456.4 secs

     total energy              =    -351.22607399 Ry
     Harris-Foulkes estimate   =    -351.22607423 Ry
     estimated scf accuracy    <       0.00000152 Ry

     iteration #  7     ecut=    50.00 Ry     beta=0.60
     Davidson diagonalization with overlap
     ethr =  3.22E-09,  avg # of iterations =  1.1

     total cpu time spent up to now is     5487.2 secs

     total energy              =    -351.22607408 Ry
     Harris-Foulkes estimate   =    -351.22607409 Ry
     estimated scf accuracy    <       0.00000007 Ry

     iteration #  8     ecut=    50.00 Ry     beta=0.60
     Davidson diagonalization with overlap
     ethr =  1.94E-10,  avg # of iterations =  4.9

     total cpu time spent up to now is     5532.3 secs

     total energy              =    -351.22607412 Ry
     Harris-Foulkes estimate   =    -351.22607413 Ry
     estimated scf accuracy    <       0.00000014 Ry

     iteration #  9     ecut=    50.00 Ry     beta=0.60
     Davidson diagonalization with overlap
     ethr =  1.94E-10,  avg # of iterations =  1.0

     total cpu time spent up to now is     5562.8 secs

     total energy              =    -351.22607412 Ry
     Harris-Foulkes estimate   =    -351.22607412 Ry
     estimated scf accuracy    <       0.00000004 Ry

     iteration # 10     ecut=    50.00 Ry     beta=0.60
     Davidson diagonalization with overlap
     ethr =  1.02E-10,  avg # of iterations =  3.6

     total cpu time spent up to now is     5600.3 secs

     total energy              =    -351.22607412 Ry
     Harris-Foulkes estimate   =    -351.22607412 Ry
     estimated scf accuracy    <          5.1E-09 Ry

     iteration # 11     ecut=    50.00 Ry     beta=0.60
     Davidson diagonalization with overlap
     ethr =  1.38E-11,  avg # of iterations =  2.1

     total cpu time spent up to now is     5632.8 secs

     total energy              =    -351.22607412 Ry
     Harris-Foulkes estimate   =    -351.22607412 Ry
     estimated scf accuracy    <          1.0E-09 Ry

     iteration # 12     ecut=    50.00 Ry     beta=0.60
     Davidson diagonalization with overlap
     ethr =  2.73E-12,  avg # of iterations =  3.9

     total cpu time spent up to now is     5671.6 secs

     End of self-consistent calculation

     Number of k-points >= 100: set verbosity='high' to print the bands.

     the Fermi energy is    14.9636 ev

!    total energy              =    -351.22607412 Ry
     Harris-Foulkes estimate   =    -351.22607412 Ry
     estimated scf accuracy    <          1.1E-11 Ry

     The total energy is the sum of the following terms:

     one-electron contribution =     -98.42241160 Ry
     hartree contribution      =      63.78969012 Ry
     xc contribution           =     -47.53379958 Ry
     ewald contribution        =    -269.05896153 Ry
     smearing contrib. (-TS)   =      -0.00059153 Ry

     convergence has been achieved in  12 iterations

     Forces acting on atoms (Ry/au):

     atom    1 type  2   force =     0.00000000    0.00603432    0.00000000
     atom    2 type  2   force =     0.00000000   -0.00603497    0.00000000
     atom    3 type  1   force =     0.00000000    0.00000065   -0.00000000

     Total force =     0.008534     Total SCF correction =     0.000006


     entering subroutine stress ...

          total   stress  (Ry/bohr**3)                   (kbar)     P=   -0.61
   0.00002845  -0.00000000   0.00000000          4.19     -0.00      0.00
  -0.00000000  -0.00006929   0.00000000         -0.00    -10.19      0.00
   0.00000000   0.00000000   0.00002845          0.00      0.00      4.19


     number of scf cycles    =   6
     number of bfgs steps    =   5

     enthalpy old            =    -351.2257588740 Ry
     enthalpy new            =    -351.2260741243 Ry

     CASE: enthalpy_new < enthalpy_old

     new trust radius        =       0.0211368327 bohr
     new conv_thr            =            1.0E-10 Ry

     new unit-cell volume =    352.60205 a.u.^3 (    52.25023 Ang^3 )

CELL_PARAMETERS (alat=  1.88972599)
  -1.646458994   4.818662388  -1.646458994
   1.646458994   4.818662388   1.646458994
   1.646458994  -4.818662388  -1.646458994

ATOMIC_POSITIONS (angstrom)
Ti       1.646458994   1.665038245  -1.646458994
Ti       1.646458994   4.759843345  -1.646458994
Nb       1.646458994  -1.606219202  -1.646458994


     NEW-OLD atomic charge density approx. for the potential
     extrapolated charge   37.02677, renormalised to   37.00000

     total cpu time spent up to now is     5684.5 secs

     per-process dynamical memory:   155.2 Mb

     Self-consistent Calculation

     iteration #  1     ecut=    50.00 Ry     beta=0.60
     Davidson diagonalization with overlap
     ethr =  1.00E-06,  avg # of iterations =  6.6

     total cpu time spent up to now is     5759.8 secs

     total energy              =    -351.22170521 Ry
     Harris-Foulkes estimate   =    -351.17565521 Ry
     estimated scf accuracy    <       0.00693334 Ry

     iteration #  2     ecut=    50.00 Ry     beta=0.60
     Davidson diagonalization with overlap
     ethr =  1.87E-05,  avg # of iterations =  5.3

     total cpu time spent up to now is     5814.5 secs

     total energy              =    -351.21248569 Ry
     Harris-Foulkes estimate   =    -351.24239409 Ry
     estimated scf accuracy    <       0.16974985 Ry

     iteration #  3     ecut=    50.00 Ry     beta=0.60
     Davidson diagonalization with overlap
     ethr =  1.87E-05,  avg # of iterations =  5.1

     total cpu time spent up to now is     5866.7 secs

     total energy              =    -351.22639197 Ry
     Harris-Foulkes estimate   =    -351.22645551 Ry
     estimated scf accuracy    <       0.00013430 Ry

     iteration #  4     ecut=    50.00 Ry     beta=0.60
     Davidson diagonalization with overlap
     ethr =  3.63E-07,  avg # of iterations =  3.0

     total cpu time spent up to now is     5905.7 secs

     total energy              =    -351.22642786 Ry
     Harris-Foulkes estimate   =    -351.22642900 Ry
     estimated scf accuracy    <       0.00000403 Ry

     iteration #  5     ecut=    50.00 Ry     beta=0.60
     Davidson diagonalization with overlap
     ethr =  1.09E-08,  avg # of iterations =  4.6

     total cpu time spent up to now is     5955.9 secs

     total energy              =    -351.22642866 Ry
     Harris-Foulkes estimate   =    -351.22643109 Ry
     estimated scf accuracy    <       0.00001226 Ry

     iteration #  6     ecut=    50.00 Ry     beta=0.60
     Davidson diagonalization with overlap
     ethr =  1.09E-08,  avg # of iterations =  4.0

     total cpu time spent up to now is     5996.4 secs

     total energy              =    -351.22642957 Ry
     Harris-Foulkes estimate   =    -351.22643063 Ry
     estimated scf accuracy    <       0.00000695 Ry

     iteration #  7     ecut=    50.00 Ry     beta=0.60
     Davidson diagonalization with overlap
     ethr =  1.09E-08,  avg # of iterations =  1.4

     total cpu time spent up to now is     6027.6 secs

     total energy              =    -351.22642980 Ry
     Harris-Foulkes estimate   =    -351.22642994 Ry
     estimated scf accuracy    <       0.00000066 Ry

     iteration #  8     ecut=    50.00 Ry     beta=0.60
     Davidson diagonalization with overlap
     ethr =  1.77E-09,  avg # of iterations =  4.2

     total cpu time spent up to now is     6070.1 secs

     total energy              =    -351.22643004 Ry
     Harris-Foulkes estimate   =    -351.22643009 Ry
     estimated scf accuracy    <       0.00000074 Ry

     iteration #  9     ecut=    50.00 Ry     beta=0.60
     Davidson diagonalization with overlap
     ethr =  1.77E-09,  avg # of iterations =  1.0

     total cpu time spent up to now is     6100.7 secs

     total energy              =    -351.22643001 Ry
     Harris-Foulkes estimate   =    -351.22643005 Ry
     estimated scf accuracy    <       0.00000035 Ry

     iteration # 10     ecut=    50.00 Ry     beta=0.60
     Davidson diagonalization with overlap
     ethr =  9.42E-10,  avg # of iterations =  2.6

     total cpu time spent up to now is     6134.8 secs

     total energy              =    -351.22643003 Ry
     Harris-Foulkes estimate   =    -351.22643003 Ry
     estimated scf accuracy    <          3.4E-09 Ry

     iteration # 11     ecut=    50.00 Ry     beta=0.60
     Davidson diagonalization with overlap
     ethr =  9.11E-12,  avg # of iterations =  5.6

     total cpu time spent up to now is     6183.2 secs

     total energy              =    -351.22643003 Ry
     Harris-Foulkes estimate   =    -351.22643003 Ry
     estimated scf accuracy    <          2.9E-09 Ry

     iteration # 12     ecut=    50.00 Ry     beta=0.60
     Davidson diagonalization with overlap
     ethr =  7.91E-12,  avg # of iterations =  1.0

     total cpu time spent up to now is     6213.8 secs

     total energy              =    -351.22643003 Ry
     Harris-Foulkes estimate   =    -351.22643003 Ry
     estimated scf accuracy    <          3.8E-10 Ry

     iteration # 13     ecut=    50.00 Ry     beta=0.60
     Davidson diagonalization with overlap
     ethr =  1.03E-12,  avg # of iterations =  4.0

     total cpu time spent up to now is     6255.1 secs

     End of self-consistent calculation

     Number of k-points >= 100: set verbosity='high' to print the bands.

     the Fermi energy is    14.9505 ev

!    total energy              =    -351.22643003 Ry
     Harris-Foulkes estimate   =    -351.22643003 Ry
     estimated scf accuracy    <          4.7E-11 Ry

     The total energy is the sum of the following terms:

     one-electron contribution =     -98.71884597 Ry
     hartree contribution      =      63.91880476 Ry
     xc contribution           =     -47.53497613 Ry
     ewald contribution        =    -268.89076283 Ry
     smearing contrib. (-TS)   =      -0.00064986 Ry

     convergence has been achieved in  13 iterations

     Forces acting on atoms (Ry/au):

     atom    1 type  2   force =     0.00000000    0.00259437   -0.00000000
     atom    2 type  2   force =     0.00000000   -0.00259395    0.00000000
     atom    3 type  1   force =    -0.00000000   -0.00000042    0.00000000

     Total force =     0.003669     Total SCF correction =     0.000019


     entering subroutine stress ...

          total   stress  (Ry/bohr**3)                   (kbar)     P=   -0.11
   0.00002741  -0.00000000  -0.00000000          4.03     -0.00     -0.00
   0.00000000  -0.00005705   0.00000000          0.00     -8.39      0.00
   0.00000000   0.00000000   0.00002741          0.00      0.00      4.03


     number of scf cycles    =   7
     number of bfgs steps    =   6

     enthalpy old            =    -351.2260741243 Ry
     enthalpy new            =    -351.2264300344 Ry

     CASE: enthalpy_new < enthalpy_old

     new trust radius        =       0.0315420461 bohr
     new conv_thr            =            1.0E-10 Ry

     new unit-cell volume =    353.09119 a.u.^3 (    52.32272 Ang^3 )

CELL_PARAMETERS (alat=  1.88972599)
  -1.654563423   4.778191387  -1.654563423
   1.654563423   4.778191387   1.654563423
   1.654563423  -4.778191387  -1.654563423

ATOMIC_POSITIONS (angstrom)
Ti       1.654563423   1.666293664  -1.654563423
Ti       1.654563423   4.704624679  -1.654563423
Nb       1.654563423  -1.592726957  -1.654563423


     NEW-OLD atomic charge density approx. for the potential
     extrapolated charge   37.04848, renormalised to   37.00000

     total cpu time spent up to now is     6268.0 secs

     per-process dynamical memory:   148.2 Mb

     Self-consistent Calculation

     iteration #  1     ecut=    50.00 Ry     beta=0.60
     Davidson diagonalization with overlap
     c_bands:  1 eigenvalues not converged
     c_bands:  1 eigenvalues not converged
     ethr =  1.00E-06,  avg # of iterations =  8.2

     total cpu time spent up to now is     6349.6 secs

     total energy              =    -351.21771767 Ry
     Harris-Foulkes estimate   =    -351.13422015 Ry
     estimated scf accuracy    <       0.01300368 Ry

     iteration #  2     ecut=    50.00 Ry     beta=0.60
     Davidson diagonalization with overlap
     ethr =  3.51E-05,  avg # of iterations =  5.3

     total cpu time spent up to now is     6404.8 secs

     total energy              =    -351.20147247 Ry
     Harris-Foulkes estimate   =    -351.25607833 Ry
     estimated scf accuracy    <       0.30542267 Ry

     iteration #  3     ecut=    50.00 Ry     beta=0.60
     Davidson diagonalization with overlap
     ethr =  3.51E-05,  avg # of iterations =  5.0

     total cpu time spent up to now is     6456.9 secs

     total energy              =    -351.22659301 Ry
     Harris-Foulkes estimate   =    -351.22671511 Ry
     estimated scf accuracy    <       0.00027252 Ry

     iteration #  4     ecut=    50.00 Ry     beta=0.60
     Davidson diagonalization with overlap
     ethr =  7.37E-07,  avg # of iterations =  2.9

     total cpu time spent up to now is     6496.1 secs

     total energy              =    -351.22666023 Ry
     Harris-Foulkes estimate   =    -351.22666739 Ry
     estimated scf accuracy    <       0.00002393 Ry

     iteration #  5     ecut=    50.00 Ry     beta=0.60
     Davidson diagonalization with overlap
     ethr =  6.47E-08,  avg # of iterations =  4.6

     total cpu time spent up to now is     6541.4 secs

     total energy              =    -351.22665703 Ry
     Harris-Foulkes estimate   =    -351.22667618 Ry
     estimated scf accuracy    <       0.00013069 Ry

     iteration #  6     ecut=    50.00 Ry     beta=0.60
     Davidson diagonalization with overlap
     ethr =  6.47E-08,  avg # of iterations =  4.0

[...]


     entering subroutine stress ...

          total   stress  (Ry/bohr**3)                   (kbar)     P=   -0.00
  -0.00000002   0.00000000  -0.00000000         -0.00      0.00     -0.00
   0.00000000   0.00000001  -0.00000000          0.00      0.00     -0.00
   0.00000000  -0.00000000  -0.00000002          0.00     -0.00     -0.00


     bfgs converged in  22 scf cycles and  20 bfgs steps
     (criteria: energy <  1.0E-10, force <  1.0E-05, cell <  1.0E-03)

     End of BFGS Geometry Optimization

     Final enthalpy =    -351.2272916833 Ry
Begin final coordinates
     new unit-cell volume =    353.29339 a.u.^3 (    52.35268 Ang^3 )

CELL_PARAMETERS (alat=  1.88972599)
  -1.709516638   4.478497658  -1.709516638
   1.709516638   4.478497658   1.709516638
   1.709516638  -4.478497658  -1.709516638

ATOMIC_POSITIONS (angstrom)
Ti       1.709516638   1.543505527  -1.709516638
Ti       1.709516638   4.427842335  -1.709516638
Nb       1.709516638  -1.492850204  -1.709516638
End final coordinates



     A final scf calculation at the relaxed structure.
     The G-vectors are recalculated for the final unit cell
     Results may differ from those at the preceding step.

   Info: using nr1, nr2, nr3 values from input

   Info: using nr1, nr2, nr3 values from input

     Parallelization info
     --------------------
     sticks:   dense  smooth     PW     G-vecs:    dense   smooth      PW
     Min         771     306    109                16672     4224     899
     Max         772     308    110                16673     4225     900
     Sum        3085    1227    439                66689    16899    3599



     bravais-lattice index     =            0
     lattice parameter (alat)  =       1.8897  a.u.
     unit-cell volume          =     353.2934 (a.u.)^3
     number of atoms/cell      =            3
     number of atomic types    =            2
     number of electrons       =        37.00
     number of Kohn-Sham states=           23
     kinetic-energy cutoff     =      50.0000  Ry
     charge density cutoff     =     500.0000  Ry
     convergence threshold     =      1.0E-12
     mixing beta               =       0.6000
     number of iterations used =            8  plain     mixing
     Exchange-correlation      = SLA  PW   PBE  PBE ( 1  4  3  4 0 0)

     celldm(1)=   1.889726  celldm(2)=   0.000000  celldm(3)=   0.000000
     celldm(4)=   0.000000  celldm(5)=   0.000000  celldm(6)=   0.000000

     crystal axes: (cart. coord. in units of alat)
               a(1) = (  -1.709517   4.478498  -1.709517 )  
               a(2) = (   1.709517   4.478498   1.709517 )  
               a(3) = (   1.709517  -4.478498  -1.709517 )  

     reciprocal axes: (cart. coord. in units 2 pi/alat)
               b(1) = ( -0.000000  0.111645 -0.292480 )  
               b(2) = (  0.292480  0.111645  0.000000 )  
               b(3) = (  0.292480 -0.000000 -0.292480 )  


     PseudoPot. # 1 for Nb read from file:
     ./Nb.pbe-nsp-van.UPF
     MD5 check sum: 0a22fc7fb0ba19a08ca5db297a5d2854
     Pseudo is Ultrasoft + core correction, Zval = 13.0
     Generated by new atomic code, or converted to UPF format
     Using radial grid of  887 points,  6 beta functions with: 
                l(1) =   0
                l(2) =   0
                l(3) =   1
                l(4) =   1
                l(5) =   2
                l(6) =   2
     Q(r) pseudized with  6 coefficients,  rinner =    1.000   1.000   1.000
                                                       1.000   1.000

     PseudoPot. # 2 for Ti read from file:
     ./Ti.pbe-sp-van_ak.UPF
     MD5 check sum: f98fea3e8887528921fefa5636a534ca
     Pseudo is Ultrasoft, Zval = 12.0
     Generated by new atomic code, or converted to UPF format
     Using radial grid of  851 points,  6 beta functions with: 
                l(1) =   0
                l(2) =   0
                l(3) =   1
                l(4) =   1
                l(5) =   2
                l(6) =   2
     Q(r) pseudized with  8 coefficients,  rinner =    1.000   1.000   1.000
                                                       1.000   1.000

     atomic species   valence    mass     pseudopotential
        Nb            13.00    92.90638     Nb( 1.00)
        Ti            12.00    47.86700     Ti( 1.00)

      8 Sym. Ops. (no inversion) found
          (note:  8 additional sym.ops. were found but ignored
           their fractional translations are incommensurate with FFT grid)


   Cartesian axes

     site n.     atom                  positions (alat units)
         1           Ti  tau(   1) = (   1.7095168   1.5435056  -1.7095168  )
         2           Ti  tau(   2) = (   1.7095168   4.4278427  -1.7095168  )
         3           Nb  tau(   3) = (   1.7095168  -1.4928503  -1.7095168  )

     number of k points=   244  Marzari-Vanderbilt smearing, width (Ry)=  0.0200

     Number of k-points >= 100: set verbosity='high' to print them.

     Dense  grid:    66689 G-vectors     FFT dimensions: (  80,  80,  80)

     Smooth grid:    16899 G-vectors     FFT dimensions: (  50,  50,  50)

     Estimated max dynamical RAM per process >      63.13Mb

     Estimated total allocated dynamical RAM >     252.52Mb

     Initial potential from superposition of free atoms

     starting charge   34.99718, renormalised to   37.00000
     Starting wfc are   33 randomized atomic wfcs

     total cpu time spent up to now is    14689.5 secs

     per-process dynamical memory:   137.7 Mb

     Self-consistent Calculation

     iteration #  1     ecut=    50.00 Ry     beta=0.60
     Davidson diagonalization with overlap
     c_bands:  1 eigenvalues not converged
     c_bands:  1 eigenvalues not converged
     c_bands:  1 eigenvalues not converged
     c_bands:  1 eigenvalues not converged
     c_bands:  1 eigenvalues not converged
     c_bands:  2 eigenvalues not converged
     c_bands:  2 eigenvalues not converged
     c_bands:  1 eigenvalues not converged
     c_bands:  1 eigenvalues not converged
     c_bands:  2 eigenvalues not converged
     c_bands:  1 eigenvalues not converged
     c_bands:  1 eigenvalues not converged
     c_bands:  1 eigenvalues not converged
     c_bands:  2 eigenvalues not converged
     c_bands:  1 eigenvalues not converged
     c_bands:  1 eigenvalues not converged
     c_bands:  1 eigenvalues not converged
     c_bands:  2 eigenvalues not converged
     c_bands:  1 eigenvalues not converged
     c_bands:  1 eigenvalues not converged
     c_bands:  1 eigenvalues not converged
     c_bands:  1 eigenvalues not converged
     c_bands:  1 eigenvalues not converged
     c_bands:  1 eigenvalues not converged
     c_bands:  1 eigenvalues not converged
     c_bands:  1 eigenvalues not converged
     c_bands:  1 eigenvalues not converged
     c_bands:  1 eigenvalues not converged
     c_bands:  1 eigenvalues not converged
     c_bands:  1 eigenvalues not converged
     c_bands:  1 eigenvalues not converged
     c_bands:  1 eigenvalues not converged
     c_bands:  1 eigenvalues not converged
     c_bands:  1 eigenvalues not converged
     c_bands:  1 eigenvalues not converged
     c_bands:  2 eigenvalues not converged
     c_bands:  2 eigenvalues not converged
     c_bands:  1 eigenvalues not converged
     c_bands:  1 eigenvalues not converged
     c_bands:  1 eigenvalues not converged
     c_bands:  1 eigenvalues not converged
     c_bands:  1 eigenvalues not converged
     c_bands:  1 eigenvalues not converged
     c_bands:  1 eigenvalues not converged
     c_bands:  2 eigenvalues not converged
     c_bands:  1 eigenvalues not converged
     c_bands:  1 eigenvalues not converged
     c_bands:  1 eigenvalues not converged
     c_bands:  1 eigenvalues not converged
     c_bands:  1 eigenvalues not converged
     c_bands:  1 eigenvalues not converged
     c_bands:  1 eigenvalues not converged
     c_bands:  1 eigenvalues not converged
     c_bands:  1 eigenvalues not converged
     c_bands:  1 eigenvalues not converged
     c_bands:  1 eigenvalues not converged
     c_bands:  1 eigenvalues not converged
     c_bands:  1 eigenvalues not converged
     c_bands:  1 eigenvalues not converged
     c_bands:  1 eigenvalues not converged
     c_bands:  1 eigenvalues not converged
     c_bands:  1 eigenvalues not converged
     c_bands:  1 eigenvalues not converged
     c_bands:  1 eigenvalues not converged
     c_bands:  2 eigenvalues not converged
     c_bands:  1 eigenvalues not converged
     c_bands:  2 eigenvalues not converged
     c_bands:  2 eigenvalues not converged
     c_bands:  2 eigenvalues not converged
     c_bands:  1 eigenvalues not converged
     c_bands:  1 eigenvalues not converged
     c_bands:  1 eigenvalues not converged
     c_bands:  1 eigenvalues not converged
     c_bands:  1 eigenvalues not converged
     c_bands:  1 eigenvalues not converged
     c_bands:  1 eigenvalues not converged
     c_bands:  1 eigenvalues not converged
     c_bands:  2 eigenvalues not converged
     c_bands:  1 eigenvalues not converged
     c_bands:  1 eigenvalues not converged
     c_bands:  1 eigenvalues not converged
     c_bands:  1 eigenvalues not converged
     c_bands:  2 eigenvalues not converged
     c_bands:  1 eigenvalues not converged
     c_bands:  1 eigenvalues not converged
     ethr =  1.00E-06,  avg # of iterations = 14.9

     total cpu time spent up to now is    14792.8 secs

     total energy              =    -349.67322602 Ry
     Harris-Foulkes estimate   =    -351.99584083 Ry
     estimated scf accuracy    <       3.04633092 Ry

     iteration #  2     ecut=    50.00 Ry     beta=0.60
     Davidson diagonalization with overlap
     ethr =  8.23E-03,  avg # of iterations =  4.6

     total cpu time spent up to now is    14839.4 secs

     total energy              =    -349.00652007 Ry
     Harris-Foulkes estimate   =    -354.36048366 Ry
     estimated scf accuracy    <      18.37356233 Ry

     iteration #  3     ecut=    50.00 Ry     beta=0.60
     Davidson diagonalization with overlap
     ethr =  8.23E-03,  avg # of iterations =  4.8

     total cpu time spent up to now is    14881.4 secs

     total energy              =    -351.16666997 Ry
     Harris-Foulkes estimate   =    -351.26071685 Ry
     estimated scf accuracy    <       0.34442463 Ry

     iteration #  4     ecut=    50.00 Ry     beta=0.60
     Davidson diagonalization with overlap
     ethr =  9.31E-04,  avg # of iterations =  4.5

     total cpu time spent up to now is    14918.8 secs

     total energy              =    -351.22029237 Ry
     Harris-Foulkes estimate   =    -351.22795601 Ry
     estimated scf accuracy    <       0.01772526 Ry

     iteration #  5     ecut=    50.00 Ry     beta=0.60
     Davidson diagonalization with overlap
     ethr =  4.79E-05,  avg # of iterations =  6.5

     total cpu time spent up to now is    14970.2 secs

     total energy              =    -351.22611797 Ry
     Harris-Foulkes estimate   =    -351.22730904 Ry
     estimated scf accuracy    <       0.00306503 Ry

     iteration #  6     ecut=    50.00 Ry     beta=0.60
     Davidson diagonalization with overlap
     ethr =  8.28E-06,  avg # of iterations =  4.6

     total cpu time spent up to now is    15010.7 secs

     total energy              =    -351.22654826 Ry
     Harris-Foulkes estimate   =    -351.22740795 Ry
     estimated scf accuracy    <       0.00338807 Ry

     iteration #  7     ecut=    50.00 Ry     beta=0.60
     Davidson diagonalization with overlap
     ethr =  8.28E-06,  avg # of iterations =  2.6

     total cpu time spent up to now is    15042.9 secs

     total energy              =    -351.22677439 Ry
     Harris-Foulkes estimate   =    -351.22692696 Ry
     estimated scf accuracy    <       0.00079199 Ry

     iteration #  8     ecut=    50.00 Ry     beta=0.60
     Davidson diagonalization with overlap
     ethr =  2.14E-06,  avg # of iterations =  3.8

     total cpu time spent up to now is    15078.8 secs

     total energy              =    -351.22687697 Ry
     Harris-Foulkes estimate   =    -351.22691983 Ry
     estimated scf accuracy    <       0.00019238 Ry

     iteration #  9     ecut=    50.00 Ry     beta=0.60
     Davidson diagonalization with overlap
     ethr =  5.20E-07,  avg # of iterations =  2.5

     total cpu time spent up to now is    15109.9 secs

     total energy              =    -351.22688873 Ry
     Harris-Foulkes estimate   =    -351.22689414 Ry
     estimated scf accuracy    <       0.00001560 Ry

     iteration # 10     ecut=    50.00 Ry     beta=0.60
     Davidson diagonalization with overlap
     ethr =  4.22E-08,  avg # of iterations =  4.3

     total cpu time spent up to now is    15150.5 secs

     total energy              =    -351.22689429 Ry
     Harris-Foulkes estimate   =    -351.22689469 Ry
     estimated scf accuracy    <       0.00000201 Ry

     iteration # 11     ecut=    50.00 Ry     beta=0.60
     Davidson diagonalization with overlap
     c_bands:  1 eigenvalues not converged
     ethr =  5.43E-09,  avg # of iterations =  2.5

     total cpu time spent up to now is    15181.4 secs

     total energy              =    -351.22689443 Ry
     Harris-Foulkes estimate   =    -351.22689449 Ry
     estimated scf accuracy    <       0.00000022 Ry

     iteration # 12     ecut=    50.00 Ry     beta=0.60
     Davidson diagonalization with overlap
     ethr =  5.97E-10,  avg # of iterations =  4.5

     total cpu time spent up to now is    15222.7 secs

     total energy              =    -351.22689451 Ry
     Harris-Foulkes estimate   =    -351.22689453 Ry
     estimated scf accuracy    <       0.00000005 Ry

     iteration # 13     ecut=    50.00 Ry     beta=0.60
     Davidson diagonalization with overlap
     ethr =  1.27E-10,  avg # of iterations =  3.8

     total cpu time spent up to now is    15259.2 secs

     total energy              =    -351.22689452 Ry
     Harris-Foulkes estimate   =    -351.22689453 Ry
     estimated scf accuracy    <       0.00000001 Ry

     iteration # 14     ecut=    50.00 Ry     beta=0.60
     Davidson diagonalization with overlap
     ethr =  3.41E-11,  avg # of iterations =  2.4

     total cpu time spent up to now is    15290.1 secs

     total energy              =    -351.22689452 Ry
     Harris-Foulkes estimate   =    -351.22689452 Ry
     estimated scf accuracy    <          7.2E-10 Ry

     iteration # 15     ecut=    50.00 Ry     beta=0.60
     Davidson diagonalization with overlap
     ethr =  1.95E-12,  avg # of iterations =  4.5

     total cpu time spent up to now is    15335.5 secs

     total energy              =    -351.22689453 Ry
     Harris-Foulkes estimate   =    -351.22689453 Ry
     estimated scf accuracy    <          5.8E-10 Ry

     iteration # 16     ecut=    50.00 Ry     beta=0.60
     Davidson diagonalization with overlap
     ethr =  1.57E-12,  avg # of iterations =  1.0

     total cpu time spent up to now is    15363.9 secs

     total energy              =    -351.22689453 Ry
     Harris-Foulkes estimate   =    -351.22689453 Ry
     estimated scf accuracy    <          1.2E-10 Ry

     iteration # 17     ecut=    50.00 Ry     beta=0.60
     Davidson diagonalization with overlap
     ethr =  3.36E-13,  avg # of iterations =  3.7

     total cpu time spent up to now is    15400.6 secs

     total energy              =    -351.22689453 Ry
     Harris-Foulkes estimate   =    -351.22689453 Ry
     estimated scf accuracy    <          1.1E-11 Ry

     iteration # 18     ecut=    50.00 Ry     beta=0.60
     Davidson diagonalization with overlap
     ethr =  1.00E-13,  avg # of iterations =  1.0

     total cpu time spent up to now is    15429.0 secs

     total energy              =    -351.22689453 Ry
     Harris-Foulkes estimate   =    -351.22689453 Ry
     estimated scf accuracy    <          1.7E-12 Ry

     iteration # 19     ecut=    50.00 Ry     beta=0.60
     Davidson diagonalization with overlap
     ethr =  1.00E-13,  avg # of iterations =  1.0

     total cpu time spent up to now is    15457.4 secs

     End of self-consistent calculation

     Number of k-points >= 100: set verbosity='high' to print the bands.

     the Fermi energy is    14.9710 ev

!    total energy              =    -351.22689453 Ry
     Harris-Foulkes estimate   =    -351.22689453 Ry
     estimated scf accuracy    <          2.7E-13 Ry

     The total energy is the sum of the following terms:

     one-electron contribution =     -98.99369748 Ry
     hartree contribution      =      63.99520055 Ry
     xc contribution           =     -47.52902964 Ry
     ewald contribution        =    -268.69785502 Ry
     smearing contrib. (-TS)   =      -0.00151294 Ry

     convergence has been achieved in  19 iterations

     Forces acting on atoms (Ry/au):

     atom    1 type  2   force =     0.00000000   -0.00000760   -0.00000000
     atom    2 type  2   force =    -0.00000000    0.00000281    0.00000000
     atom    3 type  1   force =    -0.00000000    0.00000478    0.00000000

     Total force =     0.000009     Total SCF correction =     0.000001


     entering subroutine stress ...

          total   stress  (Ry/bohr**3)                   (kbar)     P=   -0.47
  -0.00000424   0.00000000   0.00000000         -0.62      0.00      0.00
   0.00000000  -0.00000120  -0.00000000          0.00     -0.18     -0.00
   0.00000000  -0.00000000  -0.00000424          0.00     -0.00     -0.62


     init_run     :     32.69s CPU     33.49s WALL (       2 calls)
     electrons    :  14759.44s CPU  15144.78s WALL (      23 calls)
     update_pot   :     48.04s CPU     48.50s WALL (      21 calls)
     forces       :     74.34s CPU     76.35s WALL (      23 calls)
     stress       :    149.87s CPU    154.24s WALL (      23 calls)

     Called by init_run:
     wfcinit      :     29.48s CPU     30.20s WALL (       2 calls)
     potinit      :      1.06s CPU      1.08s WALL (       2 calls)

     Called by electrons:
     c_bands      :  11998.82s CPU  12284.78s WALL (     379 calls)
     sum_band     :   2611.27s CPU   2689.44s WALL (     379 calls)
     v_of_rho     :     67.18s CPU     71.47s WALL (     396 calls)
     newd         :     73.10s CPU     90.16s WALL (     396 calls)
     mix_rho      :      9.66s CPU     10.15s WALL (     379 calls)

     Called by c_bands:
     init_us_2    :    123.73s CPU    126.21s WALL (  196664 calls)
     cegterg      :  11774.30s CPU  12056.15s WALL (   92476 calls)

     Called by sum_band:
     sum_band:bec :      5.23s CPU      5.37s WALL (   92476 calls)
     addusdens    :     74.47s CPU     95.67s WALL (     379 calls)

     Called by *egterg:
     h_psi        :   9628.61s CPU   9880.83s WALL (  395316 calls)
     s_psi        :    329.73s CPU    333.53s WALL (  395316 calls)
     g_psi        :     17.04s CPU     17.25s WALL (  302352 calls)
     cdiaghg      :    498.23s CPU    505.03s WALL (  388240 calls)

     Called by h_psi:
     h_psi:pot    :   9579.86s CPU   9830.65s WALL (  395316 calls)
     h_psi:calbec :    559.36s CPU    574.21s WALL (  395316 calls)
     vloc_psi     :   8677.99s CPU   8907.63s WALL (  395316 calls)
     add_vuspsi   :    340.11s CPU    346.80s WALL (  395316 calls)

     General routines
     calbec       :    789.71s CPU    810.00s WALL (  515852 calls)
     fft          :     61.75s CPU     66.94s WALL (    6864 calls)
     ffts         :      0.91s CPU      0.93s WALL (     775 calls)
     fftw         :   6616.90s CPU   6781.30s WALL (13281274 calls)
     interpolate  :      9.90s CPU     10.78s WALL (     775 calls)

     Parallel routines
     fft_scatter  :   1230.65s CPU   1269.78s WALL (13288913 calls)

     PWSCF        :     4h11m CPU        4h17m WALL


   This run was terminated on:  15: 3:17  27Apr2018            

=------------------------------------------------------------------------------=
   JOB DONE.
=------------------------------------------------------------------------------=
