
     Program PWSCF v.6.3MaX starts on 14Jan2020 at  3:51:24 

     This program is part of the open-source Quantum ESPRESSO suite
     for quantum simulation of materials; please cite
         "P. Giannozzi et al., J. Phys.:Condens. Matter 21 395502 (2009);
         "P. Giannozzi et al., J. Phys.:Condens. Matter 29 465901 (2017);
          URL http://www.quantum-espresso.org", 
     in publications or presentations arising from this work. More details at
     http://www.quantum-espresso.org/quote

     Parallel version (MPI), running on     1 processors

     MPI processes distributed on     1 nodes
     Waiting for input...
     Reading input from standard input

     Current dimensions of program PWSCF are:
     Max number of different atomic species (ntypx) = 10
     Max number of k-points (npk) =  40000
     Max angular momentum in pseudopotentials (lmaxx) =  3
     Message from routine iosys:
     minimal I/O required, wf_collect reset to FALSE

     Subspace diagonalization in iterative solution of the eigenvalue problem:
     a serial algorithm will be used

 
     G-vector sticks info
     --------------------
     sticks:   dense  smooth     PW     G-vecs:    dense   smooth      PW
     Sum        3049    1213    361               110947    27941    4573
 


     bravais-lattice index     =            0
     lattice parameter (alat)  =       1.8897  a.u.
     unit-cell volume          =     586.6735 (a.u.)^3
     number of atoms/cell      =            4
     number of atomic types    =            2
     number of electrons       =        50.00
     number of Kohn-Sham states=           30
     kinetic-energy cutoff     =      50.0000  Ry
     charge density cutoff     =     500.0000  Ry
     convergence threshold     =      1.0E-10
     mixing beta               =       0.6000
     number of iterations used =            8  plain     mixing
     Exchange-correlation      = SLA PW PBE PBE ( 1  4  3  4 0 0)
     nstep                     =           50


     celldm(1)=   1.889726  celldm(2)=   0.000000  celldm(3)=   0.000000
     celldm(4)=   0.000000  celldm(5)=   0.000000  celldm(6)=   0.000000

     crystal axes: (cart. coord. in units of alat)
               a(1) = (   0.000000   3.516063   3.516063 )  
               a(2) = (   3.516063   0.000000   3.516063 )  
               a(3) = (   3.516063   3.516063   0.000000 )  

     reciprocal axes: (cart. coord. in units 2 pi/alat)
               b(1) = ( -0.142205  0.142205  0.142205 )  
               b(2) = (  0.142205 -0.142205  0.142205 )  
               b(3) = (  0.142205  0.142205 -0.142205 )  


     PseudoPot. # 1 for Nb read from file:
     /home/u16/abhishekkt/fp/krishna/calculations/pseudopotentials/Nb.pbe-nsp-van.UPF
     MD5 check sum: c44c1a86bf31974e1e832c2ec821fd5f
     Pseudo is Ultrasoft + core correction, Zval = 13.0
     Generated by new atomic code, or converted to UPF format
     Using radial grid of  887 points,  6 beta functions with: 
                l(1) =   0
                l(2) =   0
                l(3) =   1
                l(4) =   1
                l(5) =   2
                l(6) =   2
     Q(r) pseudized with  6 coefficients,  rinner =    1.000   1.000   1.000
                                                       1.000   1.000

     PseudoPot. # 2 for Ti read from file:
     /home/u16/abhishekkt/fp/krishna/calculations/pseudopotentials/Ti.pbe-sp-van_ak.UPF
     MD5 check sum: 84d3ec9e8983e94242673103c800fb48
     Pseudo is Ultrasoft, Zval = 12.0
     Generated by new atomic code, or converted to UPF format
     Using radial grid of  851 points,  6 beta functions with: 
                l(1) =   0
                l(2) =   0
                l(3) =   1
                l(4) =   1
                l(5) =   2
                l(6) =   2
     Q(r) pseudized with  8 coefficients,  rinner =    1.000   1.000   1.000
                                                       1.000   1.000

     atomic species   valence    mass     pseudopotential
        Nb            13.00    92.90638     Nb( 1.00)
        Ti            12.00    47.86700     Ti( 1.00)

     48 Sym. Ops., with inversion, found (24 have fractional translation)



   Cartesian axes

     site n.     atom                  positions (alat units)
         1           Ti  tau(   1) = (   1.7580316   1.7580316   1.7580316  )
         2           Ti  tau(   2) = (   3.5160633   3.5160633   3.5160633  )
         3           Nb  tau(   3) = (   5.2740949   5.2740949   5.2740949  )
         4           Nb  tau(   4) = (   7.0321265   7.0321265   7.0321265  )

     number of k points=    84  Marzari-Vanderbilt smearing, width (Ry)=  0.0200
                       cart. coord. in units 2pi/alat
        k(    1) = (   0.0000000   0.0000000   0.0000000), wk =   0.0009103
        k(    2) = (   0.0109388   0.0109388  -0.0109388), wk =   0.0072827
        k(    3) = (   0.0218776   0.0218776  -0.0218776), wk =   0.0072827
        k(    4) = (   0.0328164   0.0328164  -0.0328164), wk =   0.0072827
        k(    5) = (   0.0437552   0.0437552  -0.0437552), wk =   0.0072827
        k(    6) = (   0.0546940   0.0546940  -0.0546940), wk =   0.0072827
        k(    7) = (   0.0656328   0.0656328  -0.0656328), wk =   0.0072827
        k(    8) = (   0.0218776   0.0000000   0.0000000), wk =   0.0054620
        k(    9) = (   0.0328164   0.0109388  -0.0109388), wk =   0.0218480
        k(   10) = (   0.0437552   0.0218776  -0.0218776), wk =   0.0218480
        k(   11) = (   0.0546940   0.0328164  -0.0328164), wk =   0.0218480
        k(   12) = (   0.0656328   0.0437552  -0.0437552), wk =   0.0218480
        k(   13) = (   0.0765717   0.0546940  -0.0546940), wk =   0.0218480
        k(   14) = (  -0.0546940  -0.0765717   0.0765717), wk =   0.0218480
        k(   15) = (  -0.0437552  -0.0656328   0.0656328), wk =   0.0218480
        k(   16) = (  -0.0328164  -0.0546940   0.0546940), wk =   0.0218480
        k(   17) = (  -0.0218776  -0.0437552   0.0437552), wk =   0.0218480
        k(   18) = (  -0.0109388  -0.0328164   0.0328164), wk =   0.0218480
        k(   19) = (   0.0000000  -0.0218776   0.0218776), wk =   0.0109240
        k(   20) = (   0.0437552   0.0000000   0.0000000), wk =   0.0054620
        k(   21) = (   0.0546940   0.0109388  -0.0109388), wk =   0.0218480
        k(   22) = (   0.0656328   0.0218776  -0.0218776), wk =   0.0218480
        k(   23) = (   0.0765717   0.0328164  -0.0328164), wk =   0.0218480
        k(   24) = (   0.0875105   0.0437552  -0.0437552), wk =   0.0218480
        k(   25) = (  -0.0437552  -0.0875105   0.0875105), wk =   0.0218480
        k(   26) = (  -0.0328164  -0.0765717   0.0765717), wk =   0.0218480
        k(   27) = (  -0.0218776  -0.0656328   0.0656328), wk =   0.0218480
        k(   28) = (  -0.0109388  -0.0546940   0.0546940), wk =   0.0218480
        k(   29) = (   0.0000000  -0.0437552   0.0437552), wk =   0.0109240
        k(   30) = (   0.0656328   0.0000000   0.0000000), wk =   0.0054620
        k(   31) = (   0.0765717   0.0109388  -0.0109388), wk =   0.0218480
        k(   32) = (   0.0875105   0.0218776  -0.0218776), wk =   0.0218480
        k(   33) = (   0.0984493   0.0328164  -0.0328164), wk =   0.0218480
        k(   34) = (  -0.0328164  -0.0984493   0.0984493), wk =   0.0218480
        k(   35) = (  -0.0218776  -0.0875105   0.0875105), wk =   0.0218480
        k(   36) = (  -0.0109388  -0.0765717   0.0765717), wk =   0.0218480
        k(   37) = (   0.0000000  -0.0656328   0.0656328), wk =   0.0109240
        k(   38) = (   0.0875105   0.0000000   0.0000000), wk =   0.0054620
        k(   39) = (   0.0984493   0.0109388  -0.0109388), wk =   0.0218480
        k(   40) = (   0.1093881   0.0218776  -0.0218776), wk =   0.0218480
        k(   41) = (  -0.0218776  -0.1093881   0.1093881), wk =   0.0218480
        k(   42) = (  -0.0109388  -0.0984493   0.0984493), wk =   0.0218480
        k(   43) = (   0.0000000  -0.0875105   0.0875105), wk =   0.0109240
        k(   44) = (   0.1093881   0.0000000   0.0000000), wk =   0.0054620
        k(   45) = (   0.1203269   0.0109388  -0.0109388), wk =   0.0218480
        k(   46) = (  -0.0109388  -0.1203269   0.1203269), wk =   0.0218480
        k(   47) = (   0.0000000  -0.1093881   0.1093881), wk =   0.0109240
        k(   48) = (   0.1312657   0.0000000   0.0000000), wk =   0.0054620
        k(   49) = (   0.0000000  -0.1312657   0.1312657), wk =   0.0109240
        k(   50) = (   0.0437552   0.0218776   0.0000000), wk =   0.0218480
        k(   51) = (   0.0546940   0.0328164  -0.0109388), wk =   0.0436959
        k(   52) = (   0.0656328   0.0437552  -0.0218776), wk =   0.0436959
        k(   53) = (   0.0765717   0.0546940  -0.0328164), wk =   0.0436959
        k(   54) = (  -0.0546940  -0.0765717   0.0984493), wk =   0.0436959
        k(   55) = (   0.0656328   0.0218776   0.0000000), wk =   0.0218480
        k(   56) = (   0.0765717   0.0328164  -0.0109388), wk =   0.0436959
        k(   57) = (   0.0875105   0.0437552  -0.0218776), wk =   0.0436959
        k(   58) = (  -0.0437552  -0.0875105   0.1093881), wk =   0.0436959
        k(   59) = (  -0.0328164  -0.0765717   0.0984493), wk =   0.0436959
        k(   60) = (  -0.0218776  -0.0656328   0.0875105), wk =   0.0436959
        k(   61) = (  -0.0109388  -0.0546940   0.0765717), wk =   0.0436959
        k(   62) = (   0.0000000  -0.0437552   0.0656328), wk =   0.0218480
        k(   63) = (   0.0875105   0.0218776  -0.0000000), wk =   0.0218480
        k(   64) = (   0.0984493   0.0328164  -0.0109388), wk =   0.0436959
        k(   65) = (  -0.0328164  -0.0984493   0.1203269), wk =   0.0436959
        k(   66) = (  -0.0218776  -0.0875105   0.1093881), wk =   0.0436959
        k(   67) = (  -0.0109388  -0.0765717   0.0984493), wk =   0.0436959
        k(   68) = (   0.0000000  -0.0656328   0.0875105), wk =   0.0218480
        k(   69) = (   0.1093881   0.0218776   0.0000000), wk =   0.0218480
        k(   70) = (  -0.0218776  -0.1093881   0.1312657), wk =   0.0436959
        k(   71) = (  -0.0109388  -0.0984493   0.1203269), wk =   0.0436959
        k(   72) = (   0.0000000  -0.0875105   0.1093881), wk =   0.0218480
        k(   73) = (  -0.0109388  -0.1203269   0.1422045), wk =   0.0218480
        k(   74) = (   0.0000000  -0.1093881   0.1312657), wk =   0.0218480
        k(   75) = (   0.0875105   0.0437552   0.0000000), wk =   0.0218480
        k(   76) = (  -0.0437552  -0.0875105   0.1312657), wk =   0.0436959
        k(   77) = (  -0.0328164  -0.0765717   0.1203269), wk =   0.0436959
        k(   78) = (  -0.0328164  -0.0984493   0.1422045), wk =   0.0218480
        k(   79) = (  -0.0218776  -0.0875105   0.1312657), wk =   0.0436959
        k(   80) = (  -0.0109388  -0.0765717   0.1203269), wk =   0.0436959
        k(   81) = (   0.0000000  -0.0656328   0.1093881), wk =   0.0218480
        k(   82) = (  -0.0109388  -0.0984493   0.1422045), wk =   0.0218480
        k(   83) = (   0.0000000  -0.0875105   0.1312657), wk =   0.0218480
        k(   84) = (  -0.0109388  -0.0765717   0.1422045), wk =   0.0218480

     Dense  grid:   110947 G-vectors     FFT dimensions: (  72,  72,  72)

     Smooth grid:    27941 G-vectors     FFT dimensions: (  45,  45,  45)

     Estimated max dynamical RAM per process >     557.11 MB

     Initial potential from superposition of free atoms

     starting charge   47.99445, renormalised to   50.00000
     Starting wfcs are   46 randomized atomic wfcs

     total cpu time spent up to now is       18.2 secs

     Self-consistent Calculation

     iteration #  1     ecut=    50.00 Ry     beta= 0.60
     Davidson diagonalization with overlap
     ethr =  1.00E-02,  avg # of iterations =  3.0

     total cpu time spent up to now is       44.7 secs

     total energy              =    -461.93277092 Ry
     Harris-Foulkes estimate   =    -470.69850119 Ry
     estimated scf accuracy    <      11.17797489 Ry

     iteration #  2     ecut=    50.00 Ry     beta= 0.60
     Davidson diagonalization with overlap
     ethr =  1.00E-02,  avg # of iterations =  5.8

     total cpu time spent up to now is       83.5 secs

     total energy              =    -467.28869904 Ry
     Harris-Foulkes estimate   =    -480.93828779 Ry
     estimated scf accuracy    <      38.82558072 Ry

     iteration #  3     ecut=    50.00 Ry     beta= 0.60
     Davidson diagonalization with overlap
     ethr =  1.00E-02,  avg # of iterations =  3.2

     total cpu time spent up to now is      111.9 secs

     total energy              =    -469.81294741 Ry
     Harris-Foulkes estimate   =    -470.21453011 Ry
     estimated scf accuracy    <       6.16168041 Ry

     iteration #  4     ecut=    50.00 Ry     beta= 0.60
     Davidson diagonalization with overlap
     ethr =  1.00E-02,  avg # of iterations =  1.0

     total cpu time spent up to now is      132.8 secs

     total energy              =    -467.87111903 Ry
     Harris-Foulkes estimate   =    -469.84556652 Ry
     estimated scf accuracy    <       5.28142100 Ry

     iteration #  5     ecut=    50.00 Ry     beta= 0.60
     Davidson diagonalization with overlap
     ethr =  1.00E-02,  avg # of iterations =  4.4

     total cpu time spent up to now is      163.1 secs

     total energy              =    -468.47214918 Ry
     Harris-Foulkes estimate   =    -469.71525533 Ry
     estimated scf accuracy    <       9.88266691 Ry

     iteration #  6     ecut=    50.00 Ry     beta= 0.60
     Davidson diagonalization with overlap
     ethr =  1.00E-02,  avg # of iterations =  1.0

     total cpu time spent up to now is      183.7 secs

     total energy              =    -468.89994662 Ry
     Harris-Foulkes estimate   =    -468.86936412 Ry
     estimated scf accuracy    <       1.13006953 Ry

     iteration #  7     ecut=    50.00 Ry     beta= 0.60
     Davidson diagonalization with overlap
     ethr =  2.26E-03,  avg # of iterations =  3.9

     total cpu time spent up to now is      209.5 secs

     total energy              =    -469.07469786 Ry
     Harris-Foulkes estimate   =    -469.09250636 Ry
     estimated scf accuracy    <       0.10965657 Ry

     iteration #  8     ecut=    50.00 Ry     beta= 0.60
     Davidson diagonalization with overlap
     ethr =  2.19E-04,  avg # of iterations =  5.5

     total cpu time spent up to now is      241.9 secs

     total energy              =    -468.92037581 Ry
     Harris-Foulkes estimate   =    -469.16177264 Ry
     estimated scf accuracy    <       0.83068242 Ry

     iteration #  9     ecut=    50.00 Ry     beta= 0.60
     Davidson diagonalization with overlap
     ethr =  2.19E-04,  avg # of iterations =  5.1

     total cpu time spent up to now is      274.2 secs

     total energy              =    -469.32557227 Ry
     Harris-Foulkes estimate   =    -469.17272286 Ry
     estimated scf accuracy    <       1.68069064 Ry

     iteration # 10     ecut=    50.00 Ry     beta= 0.60
     Davidson diagonalization with overlap
     ethr =  2.19E-04,  avg # of iterations =  5.2

     total cpu time spent up to now is      303.7 secs

     total energy              =    -469.15930677 Ry
     Harris-Foulkes estimate   =    -469.39251316 Ry
     estimated scf accuracy    <       5.36180677 Ry

     iteration # 11     ecut=    50.00 Ry     beta= 0.60
     Davidson diagonalization with overlap
     ethr =  2.19E-04,  avg # of iterations =  4.2

     total cpu time spent up to now is      330.7 secs

     total energy              =    -469.00901339 Ry
     Harris-Foulkes estimate   =    -469.19708997 Ry
     estimated scf accuracy    <       2.28514818 Ry

     iteration # 12     ecut=    50.00 Ry     beta= 0.60
     Davidson diagonalization with overlap
     ethr =  2.19E-04,  avg # of iterations =  4.7

     total cpu time spent up to now is      360.2 secs

     total energy              =    -469.12191756 Ry
     Harris-Foulkes estimate   =    -469.08047701 Ry
     estimated scf accuracy    <       0.11068130 Ry

     iteration # 13     ecut=    50.00 Ry     beta= 0.60
     Davidson diagonalization with overlap
     ethr =  2.19E-04,  avg # of iterations =  4.5

     total cpu time spent up to now is      388.0 secs

     total energy              =    -469.17854976 Ry
     Harris-Foulkes estimate   =    -469.17928624 Ry
     estimated scf accuracy    <       1.91545157 Ry

     iteration # 14     ecut=    50.00 Ry     beta= 0.60
     Davidson diagonalization with overlap
     ethr =  2.19E-04,  avg # of iterations =  1.0

     total cpu time spent up to now is      408.6 secs

     total energy              =    -469.20018089 Ry
     Harris-Foulkes estimate   =    -469.17873738 Ry
     estimated scf accuracy    <       1.90924506 Ry

     iteration # 15     ecut=    50.00 Ry     beta= 0.60
     Davidson diagonalization with overlap
     ethr =  2.19E-04,  avg # of iterations =  1.0

     total cpu time spent up to now is      429.1 secs

     total energy              =    -468.96762969 Ry
     Harris-Foulkes estimate   =    -469.20092830 Ry
     estimated scf accuracy    <       2.18192263 Ry

     iteration # 16     ecut=    50.00 Ry     beta= 0.60
     Davidson diagonalization with overlap
     ethr =  2.19E-04,  avg # of iterations =  4.6

     total cpu time spent up to now is      458.0 secs

     total energy              =    -469.07393583 Ry
     Harris-Foulkes estimate   =    -469.07488627 Ry
     estimated scf accuracy    <       0.00492046 Ry

     iteration # 17     ecut=    50.00 Ry     beta= 0.60
     Davidson diagonalization with overlap
     c_bands:  1 eigenvalues not converged
     ethr =  9.84E-06,  avg # of iterations =  6.5

     total cpu time spent up to now is      497.1 secs

     total energy              =    -469.06232736 Ry
     Harris-Foulkes estimate   =    -469.08870446 Ry
     estimated scf accuracy    <       0.17882047 Ry

     iteration # 18     ecut=    50.00 Ry     beta= 0.60
     Davidson diagonalization with overlap
     ethr =  9.84E-06,  avg # of iterations =  5.3

     total cpu time spent up to now is      532.3 secs

     total energy              =    -469.07671526 Ry
     Harris-Foulkes estimate   =    -469.07905380 Ry
     estimated scf accuracy    <       0.02933809 Ry

     iteration # 19     ecut=    50.00 Ry     beta= 0.60
     Davidson diagonalization with overlap
     ethr =  9.84E-06,  avg # of iterations =  4.7

     total cpu time spent up to now is      561.8 secs

     total energy              =    -469.07428318 Ry
     Harris-Foulkes estimate   =    -469.07892073 Ry
     estimated scf accuracy    <       0.07196481 Ry

     iteration # 20     ecut=    50.00 Ry     beta= 0.60
     Davidson diagonalization with overlap
     ethr =  9.84E-06,  avg # of iterations =  3.1

     total cpu time spent up to now is      585.1 secs

     total energy              =    -469.07519290 Ry
     Harris-Foulkes estimate   =    -469.07523180 Ry
     estimated scf accuracy    <       0.02176127 Ry

     iteration # 21     ecut=    50.00 Ry     beta= 0.60
     Davidson diagonalization with overlap
     ethr =  9.84E-06,  avg # of iterations =  1.0

     total cpu time spent up to now is      605.7 secs

     total energy              =    -469.07288924 Ry
     Harris-Foulkes estimate   =    -469.07522621 Ry
     estimated scf accuracy    <       0.02082047 Ry

     iteration # 22     ecut=    50.00 Ry     beta= 0.60
     Davidson diagonalization with overlap
     ethr =  9.84E-06,  avg # of iterations =  3.9

     total cpu time spent up to now is      631.5 secs

     total energy              =    -469.07407556 Ry
     Harris-Foulkes estimate   =    -469.07401321 Ry
     estimated scf accuracy    <       0.00015622 Ry

     iteration # 23     ecut=    50.00 Ry     beta= 0.60
     Davidson diagonalization with overlap
     ethr =  3.12E-07,  avg # of iterations =  5.0

     total cpu time spent up to now is      661.4 secs

     total energy              =    -469.07389788 Ry
     Harris-Foulkes estimate   =    -469.07421309 Ry
     estimated scf accuracy    <       0.00283920 Ry

     iteration # 24     ecut=    50.00 Ry     beta= 0.60
     Davidson diagonalization with overlap
     ethr =  3.12E-07,  avg # of iterations =  4.9

     total cpu time spent up to now is      690.4 secs

     total energy              =    -469.07403154 Ry
     Harris-Foulkes estimate   =    -469.07403394 Ry
     estimated scf accuracy    <       0.00002408 Ry

     iteration # 25     ecut=    50.00 Ry     beta= 0.60
     Davidson diagonalization with overlap
     ethr =  4.82E-08,  avg # of iterations =  1.7

     total cpu time spent up to now is      711.5 secs

     total energy              =    -469.07403196 Ry
     Harris-Foulkes estimate   =    -469.07403257 Ry
     estimated scf accuracy    <       0.00000404 Ry

     iteration # 26     ecut=    50.00 Ry     beta= 0.60
     Davidson diagonalization with overlap
     ethr =  8.07E-09,  avg # of iterations =  4.8

     total cpu time spent up to now is      739.6 secs

     total energy              =    -469.07403287 Ry
     Harris-Foulkes estimate   =    -469.07403316 Ry
     estimated scf accuracy    <       0.00000288 Ry

     iteration # 27     ecut=    50.00 Ry     beta= 0.60
     Davidson diagonalization with overlap
     ethr =  5.77E-09,  avg # of iterations =  1.0

     total cpu time spent up to now is      760.2 secs

     total energy              =    -469.07403288 Ry
     Harris-Foulkes estimate   =    -469.07403296 Ry
     estimated scf accuracy    <       0.00000045 Ry

     iteration # 28     ecut=    50.00 Ry     beta= 0.60
     Davidson diagonalization with overlap
     ethr =  8.98E-10,  avg # of iterations =  4.2

     total cpu time spent up to now is      787.4 secs

     total energy              =    -469.07403294 Ry
     Harris-Foulkes estimate   =    -469.07403304 Ry
     estimated scf accuracy    <       0.00000073 Ry

     iteration # 29     ecut=    50.00 Ry     beta= 0.60
     Davidson diagonalization with overlap
     ethr =  8.98E-10,  avg # of iterations =  1.0

     total cpu time spent up to now is      807.9 secs

     total energy              =    -469.07403298 Ry
     Harris-Foulkes estimate   =    -469.07403298 Ry
     estimated scf accuracy    <       0.00000002 Ry

     iteration # 30     ecut=    50.00 Ry     beta= 0.60
     Davidson diagonalization with overlap
     ethr =  4.54E-11,  avg # of iterations =  4.5

     total cpu time spent up to now is      836.8 secs

     total energy              =    -469.07403300 Ry
     Harris-Foulkes estimate   =    -469.07403300 Ry
     estimated scf accuracy    <       0.00000002 Ry

     iteration # 31     ecut=    50.00 Ry     beta= 0.60
     Davidson diagonalization with overlap
     ethr =  3.80E-11,  avg # of iterations =  1.0

     total cpu time spent up to now is      857.3 secs

     total energy              =    -469.07403300 Ry
     Harris-Foulkes estimate   =    -469.07403300 Ry
     estimated scf accuracy    <          2.8E-10 Ry

     iteration # 32     ecut=    50.00 Ry     beta= 0.60
     Davidson diagonalization with overlap
     ethr =  5.62E-13,  avg # of iterations =  5.3

     total cpu time spent up to now is      889.2 secs

     total energy              =    -469.07403300 Ry
     Harris-Foulkes estimate   =    -469.07403300 Ry
     estimated scf accuracy    <          7.4E-09 Ry

     iteration # 33     ecut=    50.00 Ry     beta= 0.60
     Davidson diagonalization with overlap
     ethr =  5.62E-13,  avg # of iterations =  1.0

     total cpu time spent up to now is      909.7 secs

     total energy              =    -469.07403300 Ry
     Harris-Foulkes estimate   =    -469.07403300 Ry
     estimated scf accuracy    <          9.3E-09 Ry

     iteration # 34     ecut=    50.00 Ry     beta= 0.60
     Davidson diagonalization with overlap
     ethr =  5.62E-13,  avg # of iterations =  1.1

     total cpu time spent up to now is      930.4 secs

     total energy              =    -469.07403300 Ry
     Harris-Foulkes estimate   =    -469.07403300 Ry
     estimated scf accuracy    <          4.6E-09 Ry

     iteration # 35     ecut=    50.00 Ry     beta= 0.60
     Davidson diagonalization with overlap
     ethr =  5.62E-13,  avg # of iterations =  3.6

     total cpu time spent up to now is      955.5 secs

     total energy              =    -469.07403300 Ry
     Harris-Foulkes estimate   =    -469.07403300 Ry
     estimated scf accuracy    <          2.2E-09 Ry

     iteration # 36     ecut=    50.00 Ry     beta= 0.60
     Davidson diagonalization with overlap
     ethr =  5.62E-13,  avg # of iterations =  1.0

     total cpu time spent up to now is      976.1 secs

     total energy              =    -469.07403300 Ry
     Harris-Foulkes estimate   =    -469.07403300 Ry
     estimated scf accuracy    <          1.6E-09 Ry

     iteration # 37     ecut=    50.00 Ry     beta= 0.60
     Davidson diagonalization with overlap
     ethr =  5.62E-13,  avg # of iterations =  1.0

     total cpu time spent up to now is      996.6 secs

     total energy              =    -469.07403300 Ry
     Harris-Foulkes estimate   =    -469.07403300 Ry
     estimated scf accuracy    <          2.9E-09 Ry

     iteration # 38     ecut=    50.00 Ry     beta= 0.60
     Davidson diagonalization with overlap
     ethr =  5.62E-13,  avg # of iterations =  1.0

     total cpu time spent up to now is     1017.2 secs

     total energy              =    -469.07403300 Ry
     Harris-Foulkes estimate   =    -469.07403300 Ry
     estimated scf accuracy    <          1.7E-09 Ry

     iteration # 39     ecut=    50.00 Ry     beta= 0.60
     Davidson diagonalization with overlap
     ethr =  5.62E-13,  avg # of iterations =  3.8

     total cpu time spent up to now is     1043.9 secs

     End of self-consistent calculation

          k = 0.0000 0.0000 0.0000 (  3479 PWs)   bands (ev):

   -44.8111 -44.7664 -42.4536 -42.3569 -21.0759 -21.0759 -21.0759 -20.9673
   -20.9673 -20.9673 -18.5614 -18.5614 -18.5614 -18.2984 -18.2984 -18.2984
     6.7063  10.0351  10.0351  11.3387  11.3387  11.3387  11.4215  11.4215
    11.4215  12.7832  12.7832  12.7832  14.3112  14.3112

          k = 0.0109 0.0109-0.0109 (  3509 PWs)   bands (ev):

   -44.8107 -44.7669 -42.4526 -42.3580 -21.0768 -21.0768 -21.0760 -20.9671
   -20.9665 -20.9665 -18.5629 -18.5629 -18.5604 -18.2998 -18.2968 -18.2968
     6.7745  10.0694  10.0694  11.2015  11.3090  11.3090  11.4627  11.4661
    11.4661  12.7599  12.7599  12.8395  14.2990  14.2990

          k = 0.0219 0.0219-0.0219 (  3521 PWs)   bands (ev):

   -44.8092 -44.7683 -42.4497 -42.3611 -21.0792 -21.0792 -21.0762 -20.9669
   -20.9644 -20.9644 -18.5670 -18.5670 -18.5579 -18.3031 -18.2924 -18.2924
     6.9754  10.1692  10.1692  11.0245  11.2827  11.2827  11.3622  11.5340
    11.5340  12.6866  12.6866  13.0122  14.2703  14.2703

          k = 0.0328 0.0328-0.0328 (  3521 PWs)   bands (ev):

   -44.8069 -44.7704 -42.4451 -42.3659 -21.0824 -21.0824 -21.0761 -20.9669
   -20.9615 -20.9615 -18.5725 -18.5725 -18.5552 -18.3070 -18.2864 -18.2864
     7.2986  10.3249  10.3249  10.9105  11.0636  11.2898  11.2898  11.5863
    11.5863  12.5591  12.5591  13.3037  13.9780  14.2448

          k = 0.0438 0.0438-0.0438 (  3506 PWs)   bands (ev):

   -44.8042 -44.7730 -42.4396 -42.3716 -21.0857 -21.0857 -21.0752 -20.9676
   -20.9587 -20.9587 -18.5780 -18.5780 -18.5534 -18.3099 -18.2802 -18.2802
     7.7275  10.5185  10.5185  10.6022  10.9107  11.3351  11.3351  11.6042
    11.6042  12.3850  12.3850  13.2127  13.7071  14.2391

          k = 0.0547 0.0547-0.0547 (  3489 PWs)   bands (ev):

   -44.8016 -44.7755 -42.4342 -42.3772 -21.0883 -21.0883 -21.0737 -20.9690
   -20.9564 -20.9564 -18.5825 -18.5825 -18.5527 -18.3116 -18.2753 -18.2753
     8.2395  10.0423  10.7182  10.7182  11.0508  11.4101  11.4101  11.5807
    11.5807  12.1950  12.1950  12.5110  14.2042  14.2548

          k = 0.0656 0.0656-0.0656 (  3501 PWs)   bands (ev):

   -44.7998 -44.7772 -42.4306 -42.3810 -21.0897 -21.0897 -21.0725 -20.9702
   -20.9552 -20.9552 -18.5850 -18.5850 -18.5525 -18.3124 -18.2725 -18.2725
     8.8005   9.4500  10.8629  10.8629  11.3116  11.4777  11.4777  11.5428
    11.5428  11.9541  12.0525  12.0525  14.2751  14.2751

          k = 0.0219 0.0000 0.0000 (  3523 PWs)   bands (ev):

   -44.8105 -44.7671 -42.4522 -42.3584 -21.0779 -21.0779 -21.0744 -20.9684
   -20.9656 -20.9656 -18.5645 -18.5645 -18.5577 -18.3031 -18.2949 -18.2949
     6.7972  10.0745  10.0855  11.2296  11.2723  11.2723  11.2936  11.5667
    11.5667  12.7750  12.7750  12.8143  14.2580  14.3268

          k = 0.0328 0.0109-0.0109 (  3522 PWs)   bands (ev):

   -44.8093 -44.7681 -42.4499 -42.3608 -21.0805 -21.0803 -21.0733 -20.9693
   -20.9635 -20.9634 -18.5686 -18.5683 -18.5537 -18.3078 -18.2909 -18.2903
     6.9537  10.1420  10.1681  11.0533  11.1388  11.2542  11.3376  11.6170
    11.6726  12.7097  12.7406  12.9396  14.1955  14.3301

          k = 0.0438 0.0219-0.0219 (  3519 PWs)   bands (ev):

   -44.8073 -44.7700 -42.4459 -42.3650 -21.0838 -21.0832 -21.0728 -20.9701
   -20.9605 -20.9605 -18.5740 -18.5740 -18.5493 -18.3127 -18.2853 -18.2843
     7.2357  10.2628  10.3085  10.8940  10.9684  11.2647  11.4018  11.5589
    11.7561  12.5914  12.6431  13.1920  14.1384  14.2347

          k = 0.0547 0.0328-0.0328 (  3515 PWs)   bands (ev):

   -44.8047 -44.7725 -42.4406 -42.3706 -21.0871 -21.0862 -21.0721 -20.9713
   -20.9577 -20.9572 -18.5809 -18.5796 -18.5453 -18.3169 -18.2789 -18.2781
     7.6279  10.4045  10.4902  10.6778  10.8426  11.3082  11.4579  11.4957
    11.7899  12.4346  12.4800  13.4810  13.5588  14.1162

          k = 0.0656 0.0438-0.0438 (  3504 PWs)   bands (ev):

   -44.8020 -44.7751 -42.4350 -42.3764 -21.0896 -21.0890 -21.0709 -20.9731
   -20.9555 -20.9542 -18.5873 -18.5839 -18.5425 -18.3197 -18.2733 -18.2729
     8.1093  10.1743  10.6148  10.6862  10.9175  11.3815  11.4875  11.5252
    11.7552  12.2581  12.2778  12.7720  14.0247  14.1377

          k = 0.0766 0.0547-0.0547 (  3512 PWs)   bands (ev):

   -44.7998 -44.7772 -42.4305 -42.3810 -21.0910 -21.0909 -21.0696 -20.9748
   -20.9543 -20.9521 -18.5919 -18.5863 -18.5411 -18.3210 -18.2708 -18.2685
     8.6514   9.6366  10.7347  10.8514  11.0906  11.4640  11.5351  11.6080
    11.6588  12.0970  12.1036  12.1893  14.1883  14.2783

          k =-0.0547-0.0766 0.0766 (  3507 PWs)   bands (ev):

   -44.7992 -44.7778 -42.4292 -42.3824 -21.0920 -21.0907 -21.0693 -20.9753
   -20.9544 -20.9512 -18.5937 -18.5863 -18.5408 -18.3211 -18.2711 -18.2667
     9.0009   9.2876  10.7755  10.9119  11.1765  11.4904  11.5548  11.5632
    11.7456  11.9341  12.0291  12.0590  14.2387  14.2567

          k =-0.0438-0.0656 0.0656 (  3503 PWs)   bands (ev):

   -44.8004 -44.7766 -42.4318 -42.3797 -21.0916 -21.0890 -21.0704 -20.9741
   -20.9557 -20.9517 -18.5924 -18.5837 -18.5418 -18.3200 -18.2740 -18.2677
     8.4633   9.8362  10.7072  10.8116  11.0291  11.4447  11.5033  11.5119
    11.7393  12.1212  12.1693  12.3584  14.2099  14.2633

          k =-0.0328-0.0547 0.0547 (  3498 PWs)   bands (ev):

   -44.8029 -44.7742 -42.4369 -42.3745 -21.0899 -21.0863 -21.0722 -20.9719
   -20.9580 -20.9536 -18.5882 -18.5792 -18.5441 -18.3175 -18.2791 -18.2715
     7.9389  10.3573  10.5819  10.6166  10.8838  11.3757  11.4441  11.4931
    11.7542  12.2899  12.3607  12.9990  13.8645  14.1741

          k =-0.0219-0.0438 0.0438 (  3511 PWs)   bands (ev):

   -44.8057 -44.7716 -42.4425 -42.3686 -21.0870 -21.0829 -21.0738 -20.9700
   -20.9609 -20.9567 -18.5818 -18.5737 -18.5477 -18.3137 -18.2853 -18.2775
     7.4853  10.3872  10.4119  10.8077  10.8597  11.3279  11.4375  11.4702
    11.7280  12.4617  12.5518  13.4338  13.7336  14.1646

          k =-0.0109-0.0328 0.0328 (  3519 PWs)   bands (ev):

   -44.8081 -44.7693 -42.4474 -42.3634 -21.0834 -21.0797 -21.0747 -20.9687
   -20.9637 -20.9604 -18.5745 -18.5683 -18.5525 -18.3086 -18.2913 -18.2846
     7.1281  10.2394  10.2400  10.9548  11.0406  11.3212  11.4328  11.5015
    11.6554  12.6031  12.6933  13.1109  14.1942  14.4814

          k = 0.0000-0.0219 0.0219 (  3529 PWs)   bands (ev):

   -44.8098 -44.7677 -42.4509 -42.3597 -21.0797 -21.0775 -21.0753 -20.9678
   -20.9658 -20.9639 -18.5677 -18.5643 -18.5572 -18.3034 -18.2955 -18.2916
     6.8868  10.1222  10.1270  11.1268  11.1506  11.3376  11.4078  11.5225
    11.5682  12.7026  12.7611  12.9122  14.2482  14.3101

          k = 0.0438 0.0000 0.0000 (  3535 PWs)   bands (ev):

   -44.8085 -44.7689 -42.4482 -42.3626 -21.0833 -21.0833 -21.0699 -20.9720
   -20.9611 -20.9611 -18.5726 -18.5726 -18.5468 -18.3163 -18.2856 -18.2856
     7.0647  10.1610  10.2353  10.9625  10.9629  11.2429  11.2429  11.8250
    11.8250  12.7568  12.7568  12.9109  14.0813  14.3613

          k = 0.0547 0.0109-0.0109 (  3524 PWs)   bands (ev):

   -44.8068 -44.7706 -42.4448 -42.3662 -21.0868 -21.0866 -21.0674 -20.9744
   -20.9582 -20.9580 -18.5784 -18.5779 -18.5393 -18.3246 -18.2795 -18.2795
     7.3018  10.2128  10.3629  10.7548  10.8208  11.2551  11.2840  11.9034
    11.9583  12.6737  12.7121  13.0906  13.9645  14.3638

          k = 0.0656 0.0219-0.0219 (  3516 PWs)   bands (ev):

   -44.8044 -44.7728 -42.4398 -42.3714 -21.0901 -21.0898 -21.0656 -20.9771
   -20.9553 -20.9542 -18.5861 -18.5833 -18.5316 -18.3317 -18.2734 -18.2728
     7.6511  10.2550  10.5350  10.5503  10.7433  11.2950  11.3678  11.8621
    12.0322  12.5294  12.5808  13.4153  13.7567  13.8996

          k = 0.0766 0.0328-0.0328 (  3507 PWs)   bands (ev):

   -44.8016 -44.7755 -42.4342 -42.3772 -21.0926 -21.0925 -21.0639 -20.9804
   -20.9531 -20.9504 -18.5944 -18.5876 -18.5249 -18.3370 -18.2687 -18.2662
     8.0918  10.1318  10.4300  10.7262  10.7789  11.3629  11.4844  11.7837
    12.0112  12.3661  12.3766  13.0775  13.8459  13.9122

          k = 0.0875 0.0438-0.0438 (  3511 PWs)   bands (ev):

   -44.7991 -44.7778 -42.4291 -42.3825 -21.0945 -21.0938 -21.0624 -20.9834
   -20.9520 -20.9473 -18.6013 -18.5899 -18.5204 -18.3399 -18.2664 -18.2609
     8.5966   9.7559  10.4698  10.8723  10.8974  11.4490  11.6441  11.7447
    11.8851  12.1663  12.2131  12.5116  13.9844  14.1791

          k =-0.0438-0.0875 0.0875 (  3507 PWs)   bands (ev):

   -44.7979 -44.7790 -42.4265 -42.3852 -21.0956 -21.0934 -21.0621 -20.9847
   -20.9522 -20.9456 -18.6053 -18.5898 -18.5189 -18.3401 -18.2668 -18.2578
     9.1137   9.2956  10.5339  10.9195  10.9925  11.5097  11.7059  11.7305
    11.8834  12.0342  12.1215  12.1621  14.0770  14.0813

          k =-0.0328-0.0766 0.0766 (  3503 PWs)   bands (ev):

   -44.7986 -44.7783 -42.4280 -42.3836 -21.0957 -21.0916 -21.0637 -20.9833
   -20.9536 -20.9455 -18.6055 -18.5873 -18.5209 -18.3376 -18.2699 -18.2576
     8.7456   9.6790  10.5547  10.8629  10.9474  11.4740  11.5742  11.6963
    11.9546  12.0554  12.1754  12.3203  14.0001  14.1618

          k =-0.0219-0.0656 0.0656 (  3501 PWs)   bands (ev):

   -44.8008 -44.7762 -42.4326 -42.3789 -21.0945 -21.0887 -21.0667 -20.9797
   -20.9559 -20.9472 -18.6016 -18.5828 -18.5263 -18.3326 -18.2751 -18.2607
     8.2395  10.1541  10.5280  10.7728  10.7770  11.4193  11.4796  11.6502
    11.8919  12.1896  12.3341  12.8629  14.0053  14.0472

          k =-0.0109-0.0547 0.0547 (  3505 PWs)   bands (ev):

   -44.8036 -44.7736 -42.4383 -42.3730 -21.0919 -21.0852 -21.0699 -20.9755
   -20.9589 -20.9507 -18.5942 -18.5774 -18.5342 -18.3254 -18.2813 -18.2667
     7.7810  10.4003  10.5620  10.5989  10.7494  11.3774  11.4195  11.6425
    11.8041  12.3475  12.5154  13.5265  13.6224  14.1122

          k = 0.0000-0.0438 0.0438 (  3515 PWs)   bands (ev):

   -44.8061 -44.7711 -42.4435 -42.3676 -21.0881 -21.0820 -21.0725 -20.9717
   -20.9617 -20.9553 -18.5846 -18.5721 -18.5435 -18.3170 -18.2872 -18.2751
     7.4024  10.3340  10.3754  10.8150  10.8430  11.3585  11.3885  11.6441
    11.6947  12.4897  12.6484  13.3029  14.1328  14.1796

          k = 0.0656 0.0000 0.0000 (  3519 PWs)   bands (ev):

   -44.8053 -44.7719 -42.4418 -42.3693 -21.0904 -21.0904 -21.0626 -20.9783
   -20.9552 -20.9552 -18.5831 -18.5831 -18.5292 -18.3366 -18.2733 -18.2733
     7.4930  10.1628  10.4812  10.5424  10.7183  11.2645  11.2645  12.1577
    12.1577  12.7452  12.7452  13.0742  13.7584  14.4203

          k = 0.0766 0.0109-0.0109 (  3514 PWs)   bands (ev):

   -44.8031 -44.7740 -42.4373 -42.3740 -21.0939 -21.0939 -21.0588 -20.9824
   -20.9523 -20.9518 -18.5896 -18.5884 -18.5186 -18.3474 -18.2673 -18.2668
     7.7966  10.0964  10.3415  10.6484  10.6742  11.2968  11.3162  12.2564
    12.3005  12.6651  12.6865  13.2964  13.6079  13.9654

          k = 0.0875 0.0219-0.0219 (  3499 PWs)   bands (ev):

   -44.8005 -44.7765 -42.4318 -42.3797 -21.0965 -21.0965 -21.0557 -20.9872
   -20.9501 -20.9479 -18.5980 -18.5925 -18.5080 -18.3562 -18.2626 -18.2603
     8.1920   9.9924  10.1944  10.6794  10.8387  11.3541  11.4270  12.2131
    12.3232  12.4997  12.5187  13.3652  13.5924  13.6780

          k = 0.0984 0.0328-0.0328 (  3501 PWs)   bands (ev):

   -44.7978 -44.7791 -42.4263 -42.3854 -21.0983 -21.0977 -21.0534 -20.9920
   -20.9490 -20.9442 -18.6063 -18.5947 -18.4993 -18.3620 -18.2603 -18.2547
     8.6510   9.7716  10.1756  10.6887  11.0128  11.4350  11.6012  12.1082
    12.1622  12.2924  12.3709  12.8291  13.6845  13.9104

          k =-0.0328-0.0984 0.0984 (  3508 PWs)   bands (ev):

   -44.7961 -44.7808 -42.4226 -42.3892 -21.0991 -21.0973 -21.0527 -20.9948
   -20.9491 -20.9417 -18.6124 -18.5946 -18.4952 -18.3634 -18.2608 -18.2510
     9.1396   9.4424  10.2433  10.6626  11.1191  11.5198  11.8444  11.9092
    12.0250  12.1169  12.2602  12.4434  13.8263  13.9078

          k =-0.0219-0.0875 0.0875 (  3502 PWs)   bands (ev):

   -44.7963 -44.7806 -42.4230 -42.3887 -21.0991 -21.0953 -21.0550 -20.9936
   -20.9506 -20.9409 -18.6147 -18.5922 -18.4977 -18.3593 -18.2640 -18.2500
     9.0359   9.6210  10.3177  10.6178  11.1086  11.5232  11.7222  11.9380
    12.0193  12.1231  12.2296  12.3070  13.7587  13.9693

          k =-0.0109-0.0766 0.0766 (  3501 PWs)   bands (ev):

   -44.7983 -44.7787 -42.4273 -42.3844 -21.0980 -21.0922 -21.0597 -20.9887
   -20.9530 -20.9421 -18.6122 -18.5879 -18.5065 -18.3502 -18.2692 -18.2522
     8.5941  10.0494  10.3421  10.6216  10.9649  11.4560  11.5781  11.8798
    12.0113  12.0871  12.2964  12.7284  13.6244  14.1018

          k = 0.0000-0.0656 0.0656 (  3499 PWs)   bands (ev):

   -44.8010 -44.7760 -42.4329 -42.3786 -21.0957 -21.0886 -21.0651 -20.9821
   -20.9560 -20.9455 -18.6051 -18.5825 -18.5195 -18.3383 -18.2755 -18.2579
     8.1618  10.3285  10.4216  10.6591  10.7583  11.4118  11.4647  11.8192
    11.8600  12.2174  12.4192  13.2393  13.6657  13.9095

          k = 0.0875 0.0000 0.0000 (  3503 PWs)   bands (ev):

   -44.8012 -44.7759 -42.4332 -42.3782 -21.0976 -21.0976 -21.0527 -20.9875
   -20.9494 -20.9494 -18.5934 -18.5934 -18.5062 -18.3617 -18.2612 -18.2612
     8.0536   9.9509  10.1420  10.6273  10.8169  11.3161  11.3161  12.5377
    12.5377  12.7633  12.7633  13.2980  13.3093  13.9421

          k = 0.0984 0.0109-0.0109 (  3496 PWs)   bands (ev):

   -44.7987 -44.7783 -42.4280 -42.3836 -21.1003 -21.1003 -21.0477 -20.9933
   -20.9471 -20.9463 -18.5994 -18.5975 -18.4932 -18.3742 -18.2565 -18.2557
     8.4012   9.8371   9.9872  10.5791  11.0148  11.3563  11.3780  12.6176
    12.6317  12.6816  12.7027  13.2089  13.5493  13.5679

          k = 0.1094 0.0219-0.0219 (  3492 PWs)   bands (ev):

   -44.7960 -44.7809 -42.4223 -42.3894 -21.1019 -21.1016 -21.0437 -20.9996
   -20.9459 -20.9429 -18.6070 -18.5996 -18.4805 -18.3840 -18.2541 -18.2507
     8.8097   9.7178   9.9234  10.5051  11.1956  11.4253  11.5114  12.3220
    12.5513  12.5708  12.6015  13.0968  13.3343  13.6451

          k =-0.0219-0.1094 0.1094 (  3491 PWs)   bands (ev):

   -44.7938 -44.7830 -42.4177 -42.3941 -21.1022 -21.1013 -21.0419 -21.0044
   -20.9461 -20.9400 -18.6141 -18.5995 -18.4726 -18.3881 -18.2546 -18.2470
     9.2402   9.5385   9.9752  10.4012  11.2931  11.5302  11.7228  12.0111
    12.3880  12.3934  12.4442  12.7013  13.5234  13.6413

          k =-0.0109-0.0984 0.0984 (  3499 PWs)   bands (ev):

   -44.7936 -44.7832 -42.4173 -42.3945 -21.1017 -21.0993 -21.0448 -21.0038
   -20.9475 -20.9386 -18.6183 -18.5972 -18.4753 -18.3823 -18.2577 -18.2456
     9.2759   9.6699  10.0570  10.3378  11.2820  11.5896  11.8104  11.9988
    12.1438  12.2534  12.3458  12.4012  13.7278  13.7569

          k = 0.0000-0.0875 0.0875 (  3500 PWs)   bands (ev):

   -44.7956 -44.7813 -42.4216 -42.3902 -21.1004 -21.0960 -21.0518 -20.9975
   -20.9500 -20.9392 -18.6179 -18.5930 -18.4882 -18.3680 -18.2630 -18.2472
     8.9561  10.0182  10.0700  10.4455  11.1564  11.5189  11.7261  12.0212
    12.0848  12.1336  12.2699  12.4577  13.5886  13.9642

          k = 0.1094 0.0000 0.0000 (  3503 PWs)   bands (ev):

   -44.7964 -44.7806 -42.4231 -42.3887 -21.1033 -21.1033 -21.0407 -20.9993
   -20.9447 -20.9447 -18.6014 -18.6014 -18.4792 -18.3899 -18.2517 -18.2517
     8.6983   9.7096   9.8413  10.4564  11.2327  11.3721  11.3721  12.7866
    12.8080  12.8080  12.9285  12.9285  13.5527  13.5527

          k = 0.1203 0.0109-0.0109 (  3486 PWs)   bands (ev):

   -44.7937 -44.7832 -42.4174 -42.3944 -21.1048 -21.1047 -21.0348 -21.0063
   -20.9435 -20.9426 -18.6058 -18.6036 -18.4645 -18.4034 -18.2492 -18.2482
     9.0489   9.6326   9.7653  10.2999  11.3866  11.4330  11.4691  12.3913
    12.7843  12.9145  12.9458  13.0551  13.2826  13.4253

          k =-0.0109-0.1203 0.1203 (  3485 PWs)   bands (ev):

   -44.7912 -44.7856 -42.4121 -42.3998 -21.1048 -21.1045 -21.0310 -21.0127
   -20.9436 -20.9402 -18.6118 -18.6035 -18.4527 -18.4117 -18.2495 -18.2455
     9.3916   9.5765   9.7983  10.1251  11.4136  11.5699  11.6489  12.0295
    12.6666  12.7480  12.7549  12.9489  13.2635  13.3901

          k = 0.0000-0.1094 0.1094 (  3492 PWs)   bands (ev):

   -44.7912 -44.7856 -42.4120 -42.3998 -21.1036 -21.1025 -21.0350 -21.0117
   -20.9450 -20.9385 -18.6168 -18.6012 -18.4573 -18.4031 -18.2525 -18.2444
     9.4306   9.7132   9.8653  10.0915  11.3996  11.7176  11.7753  11.7883
    12.4435  12.5056  12.5261  12.6207  13.4965  13.5121

          k = 0.1313 0.0000 0.0000 (  3495 PWs)   bands (ev):

   -44.7911 -44.7857 -42.4118 -42.4001 -21.1064 -21.1064 -21.0271 -21.0129
   -20.9422 -20.9422 -18.6057 -18.6057 -18.4499 -18.4197 -18.2465 -18.2465
     9.3163   9.5561   9.7278  10.0709  11.4081  11.4081  11.7144  12.2419
    12.9295  12.9295  13.1029  13.1029  13.3502  13.3502

          k = 0.0000-0.1313 0.1313 (  3500 PWs)   bands (ev):

   -44.7887 -44.7881 -42.4066 -42.4052 -21.1063 -21.1063 -21.0220 -21.0191
   -20.9422 -20.9413 -18.6081 -18.6057 -18.4376 -18.4306 -18.2466 -18.2456
     9.4922   9.5162   9.8430   9.8724  11.4185  11.4548  11.9329  11.9345
    12.8890  12.9688  12.9733  13.1371  13.2218  13.2733

          k = 0.0438 0.0219 0.0000 (  3518 PWs)   bands (ev):

   -44.8079 -44.7695 -42.4470 -42.3638 -21.0846 -21.0822 -21.0714 -20.9712
   -20.9619 -20.9595 -18.5760 -18.5712 -18.5474 -18.3148 -18.2875 -18.2827
     7.1505  10.2124  10.2710  10.9307  10.9368  11.2932  11.3075  11.7337
    11.7506  12.6345  12.7259  13.0641  14.1102  14.3384

          k = 0.0547 0.0328-0.0109 (  3510 PWs)   bands (ev):

   -44.8057 -44.7716 -42.4426 -42.3685 -21.0886 -21.0849 -21.0699 -20.9734
   -20.9594 -20.9552 -18.5844 -18.5759 -18.5401 -18.3218 -18.2825 -18.2747
     7.4658  10.3092  10.4255  10.7346  10.8062  11.3079  11.3701  11.7074
    11.8446  12.5081  12.6279  13.3294  13.9939  14.0491

          k = 0.0656 0.0438-0.0219 (  3510 PWs)   bands (ev):

   -44.8030 -44.7741 -42.4371 -42.3743 -21.0918 -21.0879 -21.0681 -20.9764
   -20.9567 -20.9514 -18.5925 -18.5813 -18.5333 -18.3277 -18.2767 -18.2678
     7.8810  10.3238  10.5295  10.6133  10.7819  11.3554  11.4472  11.6487
    11.8901  12.3501  12.4534  13.2791  13.7149  14.0427

          k = 0.0766 0.0547-0.0328 (  3510 PWs)   bands (ev):

   -44.8003 -44.7767 -42.4316 -42.3799 -21.0938 -21.0905 -21.0661 -20.9795
   -20.9544 -20.9486 -18.5987 -18.5858 -18.5282 -18.3320 -18.2716 -18.2628
     8.3710   9.9668  10.5505  10.7825  10.8928  11.4300  11.5338  11.6375
    11.8732  12.1812  12.2568  12.6387  14.0791  14.1813

          k =-0.0547-0.0766 0.0984 (  3503 PWs)   bands (ev):

   -44.7986 -44.7784 -42.4279 -42.3837 -21.0946 -21.0922 -21.0646 -20.9817
   -20.9530 -20.9472 -18.6021 -18.5884 -18.5254 -18.3341 -18.2686 -18.2603
     8.9011   9.4675  10.6074  10.8800  11.0411  11.4969  11.6110  11.6670
    11.8656  12.0537  12.1168  12.1660  14.1331  14.1731

          k = 0.0656 0.0219 0.0000 (  3518 PWs)   bands (ev):

   -44.8048 -44.7724 -42.4408 -42.3704 -21.0911 -21.0893 -21.0641 -20.9779
   -20.9560 -20.9538 -18.5866 -18.5818 -18.5297 -18.3344 -18.2751 -18.2711
     7.5721  10.2106  10.5077  10.5493  10.7262  11.2997  11.3013  12.0464
    12.0495  12.5932  12.6829  13.2620  13.8368  14.1571

          k = 0.0766 0.0328-0.0109 (  3502 PWs)   bands (ev):

   -44.8023 -44.7748 -42.4356 -42.3758 -21.0946 -21.0920 -21.0613 -20.9821
   -20.9535 -20.9495 -18.5953 -18.5866 -18.5195 -18.3433 -18.2701 -18.2636
     7.9436  10.1630  10.3652  10.6646  10.7311  11.3469  11.3950  12.0183
    12.1230  12.4542  12.5483  13.5512  13.5855  13.7931

          k = 0.0875 0.0438-0.0219 (  3509 PWs)   bands (ev):

   -44.7996 -44.7774 -42.4299 -42.3817 -21.0968 -21.0942 -21.0587 -20.9868
   -20.9514 -20.9460 -18.6032 -18.5907 -18.5104 -18.3503 -18.2657 -18.2578
     8.3909   9.9649  10.2962  10.7104  10.9071  11.4191  11.5333  11.9442
    12.0919  12.2851  12.3598  12.9429  13.8355  13.9415

          k =-0.0438-0.0875 0.1094 (  3506 PWs)   bands (ev):

   -44.7973 -44.7796 -42.4252 -42.3864 -21.0978 -21.0954 -21.0568 -20.9905
   -20.9503 -20.9435 -18.6090 -18.5929 -18.5045 -18.3541 -18.2633 -18.2540
     8.8814   9.6099  10.3375  10.7207  11.0757  11.4997  11.7041  11.8937
    11.9690  12.1278  12.2174  12.4663  13.9197  13.9468

          k =-0.0328-0.0766 0.0984 (  3504 PWs)   bands (ev):

   -44.7967 -44.7802 -42.4239 -42.3878 -21.0980 -21.0951 -21.0569 -20.9913
   -20.9505 -20.9425 -18.6114 -18.5926 -18.5036 -18.3539 -18.2639 -18.2525
     9.1626   9.3841  10.3891  10.6986  11.1341  11.5355  11.7095  11.8641
    11.9884  12.1008  12.1788  12.2232  13.9041  14.0080

          k =-0.0219-0.0656 0.0875 (  3502 PWs)   bands (ev):

   -44.7981 -44.7789 -42.4268 -42.3848 -21.0976 -21.0932 -21.0594 -20.9884
   -20.9521 -20.9432 -18.6098 -18.5897 -18.5082 -18.3495 -18.2673 -18.2538
     8.6885   9.8381  10.3894  10.6820  11.0216  11.4903  11.5898  11.8353
    12.0139  12.1025  12.2443  12.5667  13.7967  14.0781

          k =-0.0109-0.0547 0.0766 (  3501 PWs)   bands (ev):

   -44.8006 -44.7764 -42.4321 -42.3793 -21.0960 -21.0904 -21.0631 -20.9834
   -20.9545 -20.9458 -18.6041 -18.5852 -18.5171 -18.3417 -18.2724 -18.2581
     8.2208  10.1945  10.3922  10.6689  10.8257  11.4242  11.4765  11.8284
    11.9540  12.2391  12.4000  13.1173  13.7879  13.9339

          k = 0.0000-0.0438 0.0656 (  3507 PWs)   bands (ev):

   -44.8033 -44.7738 -42.4378 -42.3735 -21.0929 -21.0874 -21.0668 -20.9780
   -20.9572 -20.9500 -18.5952 -18.5801 -18.5286 -18.3320 -18.2780 -18.2653
     7.8023  10.3202  10.5392  10.5841  10.7245  11.3760  11.3850  11.8383
    11.8629  12.3840  12.5506  13.5733  13.7024  13.9464

          k = 0.0875 0.0219-0.0000 (  3499 PWs)   bands (ev):

   -44.8008 -44.7762 -42.4325 -42.3790 -21.0976 -21.0965 -21.0542 -20.9876
   -20.9500 -20.9481 -18.5966 -18.5926 -18.5063 -18.3594 -18.2627 -18.2597
     8.1224   9.9874  10.1592  10.6458  10.8323  11.3516  11.3578  12.3959
    12.3971  12.5917  12.6312  13.4811  13.5057  13.7042

          k = 0.0984 0.0328-0.0109 (  3498 PWs)   bands (ev):

   -44.7981 -44.7788 -42.4268 -42.3848 -21.1000 -21.0984 -21.0502 -20.9937
   -20.9480 -20.9446 -18.6043 -18.5964 -18.4935 -18.3698 -18.2589 -18.2540
     8.5231   9.8720  10.0420  10.6093  11.0313  11.4155  11.4769  12.3434
    12.3751  12.4403  12.4819  13.2009  13.5189  13.7066

          k =-0.0328-0.0984 0.1203 (  3496 PWs)   bands (ev):

   -44.7956 -44.7813 -42.4215 -42.3902 -21.1009 -21.0993 -21.0473 -20.9993
   -20.9470 -20.9415 -18.6114 -18.5983 -18.4833 -18.3767 -18.2570 -18.2498
     8.9648   9.6673  10.0539  10.5397  11.2006  11.4980  11.6672  12.1122
    12.2378  12.3064  12.3586  12.7352  13.6489  13.6997

          k =-0.0219-0.0875 0.1094 (  3503 PWs)   bands (ev):

   -44.7944 -44.7825 -42.4190 -42.3928 -21.1009 -21.0987 -21.0471 -21.0015
   -20.9474 -20.9397 -18.6161 -18.5977 -18.4804 -18.3771 -18.2580 -18.2475
     9.3662   9.4183  10.1322  10.4590  11.2756  11.5750  11.8579  11.9384
    12.1400  12.1460  12.2791  12.4028  13.7861  13.8174

          k =-0.0109-0.0766 0.0984 (  3505 PWs)   bands (ev):

   -44.7955 -44.7814 -42.4212 -42.3905 -21.1003 -21.0965 -21.0511 -20.9982
   -20.9491 -20.9396 -18.6167 -18.5948 -18.4869 -18.3695 -18.2616 -18.2478
     9.0127   9.8144  10.1616  10.4728  11.2053  11.5571  11.7209  12.0185
    12.0608  12.1416  12.2441  12.4268  13.6439  13.9514

          k = 0.0000-0.0656 0.0875 (  3499 PWs)   bands (ev):

   -44.7979 -44.7790 -42.4265 -42.3852 -21.0988 -21.0935 -21.0572 -20.9912
   -20.9517 -20.9417 -18.6127 -18.5902 -18.5005 -18.3565 -18.2669 -18.2512
     8.6127  10.1169  10.1801  10.5789  11.0240  11.4879  11.5784  11.9793
    12.0130  12.1223  12.3114  12.8251  13.5494  14.0617

          k = 0.1094 0.0219 0.0000 (  3492 PWs)   bands (ev):

   -44.7961 -44.7808 -42.4226 -42.3892 -21.1028 -21.1022 -21.0420 -20.9999
   -20.9451 -20.9439 -18.6040 -18.6013 -18.4787 -18.3877 -18.2528 -18.2510
     8.7528   9.7409   9.8626  10.4754  11.2199  11.4146  11.4260  12.4760
    12.6429  12.7296  12.7308  13.1972  13.3287  13.5384

          k =-0.0219-0.1094 0.1313 (  3489 PWs)   bands (ev):

   -44.7934 -44.7834 -42.4169 -42.3949 -21.1036 -21.1029 -21.0374 -21.0071
   -20.9441 -20.9413 -18.6100 -18.6033 -18.4644 -18.3988 -18.2512 -18.2476
     9.1381   9.6558   9.8313  10.3318  11.3802  11.5035  11.5582  12.1781
    12.5335  12.6220  12.6296  12.9394  13.3610  13.4941

          k =-0.0109-0.0984 0.1203 (  3495 PWs)   bands (ev):

   -44.7918 -44.7850 -42.4133 -42.3986 -21.1032 -21.1021 -21.0363 -21.0111
   -20.9446 -20.9391 -18.6157 -18.6025 -18.4584 -18.4012 -18.2524 -18.2453
     9.4530   9.5768   9.9059  10.1930  11.4229  11.6360  11.7679  11.9040
    12.3913  12.4177  12.4506  12.5891  13.5577  13.5824

          k = 0.0000-0.0875 0.1094 (  3502 PWs)   bands (ev):

   -44.7929 -44.7839 -42.4157 -42.3961 -21.1021 -21.0998 -21.0422 -21.0070
   -20.9464 -20.9383 -18.6185 -18.5994 -18.4681 -18.3889 -18.2562 -18.2451
     9.2898   9.8358   9.9258  10.2526  11.3619  11.6429  11.7941  12.0241
    12.1346  12.2831  12.3197  12.3499  13.7507  13.7537

          k =-0.0109-0.1203 0.1422 (  3482 PWs)   bands (ev):

   -44.7910 -44.7858 -42.4116 -42.4002 -21.1056 -21.1054 -21.0283 -21.0139
   -20.9421 -20.9417 -18.6074 -18.6065 -18.4487 -18.4179 -18.2472 -18.2466
     9.3541   9.5853   9.7516  10.0922  11.4516  11.4557  11.6791  12.1260
    12.7546  12.8660  12.9558  13.0651  13.2004  13.3339

          k = 0.0000-0.1094 0.1313 (  3488 PWs)   bands (ev):

   -44.7893 -44.7875 -42.4080 -42.4039 -21.1048 -21.1046 -21.0264 -21.0183
   -20.9426 -20.9402 -18.6119 -18.6058 -18.4412 -18.4220 -18.2484 -18.2454
     9.5168   9.5953   9.8606   9.9476  11.4688  11.5841  11.8304  11.8432
    12.6368  12.6548  12.7315  12.8201  13.3688  13.3813

          k = 0.0875 0.0438 0.0000 (  3510 PWs)   bands (ev):

   -44.7997 -44.7773 -42.4302 -42.3814 -21.0979 -21.0942 -21.0570 -20.9884
   -20.9513 -20.9451 -18.6044 -18.5908 -18.5055 -18.3553 -18.2659 -18.2560
     8.3187  10.0718  10.1919  10.6458  10.9105  11.4369  11.4602  12.1138
    12.1201  12.3348  12.4377  13.2675  13.6623  13.7868

          k =-0.0438-0.0875 0.1313 (  3502 PWs)   bands (ev):

   -44.7970 -44.7799 -42.4245 -42.3872 -21.0998 -21.0963 -21.0526 -20.9950
   -20.9490 -20.9419 -18.6113 -18.5950 -18.4923 -18.3660 -18.2617 -18.2509
     8.7425   9.8853  10.1301  10.5780  11.1227  11.5161  11.6007  12.0668
    12.1254  12.2001  12.2933  12.7894  13.6257  13.8638

          k =-0.0328-0.0766 0.1203 (  3504 PWs)   bands (ev):

   -44.7950 -44.7818 -42.4203 -42.3914 -21.1004 -21.0977 -21.0493 -20.9997
   -20.9477 -20.9403 -18.6149 -18.5977 -18.4839 -18.3729 -18.2590 -18.2486
     9.1731   9.5674  10.1721  10.4960  11.2871  11.5782  11.7648  11.9859
    12.0709  12.1596  12.2055  12.3918  13.7466  13.9498

          k =-0.0328-0.0984 0.1422 (  3491 PWs)   bands (ev):

   -44.7954 -44.7815 -42.4211 -42.3906 -21.1019 -21.0999 -21.0448 -21.0014
   -20.9458 -20.9418 -18.6101 -18.6007 -18.4772 -18.3834 -18.2555 -18.2493
     8.9011   9.8154   9.9128  10.4818  11.2480  11.5276  11.5529  12.2410
    12.3368  12.3797  12.3910  12.9071  13.5427  13.5986

          k =-0.0219-0.0875 0.1313 (  3501 PWs)   bands (ev):

   -44.7930 -44.7838 -42.4159 -42.3959 -21.1023 -21.1007 -21.0401 -21.0085
   -20.9445 -20.9399 -18.6144 -18.6035 -18.4637 -18.3942 -18.2533 -18.2468
     9.2783   9.6708   9.9318  10.3241  11.4337  11.6106  11.7350  12.0429
    12.2405  12.2879  12.2934  12.5362  13.6269  13.7442

          k =-0.0109-0.0766 0.1203 (  3499 PWs)   bands (ev):

   -44.7924 -44.7844 -42.4147 -42.3972 -21.1021 -21.1002 -21.0400 -21.0098
   -20.9448 -20.9390 -18.6167 -18.6031 -18.4619 -18.3944 -18.2540 -18.2460
     9.4055   9.6382   9.9815  10.2563  11.4760  11.6735  11.8500  11.9797
    12.1503  12.1981  12.2452  12.3101  13.7804  13.8371

          k = 0.0000-0.0656 0.1094 (  3505 PWs)   bands (ev):

   -44.7943 -44.7825 -42.4188 -42.3930 -21.1014 -21.0985 -21.0456 -21.0037
   -20.9465 -20.9396 -18.6159 -18.5998 -18.4742 -18.3824 -18.2573 -18.2470
     9.0993   9.8731   9.9496  10.3983  11.3391  11.6321  11.7051  12.1007
    12.1117  12.1631  12.2277  12.4986  13.6154  13.9649

          k =-0.0109-0.0984 0.1422 (  3487 PWs)   bands (ev):

   -44.7908 -44.7860 -42.4111 -42.4007 -21.1038 -21.1032 -21.0308 -21.0160
   -20.9421 -20.9407 -18.6113 -18.6079 -18.4461 -18.4142 -18.2488 -18.2467
     9.4435   9.6542   9.8111  10.1244  11.5583  11.5899  11.6715  11.9857
    12.4323  12.5085  12.5320  12.6481  13.5185  13.5207

          k = 0.0000-0.0875 0.1313 (  3486 PWs)   bands (ev):

   -44.7899 -44.7869 -42.4093 -42.4026 -21.1031 -21.1024 -21.0306 -21.0184
   -20.9425 -20.9395 -18.6145 -18.6074 -18.4426 -18.4150 -18.2498 -18.2459
     9.5446   9.6843   9.8869  10.0371  11.5801  11.7589  11.8188  11.8247
    12.3123  12.3389  12.3403  12.3955  13.6783  13.6834

          k =-0.0109-0.0766 0.1422 (  3489 PWs)   bands (ev):

   -44.7904 -44.7864 -42.4103 -42.4015 -21.1026 -21.1017 -21.0322 -21.0178
   -20.9422 -20.9397 -18.6143 -18.6085 -18.4439 -18.4124 -18.2500 -18.2465
     9.5236   9.7080   9.8704  10.1070  11.6484  11.7517  11.7961  11.9536
    12.1818  12.2304  12.2452  12.2944  13.7584  13.8705

     the Fermi energy is    12.1870 ev

!    total energy              =    -469.07403300 Ry
     Harris-Foulkes estimate   =    -469.07403300 Ry
     estimated scf accuracy    <          1.9E-12 Ry

     The total energy is the sum of the following terms:

     one-electron contribution =    -150.74239891 Ry
     hartree contribution      =      89.49847134 Ry
     xc contribution           =     -65.24262394 Ry
     ewald contribution        =    -342.58472813 Ry
     smearing contrib. (-TS)   =      -0.00275335 Ry

     convergence has been achieved in  39 iterations

     Forces acting on atoms (cartesian axes, Ry/au):

     atom    1 type  2   force =     0.00000000   -0.00000000    0.00000000
     atom    2 type  2   force =    -0.00000000    0.00000000   -0.00000000
     atom    3 type  1   force =     0.00000000   -0.00000000   -0.00000000
     atom    4 type  1   force =    -0.00000000    0.00000000    0.00000000

     Total force =     0.000000     Total SCF correction =     0.000000


     Computing stress (Cartesian axis) and pressure

          total   stress  (Ry/bohr**3)                   (kbar)     P= -197.68
  -0.00134382  -0.00000000  -0.00000000       -197.68     -0.00     -0.00
  -0.00000000  -0.00134382  -0.00000000         -0.00   -197.68     -0.00
  -0.00000000  -0.00000000  -0.00134382         -0.00     -0.00   -197.68


     BFGS Geometry Optimization

     number of scf cycles    =   1
     number of bfgs steps    =   0

     enthalpy new            =    -469.0740329974 Ry

     new trust radius        =       0.1627451900 bohr
     new conv_thr            =            1.0E-10 Ry

     new unit-cell volume =    529.50906 a.u.^3 (    78.46515 Ang^3 )
     density =      5.95831 g/cm^3

CELL_PARAMETERS (alat=  1.88972599)
  -0.000000000   3.397939422   3.397939422
   3.397939422  -0.000000000   3.397939422
   3.397939422   3.397939422  -0.000000000

ATOMIC_POSITIONS (angstrom)
Ti       1.698969711   1.698969711   1.698969711
Ti       3.397939422   3.397939422   3.397939422
Nb       5.096909132   5.096909132   5.096909132
Nb       6.795878843   6.795878843   6.795878843


     NEW-OLD atomic charge density approx. for the potential
     extrapolated charge   44.81865, renormalised to   50.00000

     total cpu time spent up to now is     1068.3 secs

     Self-consistent Calculation

     iteration #  1     ecut=    50.00 Ry     beta= 0.60
     Davidson diagonalization with overlap
     c_bands:  1 eigenvalues not converged
     c_bands:  1 eigenvalues not converged
     c_bands:  1 eigenvalues not converged
     ethr =  1.00E-06,  avg # of iterations = 14.8

     total cpu time spent up to now is     1140.4 secs

     total energy              =    -439.72262236 Ry
     Harris-Foulkes estimate   =    -480.43164990 Ry
     estimated scf accuracy    <      33.34945533 Ry

     iteration #  2     ecut=    50.00 Ry     beta= 0.60
     Davidson diagonalization with overlap
     ethr =  1.00E-02,  avg # of iterations =  6.7

     total cpu time spent up to now is     1182.7 secs

     total energy              =    -454.72336881 Ry
     Harris-Foulkes estimate   =    -509.08771425 Ry
     estimated scf accuracy    <     175.30780823 Ry

     iteration #  3     ecut=    50.00 Ry     beta= 0.60
     Davidson diagonalization with overlap
     ethr =  1.00E-02,  avg # of iterations =  3.7

     total cpu time spent up to now is     1214.6 secs

     total energy              =    -471.25360014 Ry
     Harris-Foulkes estimate   =    -474.03190188 Ry
     estimated scf accuracy    <      13.67854774 Ry

     iteration #  4     ecut=    50.00 Ry     beta= 0.60
     Davidson diagonalization with overlap
     ethr =  1.00E-02,  avg # of iterations =  1.0

     total cpu time spent up to now is     1235.2 secs

     total energy              =    -468.60901969 Ry
     Harris-Foulkes estimate   =    -471.41027845 Ry
     estimated scf accuracy    <       9.13824356 Ry

     iteration #  5     ecut=    50.00 Ry     beta= 0.60
     Davidson diagonalization with overlap
     ethr =  1.00E-02,  avg # of iterations =  3.1

     total cpu time spent up to now is     1260.7 secs

     total energy              =    -469.79057840 Ry
     Harris-Foulkes estimate   =    -469.29933205 Ry
     estimated scf accuracy    <       1.04375487 Ry

     iteration #  6     ecut=    50.00 Ry     beta= 0.60
     Davidson diagonalization with overlap
     ethr =  2.09E-03,  avg # of iterations =  4.0

     total cpu time spent up to now is     1287.4 secs

     total energy              =    -469.96179601 Ry
     Harris-Foulkes estimate   =    -470.06396783 Ry
     estimated scf accuracy    <       4.34193616 Ry

     iteration #  7     ecut=    50.00 Ry     beta= 0.60
     Davidson diagonalization with overlap
     ethr =  2.09E-03,  avg # of iterations =  1.0

     total cpu time spent up to now is     1308.0 secs

     total energy              =    -469.62930644 Ry
     Harris-Foulkes estimate   =    -469.96559427 Ry
     estimated scf accuracy    <       4.14337009 Ry

     iteration #  8     ecut=    50.00 Ry     beta= 0.60
     Davidson diagonalization with overlap
     ethr =  2.09E-03,  avg # of iterations =  1.0

     total cpu time spent up to now is     1328.5 secs

     total energy              =    -468.99877483 Ry
     Harris-Foulkes estimate   =    -469.64049241 Ry
     estimated scf accuracy    <       3.27859143 Ry

     iteration #  9     ecut=    50.00 Ry     beta= 0.60
     Davidson diagonalization with overlap
     ethr =  2.09E-03,  avg # of iterations =  3.5

     total cpu time spent up to now is     1353.9 secs

     total energy              =    -469.18999437 Ry
     Harris-Foulkes estimate   =    -469.18127923 Ry
     estimated scf accuracy    <       0.28030630 Ry

     iteration # 10     ecut=    50.00 Ry     beta= 0.60
     Davidson diagonalization with overlap
     ethr =  5.61E-04,  avg # of iterations =  2.2

     total cpu time spent up to now is     1375.4 secs

     total energy              =    -468.91470602 Ry
     Harris-Foulkes estimate   =    -469.19663011 Ry
     estimated scf accuracy    <       0.39778690 Ry

     iteration # 11     ecut=    50.00 Ry     beta= 0.60
     Davidson diagonalization with overlap
     ethr =  5.61E-04,  avg # of iterations =  5.4

     total cpu time spent up to now is     1411.9 secs

     total energy              =    -469.82151479 Ry
     Harris-Foulkes estimate   =    -469.84523804 Ry
     estimated scf accuracy    <      10.37887645 Ry

     iteration # 12     ecut=    50.00 Ry     beta= 0.60
     Davidson diagonalization with overlap
     ethr =  5.61E-04,  avg # of iterations =  1.0

     total cpu time spent up to now is     1432.4 secs

     total energy              =    -468.49804712 Ry
     Harris-Foulkes estimate   =    -469.82221378 Ry
     estimated scf accuracy    <      10.11618517 Ry

     iteration # 13     ecut=    50.00 Ry     beta= 0.60
     Davidson diagonalization with overlap
     ethr =  5.61E-04,  avg # of iterations =  5.1

     total cpu time spent up to now is     1465.4 secs

     total energy              =    -469.14795599 Ry
     Harris-Foulkes estimate   =    -469.14733531 Ry
     estimated scf accuracy    <       0.05771656 Ry

     iteration # 14     ecut=    50.00 Ry     beta= 0.60
     Davidson diagonalization with overlap
     ethr =  1.15E-04,  avg # of iterations =  1.4

     total cpu time spent up to now is     1486.1 secs

     total energy              =    -469.24212203 Ry
     Harris-Foulkes estimate   =    -469.15000954 Ry
     estimated scf accuracy    <       0.04170276 Ry

     iteration # 15     ecut=    50.00 Ry     beta= 0.60
     Davidson diagonalization with overlap
     ethr =  8.34E-05,  avg # of iterations =  7.8

     total cpu time spent up to now is     1528.5 secs

     total energy              =    -471.21248669 Ry
     Harris-Foulkes estimate   =    -470.99448328 Ry
     estimated scf accuracy    <      21.57409226 Ry

     iteration # 16     ecut=    50.00 Ry     beta= 0.60
     Davidson diagonalization with overlap
     ethr =  8.34E-05,  avg # of iterations =  4.4

     total cpu time spent up to now is     1563.3 secs

     total energy              =    -467.85376347 Ry
     Harris-Foulkes estimate   =    -471.29967135 Ry
     estimated scf accuracy    <      28.08404993 Ry

     iteration # 17     ecut=    50.00 Ry     beta= 0.60
     Davidson diagonalization with overlap
     ethr =  8.34E-05,  avg # of iterations =  6.1

     total cpu time spent up to now is     1604.3 secs

     total energy              =    -469.03732907 Ry
     Harris-Foulkes estimate   =    -469.17823398 Ry
     estimated scf accuracy    <       0.59391755 Ry

     iteration # 18     ecut=    50.00 Ry     beta= 0.60
     Davidson diagonalization with overlap
     ethr =  8.34E-05,  avg # of iterations =  5.7

     total cpu time spent up to now is     1641.1 secs

     total energy              =    -469.16508754 Ry
     Harris-Foulkes estimate   =    -469.16555890 Ry
     estimated scf accuracy    <       0.31491982 Ry

     iteration # 19     ecut=    50.00 Ry     beta= 0.60
     Davidson diagonalization with overlap
     ethr =  8.34E-05,  avg # of iterations =  1.0

     total cpu time spent up to now is     1661.7 secs

     total energy              =    -469.15939673 Ry
     Harris-Foulkes estimate   =    -469.16510615 Ry
     estimated scf accuracy    <       0.31219812 Ry

     iteration # 20     ecut=    50.00 Ry     beta= 0.60
     Davidson diagonalization with overlap
     ethr =  8.34E-05,  avg # of iterations =  1.0

     total cpu time spent up to now is     1682.2 secs

     total energy              =    -469.14698043 Ry
     Harris-Foulkes estimate   =    -469.15975541 Ry
     estimated scf accuracy    <       0.25976534 Ry

     iteration # 21     ecut=    50.00 Ry     beta= 0.60
     Davidson diagonalization with overlap
     ethr =  8.34E-05,  avg # of iterations =  1.0

     total cpu time spent up to now is     1702.7 secs

     total energy              =    -469.15204523 Ry
     Harris-Foulkes estimate   =    -469.14817773 Ry
     estimated scf accuracy    <       0.16916906 Ry

     iteration # 22     ecut=    50.00 Ry     beta= 0.60
     Davidson diagonalization with overlap
     ethr =  8.34E-05,  avg # of iterations =  1.0

     total cpu time spent up to now is     1723.3 secs

     total energy              =    -469.13767296 Ry
     Harris-Foulkes estimate   =    -469.15238792 Ry
     estimated scf accuracy    <       0.20110216 Ry

     iteration # 23     ecut=    50.00 Ry     beta= 0.60
     Davidson diagonalization with overlap
     ethr =  8.34E-05,  avg # of iterations =  3.8

     total cpu time spent up to now is     1748.0 secs

     total energy              =    -469.13982198 Ry
     Harris-Foulkes estimate   =    -469.14358961 Ry
     estimated scf accuracy    <       0.04543580 Ry

     iteration # 24     ecut=    50.00 Ry     beta= 0.60
     Davidson diagonalization with overlap
     ethr =  8.34E-05,  avg # of iterations =  1.0

     total cpu time spent up to now is     1768.5 secs

     total energy              =    -469.13586359 Ry
     Harris-Foulkes estimate   =    -469.14058601 Ry
     estimated scf accuracy    <       0.03798345 Ry

     iteration # 25     ecut=    50.00 Ry     beta= 0.60
     Davidson diagonalization with overlap
     ethr =  7.60E-05,  avg # of iterations =  3.2

     total cpu time spent up to now is     1792.2 secs

     total energy              =    -469.13553804 Ry
     Harris-Foulkes estimate   =    -469.14090551 Ry
     estimated scf accuracy    <       0.01634853 Ry

     iteration # 26     ecut=    50.00 Ry     beta= 0.60
     Davidson diagonalization with overlap
     ethr =  3.27E-05,  avg # of iterations =  2.9

     total cpu time spent up to now is     1815.4 secs

     total energy              =    -469.13719246 Ry
     Harris-Foulkes estimate   =    -469.13742162 Ry
     estimated scf accuracy    <       0.00062826 Ry

     iteration # 27     ecut=    50.00 Ry     beta= 0.60
     Davidson diagonalization with overlap
     ethr =  1.26E-06,  avg # of iterations =  5.5

     total cpu time spent up to now is     1849.8 secs

     total energy              =    -469.13590555 Ry
     Harris-Foulkes estimate   =    -469.13868441 Ry
     estimated scf accuracy    <       0.01630565 Ry

     iteration # 28     ecut=    50.00 Ry     beta= 0.60
     Davidson diagonalization with overlap
     ethr =  1.26E-06,  avg # of iterations =  5.4

     total cpu time spent up to now is     1884.6 secs

     total energy              =    -469.13756032 Ry
     Harris-Foulkes estimate   =    -469.13765646 Ry
     estimated scf accuracy    <       0.00156690 Ry

     iteration # 29     ecut=    50.00 Ry     beta= 0.60
     Davidson diagonalization with overlap
     ethr =  1.26E-06,  avg # of iterations =  1.0

     total cpu time spent up to now is     1905.2 secs

     total energy              =    -469.13741324 Ry
     Harris-Foulkes estimate   =    -469.13757283 Ry
     estimated scf accuracy    <       0.00079165 Ry

     iteration # 30     ecut=    50.00 Ry     beta= 0.60
     Davidson diagonalization with overlap
     ethr =  1.26E-06,  avg # of iterations =  3.7

     total cpu time spent up to now is     1931.1 secs

     total energy              =    -469.13752382 Ry
     Harris-Foulkes estimate   =    -469.13755470 Ry
     estimated scf accuracy    <       0.00032281 Ry

     iteration # 31     ecut=    50.00 Ry     beta= 0.60
     Davidson diagonalization with overlap
     ethr =  6.46E-07,  avg # of iterations =  1.0

     total cpu time spent up to now is     1951.7 secs

     total energy              =    -469.13752541 Ry
     Harris-Foulkes estimate   =    -469.13753271 Ry
     estimated scf accuracy    <       0.00009242 Ry

     iteration # 32     ecut=    50.00 Ry     beta= 0.60
     Davidson diagonalization with overlap
     ethr =  1.85E-07,  avg # of iterations =  2.7

     total cpu time spent up to now is     1974.4 secs

     total energy              =    -469.13752824 Ry
     Harris-Foulkes estimate   =    -469.13753054 Ry
     estimated scf accuracy    <       0.00001485 Ry

     iteration # 33     ecut=    50.00 Ry     beta= 0.60
     Davidson diagonalization with overlap
     ethr =  2.97E-08,  avg # of iterations =  4.6

     total cpu time spent up to now is     2001.9 secs

     total energy              =    -469.13753243 Ry
     Harris-Foulkes estimate   =    -469.13753393 Ry
     estimated scf accuracy    <       0.00000897 Ry

     iteration # 34     ecut=    50.00 Ry     beta= 0.60
     Davidson diagonalization with overlap
     ethr =  1.79E-08,  avg # of iterations =  1.1

     total cpu time spent up to now is     2023.0 secs

     total energy              =    -469.13753300 Ry
     Harris-Foulkes estimate   =    -469.13753304 Ry
     estimated scf accuracy    <       0.00000023 Ry

     iteration # 35     ecut=    50.00 Ry     beta= 0.60
     Davidson diagonalization with overlap
     ethr =  4.63E-10,  avg # of iterations =  5.1

     total cpu time spent up to now is     2053.5 secs

     total energy              =    -469.13753325 Ry
     Harris-Foulkes estimate   =    -469.13753338 Ry
     estimated scf accuracy    <       0.00000137 Ry

     iteration # 36     ecut=    50.00 Ry     beta= 0.60
     Davidson diagonalization with overlap
     ethr =  4.63E-10,  avg # of iterations =  1.6

     total cpu time spent up to now is     2074.6 secs

     total energy              =    -469.13753326 Ry
     Harris-Foulkes estimate   =    -469.13753328 Ry
     estimated scf accuracy    <       0.00000035 Ry

     iteration # 37     ecut=    50.00 Ry     beta= 0.60
     Davidson diagonalization with overlap
     ethr =  4.63E-10,  avg # of iterations =  3.5

     total cpu time spent up to now is     2098.4 secs

     total energy              =    -469.13753327 Ry
     Harris-Foulkes estimate   =    -469.13753328 Ry
     estimated scf accuracy    <       0.00000003 Ry

     iteration # 38     ecut=    50.00 Ry     beta= 0.60
     Davidson diagonalization with overlap
     ethr =  5.75E-11,  avg # of iterations =  4.2

     total cpu time spent up to now is     2124.0 secs

     total energy              =    -469.13753329 Ry
     Harris-Foulkes estimate   =    -469.13753329 Ry
     estimated scf accuracy    <       0.00000001 Ry

     iteration # 39     ecut=    50.00 Ry     beta= 0.60
     Davidson diagonalization with overlap
     ethr =  2.16E-11,  avg # of iterations =  1.6

     total cpu time spent up to now is     2145.0 secs

     total energy              =    -469.13753329 Ry
     Harris-Foulkes estimate   =    -469.13753329 Ry
     estimated scf accuracy    <          8.6E-09 Ry

     iteration # 40     ecut=    50.00 Ry     beta= 0.60
     Davidson diagonalization with overlap
     ethr =  1.73E-11,  avg # of iterations =  2.4

     total cpu time spent up to now is     2166.7 secs

     total energy              =    -469.13753329 Ry
     Harris-Foulkes estimate   =    -469.13753329 Ry
     estimated scf accuracy    <          4.4E-10 Ry

     iteration # 41     ecut=    50.00 Ry     beta= 0.60
     Davidson diagonalization with overlap
     ethr =  8.87E-13,  avg # of iterations =  4.5

     total cpu time spent up to now is     2194.3 secs

     total energy              =    -469.13753329 Ry
     Harris-Foulkes estimate   =    -469.13753329 Ry
     estimated scf accuracy    <          1.4E-09 Ry

     iteration # 42     ecut=    50.00 Ry     beta= 0.60
     Davidson diagonalization with overlap
     ethr =  8.87E-13,  avg # of iterations =  2.5

     total cpu time spent up to now is     2215.9 secs

     End of self-consistent calculation

          k = 0.0000 0.0000 0.0000 (  3479 PWs)   bands (ev):

   -42.9448 -42.8753 -40.6162 -40.4692 -19.2440 -19.2440 -19.2440 -19.0944
   -19.0944 -19.0944 -16.7884 -16.7884 -16.7884 -16.4237 -16.4237 -16.4237
     8.0788  11.2869  11.2869  12.8830  12.8830  12.8830  12.9818  12.9818
    12.9818  14.4766  14.4766  14.4766  16.8472  16.8472

          k = 0.0113 0.0113-0.0113 (  3509 PWs)   bands (ev):

   -42.9440 -42.8760 -40.6147 -40.4708 -19.2454 -19.2454 -19.2445 -19.0938
   -19.0932 -19.0932 -16.7904 -16.7904 -16.7866 -16.4259 -16.4214 -16.4214
     8.1541  11.3276  11.3276  12.7133  12.8401  12.8401  13.0385  13.0385
    13.0527  14.4490  14.4490  14.5411  16.2176  16.2176

          k = 0.0226 0.0226-0.0226 (  3521 PWs)   bands (ev):

   -42.9417 -42.8781 -40.6104 -40.4756 -19.2492 -19.2492 -19.2457 -19.0924
   -19.0899 -19.0899 -16.7958 -16.7958 -16.7827 -16.4310 -16.4152 -16.4152
     8.3754  11.4463  11.4463  12.5021  12.7966  12.7966  12.9777  13.1198
    13.1198  14.3623  14.3623  14.7396  16.1817  16.1817

          k = 0.0340 0.0340-0.0340 (  3521 PWs)   bands (ev):

   -42.9381 -42.8813 -40.6036 -40.4829 -19.2543 -19.2543 -19.2466 -19.0912
   -19.0856 -19.0856 -16.8032 -16.8032 -16.7792 -16.4362 -16.4067 -16.4067
     8.7294  11.6321  11.6321  12.3660  12.6889  12.7908  12.7908  13.1773
    13.1773  14.2119  14.2119  15.0760  15.8499  16.1504

          k = 0.0453 0.0453-0.0453 (  3506 PWs)   bands (ev):

   -42.9338 -42.8853 -40.5954 -40.4918 -19.2594 -19.2594 -19.2460 -19.0913
   -19.0813 -19.0813 -16.8107 -16.8107 -16.7778 -16.4394 -16.3980 -16.3980
     9.1950  11.8648  11.8648  12.2198  12.3644  12.8288  12.8288  13.1888
    13.1888  14.0084  14.0084  14.9775  15.5429  16.1444

          k = 0.0566 0.0566-0.0566 (  3489 PWs)   bands (ev):

   -42.9297 -42.8892 -40.5873 -40.5004 -19.2635 -19.2635 -19.2439 -19.0932
   -19.0780 -19.0780 -16.8166 -16.8166 -16.7782 -16.4405 -16.3910 -16.3910
     9.7450  11.6438  12.1081  12.1081  12.5213  12.9007  12.9007  13.1470
    13.1470  13.7905  13.7905  14.1794  16.1202  16.1651

          k = 0.0679 0.0679-0.0679 (  3501 PWs)   bands (ev):

   -42.9269 -42.8918 -40.5819 -40.5061 -19.2657 -19.2657 -19.2418 -19.0951
   -19.0762 -19.0762 -16.8199 -16.8199 -16.7788 -16.4406 -16.3871 -16.3871
    10.3397  11.0284  12.2891  12.2891  12.8192  12.9639  12.9639  13.0896
    13.0896  13.5448  13.6316  13.6316  16.1908  16.1908

          k = 0.0226 0.0000 0.0000 (  3523 PWs)   bands (ev):

   -42.9438 -42.8762 -40.6142 -40.4714 -19.2472 -19.2472 -19.2419 -19.0956
   -19.0918 -19.0918 -16.7923 -16.7923 -16.7832 -16.4306 -16.4188 -16.4188
     8.1792  11.3377  11.3428  12.7623  12.7893  12.7893  12.8389  13.1647
    13.1647  14.4665  14.4665  14.5113  16.1659  16.2530

          k = 0.0340 0.0113-0.0113 (  3522 PWs)   bands (ev):

   -42.9419 -42.8779 -40.6108 -40.4751 -19.2514 -19.2511 -19.2408 -19.0962
   -19.0885 -19.0884 -16.7977 -16.7975 -16.7773 -16.4377 -16.4131 -16.4123
     8.3517  11.4227  11.4374  12.5466  12.6638  12.7578  12.8756  13.2353
    13.2923  14.3895  14.4253  14.6551  16.0872  16.2577

          k = 0.0453 0.0226-0.0226 (  3519 PWs)   bands (ev):

   -42.9388 -42.8808 -40.6048 -40.4817 -19.2567 -19.2557 -19.2411 -19.0965
   -19.0841 -19.0836 -16.8056 -16.8049 -16.7708 -16.4447 -16.4052 -16.4037
     8.6608  11.5726  11.6018  12.3589  12.4985  12.7580  12.9471  13.1699
    13.3880  14.2507  14.3093  14.9462  16.0164  16.1436

          k = 0.0566 0.0340-0.0340 (  3515 PWs)   bands (ev):

   -42.9346 -42.8846 -40.5969 -40.4901 -19.2619 -19.2604 -19.2412 -19.0975
   -19.0798 -19.0783 -16.8154 -16.8123 -16.7655 -16.4498 -16.3961 -16.3951
     9.0872  11.7600  11.8177  12.2183  12.3056  12.7957  13.0066  13.0643
    13.4193  14.0678  14.1170  15.2822  15.3705  15.9900

          k = 0.0679 0.0453-0.0453 (  3504 PWs)   bands (ev):

   -42.9303 -42.8886 -40.5885 -40.4991 -19.2658 -19.2644 -19.2400 -19.0999
   -19.0765 -19.0737 -16.8246 -16.8182 -16.7624 -16.4523 -16.3883 -16.3876
     9.6048  11.7284  12.0242  12.0551  12.3802  12.8676  13.0220  13.0676
    13.3644  13.8646  13.8835  14.4741  15.9107  16.0180

          k = 0.0792 0.0566-0.0566 (  3512 PWs)   bands (ev):

   -42.9269 -42.8918 -40.5818 -40.5061 -19.2677 -19.2674 -19.2381 -19.1026
   -19.0748 -19.0706 -16.8312 -16.8215 -16.7610 -16.4530 -16.3847 -16.3815
    10.1800  11.2028  12.1596  12.2620  12.5815  12.9501  13.0488  13.1507
    13.2341  13.6807  13.6905  13.8087  16.0819  16.1998

          k =-0.0566-0.0792 0.0792 (  3507 PWs)   bands (ev):

   -42.9259 -42.8928 -40.5798 -40.5082 -19.2688 -19.2673 -19.2376 -19.1033
   -19.0749 -19.0693 -16.8337 -16.8216 -16.7608 -16.4527 -16.3850 -16.3788
    10.5432  10.8493  12.2022  12.3458  12.6866  12.9765  13.0595  13.1106
    13.3076  13.5134  13.6058  13.6441  16.1470  16.1691

          k =-0.0453-0.0679 0.0679 (  3503 PWs)   bands (ev):

   -42.9279 -42.8909 -40.5837 -40.5042 -19.2683 -19.2647 -19.2395 -19.1013
   -19.0768 -19.0702 -16.8317 -16.8184 -16.7617 -16.4518 -16.3892 -16.3803
     9.9803  11.4104  12.1080  12.2268  12.5106  12.9386  13.0120  13.0539
    13.3222  13.7074  13.7640  14.0014  16.1088  16.1801

          k =-0.0340-0.0566 0.0566 (  3498 PWs)   bands (ev):

   -42.9317 -42.8873 -40.5913 -40.4961 -19.2658 -19.2604 -19.2422 -19.0981
   -19.0802 -19.0731 -16.8254 -16.8125 -16.7640 -16.4497 -16.3964 -16.3857
     9.4217  11.8608  11.9907  12.0123  12.3432  12.8757  12.9691  13.0438
    13.3624  13.8997  13.9797  14.7326  15.7244  16.0637

          k =-0.0226-0.0453 0.0453 (  3511 PWs)   bands (ev):

   -42.9361 -42.8832 -40.5997 -40.4871 -19.2615 -19.2551 -19.2438 -19.0957
   -19.0846 -19.0778 -16.8162 -16.8051 -16.7684 -16.4455 -16.4052 -16.3942
     8.9323  11.7058  11.7441  12.3075  12.3635  12.8361  13.0029  13.0267
    13.3479  14.0991  14.2014  15.2256  15.5702  16.0505

          k =-0.0113-0.0340 0.0340 (  3519 PWs)   bands (ev):

   -42.9400 -42.8797 -40.6071 -40.4792 -19.2559 -19.2500 -19.2440 -19.0947
   -19.0889 -19.0836 -16.8059 -16.7978 -16.7748 -16.4389 -16.4136 -16.4043
     8.5430  11.5253  11.5370  12.4277  12.5496  12.8441  12.9878  13.1077
    13.2723  14.2648  14.3684  14.8526  16.0864  16.2207

          k = 0.0000-0.0226 0.0226 (  3529 PWs)   bands (ev):

   -42.9427 -42.8772 -40.6123 -40.4735 -19.2501 -19.2464 -19.2439 -19.0943
   -19.0921 -19.0892 -16.7966 -16.7924 -16.7819 -16.4313 -16.4195 -16.4141
     8.2780  11.3928  11.3939  12.6292  12.6522  12.8761  12.9601  13.1241
    13.1727  14.3817  14.4495  14.6241  16.1537  16.2320

          k = 0.0453 0.0000 0.0000 (  3535 PWs)   bands (ev):

   -42.9406 -42.8791 -40.6083 -40.4779 -19.2559 -19.2559 -19.2358 -19.0997
   -19.0850 -19.0850 -16.8028 -16.8028 -16.7680 -16.4501 -16.4056 -16.4056
     8.4738  11.4574  11.5096  12.4644  12.4684  12.7365  12.7365  13.4766
    13.4766  14.4440  14.4440  14.6199  15.9441  16.2981

          k = 0.0566 0.0113-0.0113 (  3524 PWs)   bands (ev):

   -42.9379 -42.8816 -40.6031 -40.4835 -19.2616 -19.2614 -19.2328 -19.1024
   -19.0805 -19.0800 -16.8108 -16.8097 -16.7573 -16.4619 -16.3970 -16.3970
     8.7335  11.5364  11.6546  12.2335  12.3025  12.7409  12.7819  13.5737
    13.6329  14.3462  14.3899  14.8268  15.8002  16.3032

[...]
    11.3465  12.8811  13.1696  13.6788  13.8085  14.4775  14.4775  16.3685
    16.3685  16.4189  16.4189  16.9434  17.0786  17.9666

          k = 0.1056 0.0117-0.0117 (  2843 PWs)   bands (ev):

   -40.7675 -40.7179 -38.4789 -38.3752 -17.2142 -17.2133 -17.0944 -16.9816
   -16.8915 -16.8891 -14.8525 -14.8468 -14.6579 -14.4380 -14.1991 -14.1978
    11.7390  12.7652  12.9783  13.8183  13.9369  14.5159  14.5513  16.1649
    16.2958  16.5277  16.5515  16.8546  17.4188  17.4806

          k = 0.1173 0.0235-0.0235 (  2839 PWs)   bands (ev):

   -40.7608 -40.7242 -38.4658 -38.3890 -17.2177 -17.2145 -17.0897 -16.9969
   -16.8884 -16.8794 -14.8715 -14.8511 -14.6320 -14.4513 -14.1942 -14.1885
    12.1679  12.6830  12.9018  13.8048  14.1975  14.5878  14.7285  15.7268
    16.1181  16.3896  16.4241  16.8858  17.0604  17.5669

          k =-0.0235-0.1173 0.1173 (  2847 PWs)   bands (ev):

   -40.7554 -40.7293 -38.4552 -38.4001 -17.2163 -17.2111 -17.0891 -17.0107
   -16.8884 -16.8713 -14.8904 -14.8522 -14.6152 -14.4528 -14.1950 -14.1823
    12.5049  12.6429  12.9888  13.7308  14.3753  14.7026  15.0136  15.3338
    15.9365  16.1010  16.1124  16.4250  17.3282  17.5376

          k =-0.0117-0.1056 0.1056 (  2851 PWs)   bands (ev):

   -40.7549 -40.7298 -38.4544 -38.4010 -17.2104 -17.2063 -17.0976 -17.0121
   -16.8916 -16.8671 -14.9029 -14.8499 -14.6179 -14.4381 -14.2014 -14.1803
    12.4006  12.9112  13.1972  13.6175  14.4019  14.7865  15.1130  15.3983
    15.7099  15.7806  15.8872  16.0717  17.6170  17.6674

          k =-0.0000-0.0939 0.0939 (  2836 PWs)   bands (ev):

   -40.7598 -40.7251 -38.4642 -38.3908 -17.2019 -17.2010 -17.1140 -16.9984
   -16.8976 -16.8685 -14.9048 -14.8445 -14.6404 -14.4105 -14.2120 -14.1834
    12.1810  13.1272  13.3618  13.6213  14.2727  14.7352  15.0756  15.4369
    15.6106  15.6348  15.8443  15.9705  17.4516  17.9348

          k = 0.1173-0.0000-0.0000 (  2838 PWs)   bands (ev):

   -40.7617 -40.7233 -38.4675 -38.3872 -17.2228 -17.2228 -17.0791 -16.9931
   -16.8854 -16.8854 -14.8528 -14.8528 -14.6325 -14.4691 -14.1892 -14.1892
    12.0654  12.6086  12.7942  13.7580  14.2037  14.5288  14.5288  16.2273
    16.4587  16.4587  16.8778  16.8778  17.4360  17.4916

          k = 0.1291 0.0117-0.0117 (  2846 PWs)   bands (ev):

   -40.7551 -40.7296 -38.4544 -38.4009 -17.2271 -17.2259 -17.0684 -17.0085
   -16.8821 -16.8794 -14.8629 -14.8566 -14.6040 -14.4919 -14.1841 -14.1824
    12.3783  12.5337  12.7608  13.6532  14.4730  14.5827  14.6068  15.7454
    16.4182  16.6585  16.8102  16.9001  17.2287  17.3431

          k =-0.0117-0.1291 0.1291 (  2845 PWs)   bands (ev):

   -40.7491 -40.7354 -38.4423 -38.4134 -17.2261 -17.2222 -17.0635 -17.0253
   -16.8821 -16.8725 -14.8793 -14.8574 -14.5800 -14.5017 -14.1846 -14.1783
    12.4667  12.5884  12.9893  13.4937  14.5542  14.7942  14.7945  15.2971
    16.2669  16.4405  16.5865  16.9028  17.0183  17.2278

          k =-0.0000-0.1173 0.1173 (  2850 PWs)   bands (ev):

   -40.7490 -40.7355 -38.4422 -38.4135 -17.2202 -17.2144 -17.0747 -17.0272
   -16.8855 -16.8676 -14.8949 -14.8550 -14.5862 -14.4802 -14.1908 -14.1773
    12.4447  12.7531  13.2457  13.3702  14.5376  14.9132  15.0336  15.0790
    16.0830  16.0861  16.1637  16.4850  17.3187  17.3439

          k = 0.1408 0.0000 0.0000 (  2834 PWs)   bands (ev):

   -40.7488 -40.7357 -38.4415 -38.4142 -17.2320 -17.2320 -17.0512 -17.0214
   -16.8787 -16.8787 -14.8598 -14.8598 -14.5782 -14.5234 -14.1785 -14.1785
    12.4364  12.4490  12.9228  13.4567  14.5652  14.5652  14.8191  15.5040
    16.6216  16.6216  16.8879  16.8879  17.4492  17.4492

          k =-0.0000-0.1408 0.1408 (  2834 PWs)   bands (ev):

   -40.7430 -40.7414 -38.4295 -38.4262 -17.2317 -17.2304 -17.0416 -17.0358
   -16.8787 -16.8759 -14.8665 -14.8601 -14.5548 -14.5408 -14.1787 -14.1770
    12.4366  12.4698  13.2094  13.2242  14.5751  14.6301  15.1168  15.1227
    16.5819  16.6629  16.7315  16.8730  17.2930  17.3118

          k = 0.0469 0.0235-0.0000 (  2826 PWs)   bands (ev):

   -40.7909 -40.6969 -38.5216 -38.3282 -17.1687 -17.1635 -17.1401 -16.9431
   -16.9276 -16.9221 -14.8156 -14.8076 -14.7612 -14.3194 -14.2613 -14.2522
    10.2722  12.9919  13.0190  14.1425  14.1482  14.5562  14.5831  15.2975
    15.3189  16.2104  16.3326  16.7863  18.1240  18.4939

          k = 0.0587 0.0352-0.0117 (  2835 PWs)   bands (ev):

   -40.7852 -40.7019 -38.5117 -38.3394 -17.1787 -17.1706 -17.1406 -16.9455
   -16.9215 -16.9109 -14.8326 -14.8160 -14.7450 -14.3326 -14.2513 -14.2364
    10.6488  13.1582  13.2406  13.9155  14.0025  14.5365  14.6565  15.2660
    15.4335  16.0373  16.1931  17.1414  18.0277  18.0346

          k = 0.0704 0.0469-0.0235 (  2840 PWs)   bands (ev):

   -40.7783 -40.7080 -38.4995 -38.3530 -17.1860 -17.1776 -17.1408 -16.9505
   -16.9151 -16.9006 -14.8503 -14.8252 -14.7316 -14.3409 -14.2398 -14.2226
    11.1322  13.3244  13.5101  13.7263  13.9318  14.5639  14.7431  15.1337
    15.4608  15.8236  15.9564  17.0905  17.6609  18.0315

          k = 0.0821 0.0587-0.0352 (  2842 PWs)   bands (ev):

   -40.7715 -40.7141 -38.4872 -38.3664 -17.1899 -17.1836 -17.1382 -16.9581
   -16.9099 -16.8933 -14.8647 -14.8327 -14.7227 -14.3446 -14.2298 -14.2129
    11.6831  13.2590  13.5990  13.7836  14.0589  14.6304  14.8424  15.0262
    15.3745  15.6025  15.7115  16.2487  18.0933  18.2867

          k =-0.0587-0.0821 0.1056 (  2841 PWs)   bands (ev):

   -40.7670 -40.7183 -38.4788 -38.3754 -17.1906 -17.1881 -17.1346 -16.9646
   -16.9070 -16.8897 -14.8727 -14.8369 -14.7183 -14.3457 -14.2238 -14.2080
    12.2538  12.8215  13.6713  13.9565  14.2692  14.6869  14.9580  14.9926
    15.2630  15.4534  15.5487  15.6282  18.1955  18.2525

          k = 0.0704 0.0235 0.0000 (  2838 PWs)   bands (ev):

   -40.7830 -40.7038 -38.5077 -38.3438 -17.1864 -17.1831 -17.1268 -16.9534
   -16.9135 -16.9079 -14.8334 -14.8236 -14.7272 -14.3597 -14.2368 -14.2291
    10.7775  13.1123  13.3080  13.6942  13.8861  14.4994  14.5034  15.7346
    15.7349  16.1524  16.2673  17.0455  17.7116  18.2398

          k = 0.0821 0.0352-0.0117 (  2838 PWs)   bands (ev):

   -40.7765 -40.7096 -38.4961 -38.3567 -17.1947 -17.1899 -17.1249 -16.9614
   -16.9072 -16.8964 -14.8525 -14.8321 -14.7056 -14.3743 -14.2267 -14.2143
    11.2076  13.1423  13.4792  13.5489  13.8716  14.5363  14.6220  15.6857
    15.8118  15.9668  16.0791  17.4421  17.4809  17.6617

          k = 0.0939 0.0469-0.0235 (  2839 PWs)   bands (ev):

   -40.7696 -40.7159 -38.4833 -38.3706 -17.1991 -17.1941 -17.1231 -16.9723
   -16.9021 -16.8864 -14.8715 -14.8394 -14.6872 -14.3826 -14.2179 -14.2030
    11.7042  13.0757  13.3571  13.7567  14.0110  14.6083  14.8003  15.5290
    15.6826  15.7668  15.8595  16.6419  17.7364  17.9570

          k =-0.0469-0.0939 0.1173 (  2837 PWs)   bands (ev):

   -40.7640 -40.7211 -38.4728 -38.3818 -17.1998 -17.1962 -17.1207 -16.9828
   -16.8994 -16.8798 -14.8856 -14.8436 -14.6756 -14.3854 -14.2133 -14.1959
    12.2182  12.8263  13.3853  13.8551  14.2354  14.6918  15.0393  15.3602
    15.4115  15.6126  15.6984  16.0181  17.8867  17.9328

          k =-0.0352-0.0821 0.1056 (  2840 PWs)   bands (ev):

   -40.7624 -40.7226 -38.4698 -38.3850 -17.1975 -17.1969 -17.1216 -16.9858
   -16.8999 -16.8772 -14.8917 -14.8437 -14.6731 -14.3832 -14.2144 -14.1932
    12.4495  12.6980  13.4439  13.8533  14.3329  14.7346  15.0970  15.2771
    15.3708  15.5611  15.6511  15.7139  17.8866  18.0237

          k =-0.0235-0.0704 0.0939 (  2841 PWs)   bands (ev):

   -40.7659 -40.7193 -38.4764 -38.3780 -17.1972 -17.1916 -17.1276 -16.9781
   -16.9033 -16.8792 -14.8882 -14.8397 -14.6806 -14.3765 -14.2210 -14.1956
    11.9926  13.0866  13.4581  13.7871  14.1751  14.7116  14.9140  15.2892
    15.4817  15.5428  15.7323  16.1326  17.7521  18.1020

          k =-0.0117-0.0587 0.0821 (  2843 PWs)   bands (ev):

   -40.7723 -40.7134 -38.4884 -38.3651 -17.1947 -17.1846 -17.1344 -16.9654
   -16.9091 -16.8861 -14.8754 -14.8325 -14.6971 -14.3655 -14.2312 -14.2039
    11.5042  13.2731  13.5253  13.6858  13.9415  14.6556  14.7560  15.3575
    15.5232  15.6770  15.8962  16.8628  17.7560  17.9438

          k =-0.0000-0.0469 0.0704 (  2841 PWs)   bands (ev):

   -40.7792 -40.7072 -38.5010 -38.3513 -17.1886 -17.1772 -17.1383 -16.9538
   -16.9158 -16.8974 -14.8553 -14.8237 -14.7200 -14.3507 -14.2422 -14.2179
    11.0391  13.2471  13.4754  13.7069  13.8859  14.6219  14.6394  15.4239
    15.4456  15.8698  16.0865  17.4659  17.6321  17.9793

          k = 0.0939 0.0235 0.0000 (  2833 PWs)   bands (ev):

   -40.7728 -40.7130 -38.4890 -38.3643 -17.2048 -17.2030 -17.1083 -16.9711
   -16.8986 -16.8937 -14.8499 -14.8403 -14.6821 -14.4084 -14.2118 -14.2062
    11.4196  12.9377  13.2051  13.6957  13.8473  14.5272  14.5387  16.1399
    16.1622  16.2112  16.2250  17.2166  17.3660  17.6453

          k = 0.1056 0.0352-0.0117 (  2834 PWs)   bands (ev):

   -40.7661 -40.7192 -38.4762 -38.3781 -17.2099 -17.2069 -17.1039 -16.9849
   -16.8933 -16.8836 -14.8680 -14.8475 -14.6557 -14.4238 -14.2042 -14.1950
    11.8581  12.8564  13.0640  13.7943  14.0452  14.5953  14.6942  15.8550
    15.9769  16.1454  16.1945  16.9859  17.2978  17.6467

          k =-0.0352-0.1056 0.1291 (  2841 PWs)   bands (ev):

   -40.7598 -40.7251 -38.4641 -38.3909 -17.2108 -17.2067 -17.1010 -16.9998
   -16.8908 -16.8752 -14.8860 -14.8517 -14.6349 -14.4314 -14.2005 -14.1875
    12.3016  12.7361  13.0670  13.7732  14.3045  14.6851  14.9505  15.5013
    15.7975  15.9692  15.9868  16.3890  17.4932  17.6193

          k =-0.0235-0.0939 0.1173 (  2842 PWs)   bands (ev):

   -40.7568 -40.7280 -38.4583 -38.3970 -17.2077 -17.2046 -17.1027 -17.0074
   -16.8915 -16.8701 -14.8983 -14.8517 -14.6276 -14.4282 -14.2024 -14.1837
    12.5129  12.7286  13.1811  13.6905  14.4486  14.7798  15.2278  15.3018
    15.6440  15.7027  15.8131  15.9923  17.7173  17.7364

          k =-0.0117-0.0821 0.1056 (  2839 PWs)   bands (ev):

   -40.7594 -40.7254 -38.4635 -38.3915 -17.2025 -17.2013 -17.1124 -17.0002
   -16.8955 -16.8698 -14.9015 -14.8478 -14.6383 -14.4133 -14.2096 -14.1844
    12.2504  13.0262  13.2959  13.6283  14.3783  14.7922  15.0786  15.4291
    15.5755  15.6343  15.8093  15.9311  17.5272  17.9395

          k =-0.0000-0.0704 0.0939 (  2837 PWs)   bands (ev):

   -40.7655 -40.7197 -38.4755 -38.3789 -17.1998 -17.1931 -17.1250 -16.9834
   -16.9018 -16.8752 -14.8937 -14.8408 -14.6637 -14.3907 -14.2201 -14.1909
    11.8980  13.1983  13.3836  13.6686  14.1569  14.7290  14.8890  15.5027
    15.5311  15.5667  15.8119  16.4657  17.4210  18.0827

          k = 0.1173 0.0235-0.0000 (  2841 PWs)   bands (ev):

   -40.7611 -40.7239 -38.4664 -38.3884 -17.2197 -17.2189 -17.0845 -16.9960
   -16.8859 -16.8826 -14.8615 -14.8545 -14.6295 -14.4614 -14.1919 -14.1884
    12.1136  12.6609  12.8394  13.7662  14.2172  14.5871  14.6023  15.9147
    16.2168  16.6074  16.6297  16.8918  17.1828  17.4417

          k =-0.0235-0.1173 0.1408 (  2844 PWs)   bands (ev):

   -40.7545 -40.7301 -38.4533 -38.4020 -17.2209 -17.2183 -17.0781 -17.0138
   -16.8831 -16.8752 -14.8767 -14.8591 -14.6004 -14.4774 -14.1886 -14.1824
    12.4458  12.6188  12.8550  13.6528  14.4819  14.6758  14.7805  15.5259
    16.0716  16.3907  16.4646  16.7275  17.1300  17.3597

          k =-0.0117-0.1056 0.1291 (  2840 PWs)   bands (ev):

   -40.7504 -40.7341 -38.4451 -38.4105 -17.2177 -17.2133 -17.0786 -17.0262
   -16.8842 -16.8690 -14.8926 -14.8589 -14.5871 -14.4764 -14.1910 -14.1791
    12.5035  12.7377  13.0686  13.4960  14.5904  14.8395  15.0730  15.1979
    15.9311  16.0604  16.0983  16.3565  17.3959  17.4477

          k =-0.0000-0.0939 0.1173 (  2834 PWs)   bands (ev):

   -40.7531 -40.7315 -38.4507 -38.4048 -17.2107 -17.2075 -17.0933 -17.0195
   -16.8886 -16.8666 -14.9024 -14.8547 -14.6034 -14.4504 -14.1987 -14.1793
    12.4144  12.9272  13.2390  13.4440  14.5401  14.8821  15.0993  15.4382
    15.6813  15.7985  15.8389  16.0295  17.6594  17.6650

          k =-0.0117-0.1291 0.1525 (  2852 PWs)   bands (ev):

   -40.7486 -40.7359 -38.4411 -38.4146 -17.2280 -17.2278 -17.0563 -17.0256
   -16.8782 -16.8770 -14.8662 -14.8636 -14.5734 -14.5168 -14.1805 -14.1793
    12.4784  12.4978  12.9528  13.4668  14.6221  14.6312  14.8075  15.3971
    16.3739  16.5966  16.8345  16.8496  17.1328  17.2348

          k =-0.0000-0.1173 0.1408 (  2849 PWs)   bands (ev):

   -40.7445 -40.7399 -38.4328 -38.4230 -17.2250 -17.2222 -17.0548 -17.0385
   -16.8793 -16.8724 -14.8792 -14.8635 -14.5575 -14.5194 -14.1829 -14.1782
    12.4883  12.5879  13.2210  13.2641  14.6446  14.8135  15.0397  15.0664
    16.2367  16.2529  16.5621  16.7391  17.1795  17.2050

          k = 0.0939 0.0469-0.0000 (  2836 PWs)   bands (ev):

   -40.7700 -40.7155 -38.4839 -38.3699 -17.2016 -17.1957 -17.1199 -16.9750
   -16.9011 -16.8848 -14.8722 -14.8404 -14.6762 -14.3941 -14.2183 -14.1994
    11.6207  13.0802  13.2962  13.6860  14.0013  14.6496  14.6945  15.7485
    15.7883  15.8444  15.9356  17.0590  17.5903  17.6683

          k =-0.0469-0.0939 0.1408 (  2835 PWs)   bands (ev):

   -40.7633 -40.7218 -38.4710 -38.3837 -17.2044 -17.1999 -17.1141 -16.9912
   -16.8954 -16.8761 -14.8880 -14.8482 -14.6498 -14.4102 -14.2101 -14.1899
    12.0521  12.9817  13.2117  13.6857  14.2789  14.7420  14.8875  15.5730
    15.6891  15.7302  15.8212  16.4272  17.5213  17.7911

          k =-0.0352-0.0821 0.1291 (  2839 PWs)   bands (ev):

   -40.7584 -40.7264 -38.4614 -38.3937 -17.2044 -17.2027 -17.1082 -17.0039
   -16.8920 -16.8717 -14.8965 -14.8529 -14.6337 -14.4200 -14.2049 -14.1857
    12.4393  12.7713  13.2457  13.6360  14.5262  14.8052  15.1417  15.3736
    15.5664  15.6767  15.7423  15.9083  17.6680  17.9376

          k =-0.0352-0.1056 0.1525 (  2833 PWs)   bands (ev):

   -40.7594 -40.7255 -38.4631 -38.3919 -17.2126 -17.2102 -17.0961 -17.0033
   -16.8873 -16.8762 -14.8805 -14.8571 -14.6223 -14.4461 -14.1978 -14.1861
    12.2300  12.7985  12.9633  13.6905  14.3690  14.7459  14.7874  15.6731
    15.8113  16.1192  16.1251  16.5984  17.4139  17.4333

          k =-0.0235-0.0939 0.1408 (  2833 PWs)   bands (ev):

   -40.7534 -40.7312 -38.4512 -38.4042 -17.2121 -17.2100 -17.0892 -17.0214
   -16.8836 -16.8710 -14.8909 -14.8633 -14.5950 -14.4624 -14.1938 -14.1820
    12.5237  12.7439  13.0149  13.5369  14.6687  14.8463  15.0444  15.4319
    15.6970  15.9344  15.9442  16.1299  17.5084  17.6462

          k =-0.0117-0.0821 0.1291 (  2834 PWs)   bands (ev):

   -40.7519 -40.7326 -38.4483 -38.4072 -17.2096 -17.2083 -17.0902 -17.0262
   -16.8842 -16.8685 -14.8974 -14.8631 -14.5907 -14.4607 -14.1951 -14.1808
    12.5428  12.8162  13.1288  13.4299  14.7525  14.9465  15.2244  15.3845
    15.6226  15.7207  15.7851  15.8861  17.7076  17.7829

          k =-0.0000-0.0704 0.1173 (  2840 PWs)   bands (ev):

   -40.7566 -40.7281 -38.4578 -38.3974 -17.2068 -17.2052 -17.1021 -17.0119
   -16.8887 -16.8699 -14.8970 -14.8571 -14.6138 -14.4388 -14.2015 -14.1828
    12.3472  12.9445  13.1242  13.5317  14.5717  14.9060  15.0363  15.5128
    15.6014  15.7417  15.8081  16.0319  17.4890  17.9496

          k =-0.0117-0.1056 0.1525 (  2838 PWs)   bands (ev):

   -40.7480 -40.7365 -38.4400 -38.4157 -17.2188 -17.2182 -17.0674 -17.0354
   -16.8774 -16.8735 -14.8796 -14.8710 -14.5633 -14.5034 -14.1848 -14.1808
    12.5774  12.6256  13.0144  13.4312  14.7891  14.8248  14.8873  15.3010
    15.9324  16.1306  16.3288  16.3955  17.3619  17.3737

          k =-0.0000-0.0939 0.1408 (  2834 PWs)   bands (ev):

   -40.7459 -40.7385 -38.4357 -38.4201 -17.2152 -17.2133 -17.0691 -17.0439
   -16.8783 -16.8702 -14.8891 -14.8711 -14.5549 -14.5013 -14.1870 -14.1803
    12.5853  12.7362  13.1812  13.2656  14.8429  15.0809  15.1214  15.1304
    15.8199  15.8255  15.9785  16.1173  17.5739  17.5783

          k =-0.0117-0.0821 0.1525 (  2832 PWs)   bands (ev):

   -40.7471 -40.7374 -38.4382 -38.4176 -17.2116 -17.2116 -17.0745 -17.0436
   -16.8774 -16.8707 -14.8894 -14.8746 -14.5558 -14.4956 -14.1879 -14.1815
    12.6400  12.7577  13.0865  13.3128  14.9860  15.0824  15.1240  15.3540
    15.6054  15.7486  15.8354  15.8748  17.6801  17.8318

     the Fermi energy is    15.6958 ev

!    total energy              =    -469.16141107 Ry
     Harris-Foulkes estimate   =    -469.16141107 Ry
     estimated scf accuracy    <          5.6E-14 Ry

     The total energy is the sum of the following terms:

     one-electron contribution =    -114.31244898 Ry
     hartree contribution      =      78.55515572 Ry
     xc contribution           =     -65.95392590 Ry
     ewald contribution        =    -367.44706378 Ry
     smearing contrib. (-TS)   =      -0.00312812 Ry

     convergence has been achieved in  37 iterations

     Forces acting on atoms (cartesian axes, Ry/au):

     atom    1 type  2   force =     0.00000000    0.00000000   -0.00000000
     atom    2 type  2   force =     0.00000000   -0.00000000   -0.00000000
     atom    3 type  1   force =     0.00000000   -0.00000000   -0.00000000
     atom    4 type  1   force =     0.00000000   -0.00000000   -0.00000000

     Total force =     0.000000     Total SCF correction =     0.000000


     Computing stress (Cartesian axis) and pressure

          total   stress  (Ry/bohr**3)                   (kbar)     P=   -0.84
  -0.00000572  -0.00000000  -0.00000000         -0.84     -0.00     -0.00
  -0.00000000  -0.00000572  -0.00000000         -0.00     -0.84     -0.00
   0.00000000  -0.00000000  -0.00000572          0.00     -0.00     -0.84

 
     init_run     :     24.00s CPU     24.90s WALL (       2 calls)
     electrons    :   6368.77s CPU   6572.38s WALL (       9 calls)
     update_pot   :     38.58s CPU     38.68s WALL (       7 calls)
     forces       :     39.97s CPU     43.33s WALL (       9 calls)
     stress       :     99.54s CPU    109.56s WALL (       9 calls)

     Called by init_run:
     wfcinit      :     17.72s CPU     17.88s WALL (       2 calls)
     potinit      :      1.85s CPU      1.90s WALL (       2 calls)
     hinit0       :      3.67s CPU      3.69s WALL (       2 calls)

     Called by electrons:
     c_bands      :   5208.91s CPU   5223.34s WALL (     274 calls)
     sum_band     :   1013.08s CPU   1106.31s WALL (     274 calls)
     v_of_rho     :     48.07s CPU     48.68s WALL (     280 calls)
     newd         :     95.08s CPU    193.36s WALL (     280 calls)
     mix_rho      :      5.33s CPU      5.34s WALL (     274 calls)

     Called by c_bands:
     init_us_2    :     98.22s CPU     98.64s WALL (   47712 calls)
     cegterg      :   4711.64s CPU   4723.31s WALL (   23016 calls)

     Called by sum_band:
     sum_band:bec :      0.67s CPU      0.67s WALL (   23016 calls)
     addusdens    :    133.71s CPU    224.85s WALL (     274 calls)

     Called by *egterg:
     h_psi        :   3900.78s CPU   3911.13s WALL (   88275 calls)
     s_psi        :    138.11s CPU    138.36s WALL (   88275 calls)
     g_psi        :     29.31s CPU     29.29s WALL (   65091 calls)
     cdiaghg      :    150.66s CPU    150.96s WALL (   87267 calls)

     Called by h_psi:
     h_psi:pot    :   3886.70s CPU   3896.42s WALL (   88275 calls)
     h_psi:calbec :    131.34s CPU    131.75s WALL (   88275 calls)
     vloc_psi     :   3616.65s CPU   3625.64s WALL (   88275 calls)
     add_vuspsi   :    138.20s CPU    138.42s WALL (   88275 calls)

     General routines
     calbec       :    186.11s CPU    186.56s WALL (  115071 calls)
     fft          :     20.35s CPU     20.37s WALL (    3866 calls)
     ffts         :      0.52s CPU      0.52s WALL (     554 calls)
     fftw         :   3865.26s CPU   3874.95s WALL ( 4181104 calls)
     interpolate  :      1.98s CPU      1.99s WALL (     280 calls)
 
     Parallel routines
 
     PWSCF        :     1h49m CPU       49h 1m WALL

      53h
 
   This run was terminated on:   5:44:41  14Jan2020            

=------------------------------------------------------------------------------=
   JOB DONE.
=------------------------------------------------------------------------------=
