
     Program PWSCF v.6.3MaX starts on 26Feb2020 at 21:36:42 

     This program is part of the open-source Quantum ESPRESSO suite
     for quantum simulation of materials; please cite
         "P. Giannozzi et al., J. Phys.:Condens. Matter 21 395502 (2009);
         "P. Giannozzi et al., J. Phys.:Condens. Matter 29 465901 (2017);
          URL http://www.quantum-espresso.org", 
     in publications or presentations arising from this work. More details at
     http://www.quantum-espresso.org/quote

     Parallel version (MPI), running on     4 processors

     MPI processes distributed on     1 nodes
     R & G space division:  proc/nbgrp/npool/nimage =       4
     Waiting for input...
     Reading input from standard input

     Current dimensions of program PWSCF are:
     Max number of different atomic species (ntypx) = 10
     Max number of k-points (npk) =  40000
     Max angular momentum in pseudopotentials (lmaxx) =  3
     Message from routine iosys:
     minimal I/O required, wf_collect reset to FALSE

     Subspace diagonalization in iterative solution of the eigenvalue problem:
     a serial algorithm will be used

 
     Parallelization info
     --------------------
     sticks:   dense  smooth     PW     G-vecs:    dense   smooth      PW
     Min        1204     482    153                41531    10522    1901
     Max        1205     483    154                41532    10523    1902
     Sum        4817    1929    615               166125    42089    7605
 


     bravais-lattice index     =            0
     lattice parameter (alat)  =       1.8897  a.u.
     unit-cell volume          =     880.0102 (a.u.)^3
     number of atoms/cell      =            6
     number of atomic types    =            2
     number of electrons       =        76.00
     number of Kohn-Sham states=           46
     kinetic-energy cutoff     =      50.0000  Ry
     charge density cutoff     =     500.0000  Ry
     convergence threshold     =      1.0E-10
     mixing beta               =       0.6000
     number of iterations used =            8  plain     mixing
     Exchange-correlation      = SLA PW PBE PBE ( 1  4  3  4 0 0)
     nstep                     =           50


     celldm(1)=   1.889726  celldm(2)=   0.000000  celldm(3)=   0.000000
     celldm(4)=   0.000000  celldm(5)=   0.000000  celldm(6)=   0.000000

     crystal axes: (cart. coord. in units of alat)
               a(1) = (   5.274095   1.758031   1.758031 )  
               a(2) = (   1.758031  -5.274095   1.758031 )  
               a(3) = (  -1.758031   1.758031  -5.274095 )  

     reciprocal axes: (cart. coord. in units 2 pi/alat)
               b(1) = (  0.189606  0.047402 -0.047402 )  
               b(2) = (  0.094803 -0.189606 -0.094803 )  
               b(3) = (  0.094803 -0.047402 -0.237008 )  


     PseudoPot. # 1 for Nb read from file:
     ./Nb.pbe-nsp-van.UPF
     MD5 check sum: 0a22fc7fb0ba19a08ca5db297a5d2854
     Pseudo is Ultrasoft + core correction, Zval = 13.0
     Generated by new atomic code, or converted to UPF format
     Using radial grid of  887 points,  6 beta functions with: 
                l(1) =   0
                l(2) =   0
                l(3) =   1
                l(4) =   1
                l(5) =   2
                l(6) =   2
     Q(r) pseudized with  6 coefficients,  rinner =    1.000   1.000   1.000
                                                       1.000   1.000

     PseudoPot. # 2 for Ti read from file:
     ./Ti.pbe-sp-van_ak.UPF
     MD5 check sum: f98fea3e8887528921fefa5636a534ca
     Pseudo is Ultrasoft, Zval = 12.0
     Generated by new atomic code, or converted to UPF format
     Using radial grid of  851 points,  6 beta functions with: 
                l(1) =   0
                l(2) =   0
                l(3) =   1
                l(4) =   1
                l(5) =   2
                l(6) =   2
     Q(r) pseudized with  8 coefficients,  rinner =    1.000   1.000   1.000
                                                       1.000   1.000

     atomic species   valence    mass     pseudopotential
        Nb            13.00    92.90638     Nb( 1.00)
        Ti            12.00    47.86700     Ti( 1.00)

      4 Sym. Ops., with inversion, found



   Cartesian axes

     site n.     atom                  positions (alat units)
         1           Nb  tau(   1) = (   3.5160633  -3.5160633   0.0000000  )
         2           Ti  tau(   2) = (   3.5160633   0.0000000   0.0000000  )
         3           Ti  tau(   3) = (   1.7580316  -1.7580316  -1.7580316  )
         4           Nb  tau(   4) = (   5.2740949  -1.7580316   1.7580316  )
         5           Nb  tau(   5) = (   5.2740949  -1.7580316  -1.7580316  )
         6           Nb  tau(   6) = (   0.0000000   0.0000000  -3.5160633  )

     number of k points=   476  Marzari-Vanderbilt smearing, width (Ry)=  0.0200

     Number of k-points >= 100: set verbosity='high' to print them.

     Dense  grid:   166125 G-vectors     FFT dimensions: (  80,  80,  80)

     Smooth grid:    42089 G-vectors     FFT dimensions: (  50,  50,  50)

     Estimated max dynamical RAM per process >     599.38 MB

     Estimated total dynamical RAM >       2.34 GB

     Initial potential from superposition of free atoms

     starting charge   73.98898, renormalised to   76.00000
     Starting wfcs are   72 randomized atomic wfcs

     total cpu time spent up to now is       44.6 secs

     Self-consistent Calculation

     iteration #  1     ecut=    50.00 Ry     beta= 0.60
     Davidson diagonalization with overlap
     ethr =  1.00E-02,  avg # of iterations =  2.4

     total cpu time spent up to now is      133.5 secs

     total energy              =    -671.15866759 Ry
     Harris-Foulkes estimate   =    -708.24155928 Ry
     estimated scf accuracy    <      46.47049869 Ry

     iteration #  2     ecut=    50.00 Ry     beta= 0.60
     Davidson diagonalization with overlap
     ethr =  1.00E-02,  avg # of iterations =  7.3

     total cpu time spent up to now is      314.3 secs

     total energy              =    -683.78073979 Ry
     Harris-Foulkes estimate   =    -759.05817432 Ry
     estimated scf accuracy    <     236.47536644 Ry

     iteration #  3     ecut=    50.00 Ry     beta= 0.60
     Davidson diagonalization with overlap
     ethr =  1.00E-02,  avg # of iterations =  5.0

     total cpu time spent up to now is      452.9 secs

     total energy              =    -707.29029388 Ry
     Harris-Foulkes estimate   =    -710.32565537 Ry
     estimated scf accuracy    <      23.65095010 Ry

     iteration #  4     ecut=    50.00 Ry     beta= 0.60
     Davidson diagonalization with overlap
     ethr =  1.00E-02,  avg # of iterations =  1.5

     total cpu time spent up to now is      525.2 secs

     total energy              =    -707.48990229 Ry
     Harris-Foulkes estimate   =    -708.10723393 Ry
     estimated scf accuracy    <      11.66970260 Ry

     iteration #  5     ecut=    50.00 Ry     beta= 0.60
     Davidson diagonalization with overlap
     ethr =  1.00E-02,  avg # of iterations =  1.0

     total cpu time spent up to now is      597.1 secs

     total energy              =    -706.28598508 Ry
     Harris-Foulkes estimate   =    -707.53156451 Ry
     estimated scf accuracy    <      10.18723438 Ry

     iteration #  6     ecut=    50.00 Ry     beta= 0.60
     Davidson diagonalization with overlap
     ethr =  1.00E-02,  avg # of iterations =  1.0

     total cpu time spent up to now is      667.6 secs

     total energy              =    -705.54396594 Ry
     Harris-Foulkes estimate   =    -706.36982355 Ry
     estimated scf accuracy    <       7.85810904 Ry

     iteration #  7     ecut=    50.00 Ry     beta= 0.60
     Davidson diagonalization with overlap
     ethr =  1.00E-02,  avg # of iterations =  1.0

     total cpu time spent up to now is      738.9 secs

     total energy              =    -704.65238358 Ry
     Harris-Foulkes estimate   =    -705.62964451 Ry
     estimated scf accuracy    <       5.63882255 Ry

     iteration #  8     ecut=    50.00 Ry     beta= 0.60
     Davidson diagonalization with overlap
     ethr =  7.42E-03,  avg # of iterations =  2.3

     total cpu time spent up to now is      815.6 secs

     total energy              =    -704.99796509 Ry
     Harris-Foulkes estimate   =    -704.81199179 Ry
     estimated scf accuracy    <       2.33862435 Ry

     iteration #  9     ecut=    50.00 Ry     beta= 0.60
     Davidson diagonalization with overlap
     ethr =  3.08E-03,  avg # of iterations =  2.9

     total cpu time spent up to now is      892.9 secs

     total energy              =    -704.50668134 Ry
     Harris-Foulkes estimate   =    -705.06418693 Ry
     estimated scf accuracy    <       2.41386537 Ry

     iteration # 10     ecut=    50.00 Ry     beta= 0.60
     Davidson diagonalization with overlap
     ethr =  3.08E-03,  avg # of iterations =  4.6

     total cpu time spent up to now is     1004.9 secs

     total energy              =    -705.25838337 Ry
     Harris-Foulkes estimate   =    -705.06859400 Ry
     estimated scf accuracy    <       2.64357247 Ry

     iteration # 11     ecut=    50.00 Ry     beta= 0.60
     Davidson diagonalization with overlap
     ethr =  3.08E-03,  avg # of iterations =  1.0

     total cpu time spent up to now is     1075.2 secs

     total energy              =    -705.18991895 Ry
     Harris-Foulkes estimate   =    -705.36848691 Ry
     estimated scf accuracy    <       8.06697674 Ry

     iteration # 12     ecut=    50.00 Ry     beta= 0.60
     Davidson diagonalization with overlap
     ethr =  3.08E-03,  avg # of iterations =  1.0

     total cpu time spent up to now is     1145.6 secs

     total energy              =    -704.73266917 Ry
     Harris-Foulkes estimate   =    -705.21385153 Ry
     estimated scf accuracy    <       5.75039748 Ry

     iteration # 13     ecut=    50.00 Ry     beta= 0.60
     Davidson diagonalization with overlap
     ethr =  3.08E-03,  avg # of iterations =  1.0

     total cpu time spent up to now is     1216.0 secs

     total energy              =    -704.90807578 Ry
     Harris-Foulkes estimate   =    -704.89006375 Ry
     estimated scf accuracy    <       0.52542362 Ry

     iteration # 14     ecut=    50.00 Ry     beta= 0.60
     Davidson diagonalization with overlap
     ethr =  6.91E-04,  avg # of iterations =  1.0

     total cpu time spent up to now is     1287.9 secs

     total energy              =    -704.88129119 Ry
     Harris-Foulkes estimate   =    -704.91746662 Ry
     estimated scf accuracy    <       0.93309631 Ry

     iteration # 15     ecut=    50.00 Ry     beta= 0.60
     Davidson diagonalization with overlap
     ethr =  6.91E-04,  avg # of iterations =  1.0

     total cpu time spent up to now is     1368.1 secs

     total energy              =    -704.84505405 Ry
     Harris-Foulkes estimate   =    -704.89149247 Ry
     estimated scf accuracy    <       0.36815487 Ry

     iteration # 16     ecut=    50.00 Ry     beta= 0.60
     Davidson diagonalization with overlap
     ethr =  4.84E-04,  avg # of iterations =  4.5

     total cpu time spent up to now is     1464.0 secs

     total energy              =    -704.89240409 Ry
     Harris-Foulkes estimate   =    -704.89665922 Ry
     estimated scf accuracy    <       0.06908362 Ry

     iteration # 17     ecut=    50.00 Ry     beta= 0.60
     Davidson diagonalization with overlap
     ethr =  9.09E-05,  avg # of iterations =  4.8

     total cpu time spent up to now is     1557.0 secs

     total energy              =    -704.89474244 Ry
     Harris-Foulkes estimate   =    -704.89421465 Ry
     estimated scf accuracy    <       0.03304524 Ry

     iteration # 18     ecut=    50.00 Ry     beta= 0.60
     Davidson diagonalization with overlap
     c_bands:  1 eigenvalues not converged
     ethr =  4.35E-05,  avg # of iterations =  3.0

     total cpu time spent up to now is     1642.0 secs

     total energy              =    -704.88822084 Ry
     Harris-Foulkes estimate   =    -704.89505715 Ry
     estimated scf accuracy    <       0.04064022 Ry

     iteration # 19     ecut=    50.00 Ry     beta= 0.60
     Davidson diagonalization with overlap
     ethr =  4.35E-05,  avg # of iterations =  3.9

     total cpu time spent up to now is     1735.6 secs

     total energy              =    -704.89217570 Ry
     Harris-Foulkes estimate   =    -704.89313380 Ry
     estimated scf accuracy    <       0.00815456 Ry

     iteration # 20     ecut=    50.00 Ry     beta= 0.60
     Davidson diagonalization with overlap
     c_bands:  1 eigenvalues not converged
     c_bands:  1 eigenvalues not converged
     c_bands:  1 eigenvalues not converged
     ethr =  1.07E-05,  avg # of iterations =  6.6

     total cpu time spent up to now is     1849.1 secs

     total energy              =    -704.89278448 Ry
     Harris-Foulkes estimate   =    -704.89303741 Ry
     estimated scf accuracy    <       0.00630761 Ry

     iteration # 21     ecut=    50.00 Ry     beta= 0.60
     Davidson diagonalization with overlap
     ethr =  8.30E-06,  avg # of iterations =  1.0

     total cpu time spent up to now is     1929.3 secs

     total energy              =    -704.89230969 Ry
     Harris-Foulkes estimate   =    -704.89284063 Ry
     estimated scf accuracy    <       0.00385713 Ry

     iteration # 22     ecut=    50.00 Ry     beta= 0.60
     Davidson diagonalization with overlap
     ethr =  5.08E-06,  avg # of iterations =  3.9

     total cpu time spent up to now is     2024.3 secs

     total energy              =    -704.89260401 Ry
     Harris-Foulkes estimate   =    -704.89260857 Ry
     estimated scf accuracy    <       0.00002524 Ry

     iteration # 23     ecut=    50.00 Ry     beta= 0.60
     Davidson diagonalization with overlap
     ethr =  3.32E-08,  avg # of iterations =  6.5

     total cpu time spent up to now is     2170.0 secs

     total energy              =    -704.89263799 Ry
     Harris-Foulkes estimate   =    -704.89265383 Ry
     estimated scf accuracy    <       0.00014904 Ry

     iteration # 24     ecut=    50.00 Ry     beta= 0.60
     Davidson diagonalization with overlap
     ethr =  3.32E-08,  avg # of iterations =  4.1

     total cpu time spent up to now is     2263.1 secs

     total energy              =    -704.89264299 Ry
     Harris-Foulkes estimate   =    -704.89264413 Ry
     estimated scf accuracy    <       0.00000767 Ry

     iteration # 25     ecut=    50.00 Ry     beta= 0.60
     Davidson diagonalization with overlap
     ethr =  1.01E-08,  avg # of iterations =  3.8

     total cpu time spent up to now is     2359.8 secs

     total energy              =    -704.89264419 Ry
     Harris-Foulkes estimate   =    -704.89264428 Ry
     estimated scf accuracy    <       0.00000136 Ry

     iteration # 26     ecut=    50.00 Ry     beta= 0.60
     Davidson diagonalization with overlap
     ethr =  1.79E-09,  avg # of iterations =  4.4

     total cpu time spent up to now is     2459.6 secs

     total energy              =    -704.89264417 Ry
     Harris-Foulkes estimate   =    -704.89264438 Ry
     estimated scf accuracy    <       0.00000246 Ry

     iteration # 27     ecut=    50.00 Ry     beta= 0.60
     Davidson diagonalization with overlap
     ethr =  1.79E-09,  avg # of iterations =  1.0

     total cpu time spent up to now is     2537.9 secs

     total energy              =    -704.89264414 Ry
     Harris-Foulkes estimate   =    -704.89264422 Ry
     estimated scf accuracy    <       0.00000069 Ry

     iteration # 28     ecut=    50.00 Ry     beta= 0.60
     Davidson diagonalization with overlap
     ethr =  9.08E-10,  avg # of iterations =  3.3

     total cpu time spent up to now is     2629.4 secs

     total energy              =    -704.89264421 Ry
     Harris-Foulkes estimate   =    -704.89264421 Ry
     estimated scf accuracy    <          4.6E-09 Ry

     iteration # 29     ecut=    50.00 Ry     beta= 0.60
     Davidson diagonalization with overlap
     ethr =  6.05E-12,  avg # of iterations =  5.3

     total cpu time spent up to now is     2760.0 secs

     total energy              =    -704.89264421 Ry
     Harris-Foulkes estimate   =    -704.89264421 Ry
     estimated scf accuracy    <          3.3E-09 Ry

     iteration # 30     ecut=    50.00 Ry     beta= 0.60
     Davidson diagonalization with overlap
     ethr =  4.31E-12,  avg # of iterations =  1.0

     total cpu time spent up to now is     2837.9 secs

     total energy              =    -704.89264421 Ry
     Harris-Foulkes estimate   =    -704.89264421 Ry
     estimated scf accuracy    <          5.7E-10 Ry

     iteration # 31     ecut=    50.00 Ry     beta= 0.60
     Davidson diagonalization with overlap
     ethr =  7.48E-13,  avg # of iterations =  3.8

     total cpu time spent up to now is     2947.4 secs

     total energy              =    -704.89264421 Ry
     Harris-Foulkes estimate   =    -704.89264421 Ry
     estimated scf accuracy    <          2.7E-10 Ry

     iteration # 32     ecut=    50.00 Ry     beta= 0.60
     Davidson diagonalization with overlap
     ethr =  3.53E-13,  avg # of iterations =  2.1

     total cpu time spent up to now is     3030.2 secs

     End of self-consistent calculation

     Number of k-points >= 100: set verbosity='high' to print the bands.

     the Fermi energy is    12.9099 ev

!    total energy              =    -704.89264421 Ry
     Harris-Foulkes estimate   =    -704.89264421 Ry
     estimated scf accuracy    <          6.6E-11 Ry

     The total energy is the sum of the following terms:

     one-electron contribution =    -199.65181131 Ry
     hartree contribution      =     124.08677781 Ry
     xc contribution           =    -101.74178565 Ry
     ewald contribution        =    -527.58652031 Ry
     smearing contrib. (-TS)   =       0.00069526 Ry

     convergence has been achieved in  32 iterations

     Forces acting on atoms (cartesian axes, Ry/au):

     atom    1 type  1   force =     0.00000000    0.00000000    0.00000000
     atom    2 type  2   force =     0.01058731    0.00196690   -0.00196690
     atom    3 type  2   force =    -0.01058731   -0.00196690    0.00196690
     atom    4 type  1   force =     0.00672274   -0.00765649    0.00765649
     atom    5 type  1   force =     0.00000000    0.00000000    0.00000000
     atom    6 type  1   force =    -0.00672274    0.00765649   -0.00765649

     Total force =     0.023760     Total SCF correction =     0.000007


     Computing stress (Cartesian axis) and pressure

          total   stress  (Ry/bohr**3)                   (kbar)     P= -208.70
  -0.00143223   0.00000703  -0.00000703       -210.69      1.03     -1.03
   0.00000703  -0.00141198  -0.00000992          1.03   -207.71     -1.46
  -0.00000703  -0.00000992  -0.00141198         -1.03     -1.46   -207.71


     BFGS Geometry Optimization

     number of scf cycles    =   1
     number of bfgs steps    =   0

     enthalpy new            =    -704.8926442133 Ry

     new trust radius        =       0.2124397214 bohr
     new conv_thr            =            1.0E-10 Ry

     new unit-cell volume =    789.65473 a.u.^3 (   117.01476 Ang^3 )
     density =      6.63223 g/cm^3

CELL_PARAMETERS (alat=  1.88972599)
   5.085252181   1.696464665   1.694610921
   1.693848231  -5.088048694   1.696973107
  -1.693848231   1.696973107  -5.088048694

ATOMIC_POSITIONS (angstrom)
Nb       3.389550206  -3.391329808   0.000254221
Ti       3.395570444   0.001623254  -0.001623254
Ti       1.689681737  -1.696234175  -1.694841411
Nb       5.088062986  -1.699392057   1.699392057
Nb       5.085252181  -1.694610921  -1.696464665
Nb      -0.002810805   0.004781136  -3.395856722


     NEW-OLD atomic charge density approx. for the potential
     extrapolated charge   67.53388, renormalised to   76.00000

     total cpu time spent up to now is     3066.0 secs

     Self-consistent Calculation

     iteration #  1     ecut=    50.00 Ry     beta= 0.60
     Davidson diagonalization with overlap
     c_bands:  1 eigenvalues not converged
     c_bands:  1 eigenvalues not converged
     c_bands:  1 eigenvalues not converged
     c_bands:  1 eigenvalues not converged
     c_bands:  1 eigenvalues not converged
     c_bands:  1 eigenvalues not converged
     c_bands:  1 eigenvalues not converged
     c_bands:  1 eigenvalues not converged
     c_bands:  2 eigenvalues not converged
     c_bands:  1 eigenvalues not converged
     c_bands:  1 eigenvalues not converged
     c_bands:  1 eigenvalues not converged
     c_bands:  1 eigenvalues not converged
     c_bands:  1 eigenvalues not converged
     c_bands:  1 eigenvalues not converged
     c_bands:  1 eigenvalues not converged
     c_bands:  1 eigenvalues not converged
     c_bands:  1 eigenvalues not converged
     c_bands:  1 eigenvalues not converged
     c_bands:  1 eigenvalues not converged
     c_bands:  2 eigenvalues not converged
     c_bands:  1 eigenvalues not converged
     c_bands:  1 eigenvalues not converged
     c_bands:  1 eigenvalues not converged
     c_bands:  1 eigenvalues not converged
     c_bands:  1 eigenvalues not converged
     c_bands:  1 eigenvalues not converged
     c_bands:  1 eigenvalues not converged
     c_bands:  1 eigenvalues not converged
     c_bands:  1 eigenvalues not converged
     c_bands:  1 eigenvalues not converged
     c_bands:  1 eigenvalues not converged
     c_bands:  1 eigenvalues not converged
     c_bands:  1 eigenvalues not converged
     c_bands:  1 eigenvalues not converged
     c_bands:  1 eigenvalues not converged
     c_bands:  1 eigenvalues not converged
     c_bands:  1 eigenvalues not converged
     c_bands:  1 eigenvalues not converged
     c_bands:  1 eigenvalues not converged
     c_bands:  1 eigenvalues not converged
     c_bands:  1 eigenvalues not converged
     c_bands:  1 eigenvalues not converged
     c_bands:  1 eigenvalues not converged
     c_bands:  1 eigenvalues not converged
     c_bands:  1 eigenvalues not converged
     c_bands:  2 eigenvalues not converged
     c_bands:  1 eigenvalues not converged
     c_bands:  1 eigenvalues not converged
     c_bands:  1 eigenvalues not converged
     c_bands:  1 eigenvalues not converged
     c_bands:  1 eigenvalues not converged
     c_bands:  1 eigenvalues not converged
     c_bands:  1 eigenvalues not converged
     c_bands:  1 eigenvalues not converged
     c_bands:  2 eigenvalues not converged
     c_bands:  1 eigenvalues not converged
     c_bands:  1 eigenvalues not converged
     c_bands:  1 eigenvalues not converged
     c_bands:  1 eigenvalues not converged
     c_bands:  1 eigenvalues not converged
     c_bands:  1 eigenvalues not converged
     c_bands:  2 eigenvalues not converged
     c_bands:  2 eigenvalues not converged
     c_bands:  1 eigenvalues not converged
     c_bands:  2 eigenvalues not converged
     c_bands:  1 eigenvalues not converged
     c_bands:  1 eigenvalues not converged
     c_bands:  1 eigenvalues not converged
     c_bands:  1 eigenvalues not converged
     c_bands:  1 eigenvalues not converged
     c_bands:  1 eigenvalues not converged
     c_bands:  1 eigenvalues not converged
     c_bands:  1 eigenvalues not converged
     c_bands:  1 eigenvalues not converged
     c_bands:  2 eigenvalues not converged
     c_bands:  1 eigenvalues not converged
     c_bands:  2 eigenvalues not converged
     c_bands:  1 eigenvalues not converged
     c_bands:  1 eigenvalues not converged
     c_bands:  1 eigenvalues not converged
     c_bands:  1 eigenvalues not converged
     c_bands:  1 eigenvalues not converged
     c_bands:  1 eigenvalues not converged
     c_bands:  1 eigenvalues not converged
     c_bands:  1 eigenvalues not converged
     c_bands:  1 eigenvalues not converged
     c_bands:  1 eigenvalues not converged
     c_bands:  1 eigenvalues not converged
     c_bands:  1 eigenvalues not converged
     c_bands:  1 eigenvalues not converged
     c_bands:  1 eigenvalues not converged
     c_bands:  1 eigenvalues not converged
     c_bands:  1 eigenvalues not converged
     c_bands:  1 eigenvalues not converged
     c_bands:  1 eigenvalues not converged
     c_bands:  1 eigenvalues not converged
     c_bands:  1 eigenvalues not converged
     ethr =  1.00E-06,  avg # of iterations = 16.5

     total cpu time spent up to now is     3398.6 secs

     total energy              =    -663.85325857 Ry
     Harris-Foulkes estimate   =    -720.38091791 Ry
     estimated scf accuracy    <      46.53556618 Ry

     iteration #  2     ecut=    50.00 Ry     beta= 0.60
     Davidson diagonalization with overlap
     ethr =  1.00E-02,  avg # of iterations =  6.6

     total cpu time spent up to now is     3575.8 secs

     total energy              =    -686.59625121 Ry
     Harris-Foulkes estimate   =    -763.19799747 Ry
     estimated scf accuracy    <     246.51793915 Ry

     iteration #  3     ecut=    50.00 Ry     beta= 0.60
     Davidson diagonalization with overlap
     ethr =  1.00E-02,  avg # of iterations =  5.0

     total cpu time spent up to now is     3725.5 secs

     total energy              =    -708.03129369 Ry
     Harris-Foulkes estimate   =    -711.70225424 Ry
     estimated scf accuracy    <      17.92961365 Ry

     iteration #  4     ecut=    50.00 Ry     beta= 0.60
     Davidson diagonalization with overlap
     ethr =  1.00E-02,  avg # of iterations =  1.8

     total cpu time spent up to now is     3810.3 secs

     total energy              =    -707.30883904 Ry
     Harris-Foulkes estimate   =    -709.33825391 Ry
     estimated scf accuracy    <      17.24871492 Ry

     iteration #  5     ecut=    50.00 Ry     beta= 0.60
     Davidson diagonalization with overlap
     ethr =  1.00E-02,  avg # of iterations =  1.0

     total cpu time spent up to now is     3889.1 secs

     total energy              =    -706.33363042 Ry
     Harris-Foulkes estimate   =    -707.74837881 Ry
     estimated scf accuracy    <       9.25871976 Ry

     iteration #  6     ecut=    50.00 Ry     beta= 0.60
     Davidson diagonalization with overlap
     ethr =  1.00E-02,  avg # of iterations =  1.0

     total cpu time spent up to now is     3970.6 secs

     total energy              =    -705.61517455 Ry
     Harris-Foulkes estimate   =    -706.42142789 Ry
     estimated scf accuracy    <       6.43406805 Ry

     iteration #  7     ecut=    50.00 Ry     beta= 0.60
     Davidson diagonalization with overlap
     ethr =  8.47E-03,  avg # of iterations =  1.0

     total cpu time spent up to now is     4049.4 secs

     total energy              =    -705.50836863 Ry
     Harris-Foulkes estimate   =    -705.70677041 Ry
     estimated scf accuracy    <       4.27921161 Ry

     iteration #  8     ecut=    50.00 Ry     beta= 0.60
     Davidson diagonalization with overlap
     ethr =  5.63E-03,  avg # of iterations =  1.0

     total cpu time spent up to now is     4127.5 secs

     total energy              =    -705.35553314 Ry
     Harris-Foulkes estimate   =    -705.54455365 Ry
     estimated scf accuracy    <       3.73461124 Ry

     iteration #  9     ecut=    50.00 Ry     beta= 0.60
     Davidson diagonalization with overlap
     ethr =  4.91E-03,  avg # of iterations =  1.2

     total cpu time spent up to now is     4217.2 secs

     total energy              =    -705.10042704 Ry
     Harris-Foulkes estimate   =    -705.39422725 Ry
     estimated scf accuracy    <       2.82548325 Ry

     iteration # 10     ecut=    50.00 Ry     beta= 0.60
     Davidson diagonalization with overlap
     ethr =  3.72E-03,  avg # of iterations =  1.3

     total cpu time spent up to now is     4296.5 secs

     total energy              =    -704.20633175 Ry
     Harris-Foulkes estimate   =    -705.13684175 Ry
     estimated scf accuracy    <       1.89779654 Ry

     iteration # 11     ecut=    50.00 Ry     beta= 0.60
     Davidson diagonalization with overlap
     ethr =  2.50E-03,  avg # of iterations =  4.2

     total cpu time spent up to now is     4434.9 secs

     total energy              =    -706.31785565 Ry
     Harris-Foulkes estimate   =    -706.35997790 Ry
     estimated scf accuracy    <      28.81993287 Ry

     iteration # 12     ecut=    50.00 Ry     beta= 0.60
     Davidson diagonalization with overlap
     ethr =  2.50E-03,  avg # of iterations =  1.0

     total cpu time spent up to now is     4517.8 secs

     total energy              =    -705.79380244 Ry
     Harris-Foulkes estimate   =    -706.31950129 Ry
     estimated scf accuracy    <      28.03243590 Ry

     iteration # 13     ecut=    50.00 Ry     beta= 0.60
     Davidson diagonalization with overlap
     ethr =  2.50E-03,  avg # of iterations =  1.0

     total cpu time spent up to now is     4596.3 secs

     total energy              =    -706.19772851 Ry
     Harris-Foulkes estimate   =    -705.84985327 Ry
     estimated scf accuracy    <      18.86155038 Ry

     iteration # 14     ecut=    50.00 Ry     beta= 0.60
     Davidson diagonalization with overlap
     ethr =  2.50E-03,  avg # of iterations =  1.0

     total cpu time spent up to now is     4677.5 secs

     total energy              =    -705.30507050 Ry
     Harris-Foulkes estimate   =    -706.22704817 Ry
     estimated scf accuracy    <      25.16949601 Ry

     iteration # 15     ecut=    50.00 Ry     beta= 0.60
     Davidson diagonalization with overlap
     ethr =  2.50E-03,  avg # of iterations =  1.0

     total cpu time spent up to now is     4759.8 secs

     total energy              =    -705.47055559 Ry
     Harris-Foulkes estimate   =    -705.44818363 Ry
     estimated scf accuracy    <      11.37258951 Ry

     iteration # 16     ecut=    50.00 Ry     beta= 0.60
     Davidson diagonalization with overlap
     ethr =  2.50E-03,  avg # of iterations =  1.0

     total cpu time spent up to now is     4839.8 secs

     total energy              =    -705.33634346 Ry
     Harris-Foulkes estimate   =    -705.48174761 Ry
     estimated scf accuracy    <      11.78819119 Ry

     iteration # 17     ecut=    50.00 Ry     beta= 0.60
     Davidson diagonalization with overlap
     ethr =  2.50E-03,  avg # of iterations =  1.0

     total cpu time spent up to now is     4920.8 secs

     total energy              =    -704.87065371 Ry
     Harris-Foulkes estimate   =    -705.35375787 Ry
     estimated scf accuracy    <       8.97098955 Ry

     iteration # 18     ecut=    50.00 Ry     beta= 0.60
     Davidson diagonalization with overlap
     ethr =  2.50E-03,  avg # of iterations =  2.8

     total cpu time spent up to now is     5019.4 secs

     total energy              =    -704.84882280 Ry
     Harris-Foulkes estimate   =    -705.06189414 Ry
     estimated scf accuracy    <       1.51073016 Ry

     iteration # 19     ecut=    50.00 Ry     beta= 0.60
     Davidson diagonalization with overlap
     ethr =  1.99E-03,  avg # of iterations =  3.3

     total cpu time spent up to now is     5116.7 secs

     total energy              =    -704.97490796 Ry
     Harris-Foulkes estimate   =    -704.99718473 Ry
     estimated scf accuracy    <       0.08706088 Ry

     iteration # 20     ecut=    50.00 Ry     beta= 0.60
     Davidson diagonalization with overlap
     ethr =  1.15E-04,  avg # of iterations =  6.5

     total cpu time spent up to now is     5270.4 secs

     total energy              =    -705.00089111 Ry
     Harris-Foulkes estimate   =    -705.01561303 Ry
     estimated scf accuracy    <       0.17124374 Ry

     iteration # 21     ecut=    50.00 Ry     beta= 0.60
     Davidson diagonalization with overlap
     ethr =  1.15E-04,  avg # of iterations =  1.0

     total cpu time spent up to now is     5347.5 secs

     total energy              =    -704.99831651 Ry
     Harris-Foulkes estimate   =    -705.00381041 Ry
     estimated scf accuracy    <       0.07606844 Ry

     iteration # 22     ecut=    50.00 Ry     beta= 0.60
     Davidson diagonalization with overlap
     ethr =  1.00E-04,  avg # of iterations =  2.0

     total cpu time spent up to now is     5434.2 secs

     total energy              =    -704.99991536 Ry
     Harris-Foulkes estimate   =    -705.00023357 Ry
     estimated scf accuracy    <       0.02939445 Ry

     iteration # 23     ecut=    50.00 Ry     beta= 0.60
     Davidson diagonalization with overlap
     ethr =  3.87E-05,  avg # of iterations =  1.8

     total cpu time spent up to now is     5515.7 secs

     total energy              =    -705.00103506 Ry
     Harris-Foulkes estimate   =    -705.00032657 Ry
     estimated scf accuracy    <       0.02461474 Ry

     iteration # 24     ecut=    50.00 Ry     beta= 0.60
     Davidson diagonalization with overlap
     ethr =  3.24E-05,  avg # of iterations =  1.0

     total cpu time spent up to now is     5592.0 secs

     total energy              =    -705.00059515 Ry
     Harris-Foulkes estimate   =    -705.00125474 Ry
     estimated scf accuracy    <       0.03214098 Ry

     iteration # 25     ecut=    50.00 Ry     beta= 0.60
     Davidson diagonalization with overlap
     ethr =  3.24E-05,  avg # of iterations =  1.1

     total cpu time spent up to now is     5668.0 secs

     total energy              =    -704.98862391 Ry
     Harris-Foulkes estimate   =    -705.00157537 Ry
     estimated scf accuracy    <       0.04434319 Ry

     iteration # 26     ecut=    50.00 Ry     beta= 0.60
     Davidson diagonalization with overlap
     ethr =  3.24E-05,  avg # of iterations =  5.6

     total cpu time spent up to now is     5792.2 secs

     total energy              =    -704.99539087 Ry
     Harris-Foulkes estimate   =    -704.99963038 Ry
     estimated scf accuracy    <       0.04098585 Ry

     iteration # 27     ecut=    50.00 Ry     beta= 0.60
     Davidson diagonalization with overlap
     ethr =  3.24E-05,  avg # of iterations =  1.0

     total cpu time spent up to now is     5872.1 secs

     total energy              =    -704.99559595 Ry
     Harris-Foulkes estimate   =    -704.99655261 Ry
     estimated scf accuracy    <       0.00711365 Ry

     iteration # 28     ecut=    50.00 Ry     beta= 0.60
     Davidson diagonalization with overlap
     ethr =  9.36E-06,  avg # of iterations =  5.1

     total cpu time spent up to now is     5979.0 secs

     total energy              =    -704.99681201 Ry
     Harris-Foulkes estimate   =    -704.99684786 Ry
     estimated scf accuracy    <       0.00099996 Ry

     iteration # 29     ecut=    50.00 Ry     beta= 0.60
     Davidson diagonalization with overlap
     ethr =  1.32E-06,  avg # of iterations =  1.9

     total cpu time spent up to now is     6059.5 secs

     total energy              =    -704.99673255 Ry
     Harris-Foulkes estimate   =    -704.99683088 Ry
     estimated scf accuracy    <       0.00069214 Ry

     iteration # 30     ecut=    50.00 Ry     beta= 0.60
     Davidson diagonalization with overlap
     ethr =  9.11E-07,  avg # of iterations =  2.6

     total cpu time spent up to now is     6147.1 secs

     total energy              =    -704.99677614 Ry
     Harris-Foulkes estimate   =    -704.99677872 Ry
     estimated scf accuracy    <       0.00000876 Ry

     iteration # 31     ecut=    50.00 Ry     beta= 0.60
     Davidson diagonalization with overlap
     ethr =  1.15E-08,  avg # of iterations =  5.2

     total cpu time spent up to now is     6277.8 secs

     total energy              =    -704.99678388 Ry
     Harris-Foulkes estimate   =    -704.99679054 Ry
     estimated scf accuracy    <       0.00006037 Ry

     iteration # 32     ecut=    50.00 Ry     beta= 0.60
     Davidson diagonalization with overlap
     ethr =  1.15E-08,  avg # of iterations =  3.9

     total cpu time spent up to now is     6379.4 secs

     total energy              =    -704.99678581 Ry
     Harris-Foulkes estimate   =    -704.99678620 Ry
     estimated scf accuracy    <       0.00000374 Ry

     iteration # 33     ecut=    50.00 Ry     beta= 0.60
     Davidson diagonalization with overlap
     ethr =  4.92E-09,  avg # of iterations =  1.9

     total cpu time spent up to now is     6459.5 secs

     total energy              =    -704.99678588 Ry
     Harris-Foulkes estimate   =    -704.99678598 Ry
     estimated scf accuracy    <       0.00000068 Ry

     iteration # 34     ecut=    50.00 Ry     beta= 0.60
     Davidson diagonalization with overlap
     ethr =  8.94E-10,  avg # of iterations =  4.0

     total cpu time spent up to now is     6567.0 secs

     total energy              =    -704.99678603 Ry
     Harris-Foulkes estimate   =    -704.99678606 Ry
     estimated scf accuracy    <       0.00000021 Ry

     iteration # 35     ecut=    50.00 Ry     beta= 0.60
     Davidson diagonalization with overlap
     ethr =  2.77E-10,  avg # of iterations =  1.0

     total cpu time spent up to now is     6644.6 secs

     total energy              =    -704.99678604 Ry
     Harris-Foulkes estimate   =    -704.99678604 Ry
     estimated scf accuracy    <       0.00000003 Ry

     iteration # 36     ecut=    50.00 Ry     beta= 0.60
     Davidson diagonalization with overlap
     ethr =  3.58E-11,  avg # of iterations =  4.0

     total cpu time spent up to now is     6749.1 secs

     total energy              =    -704.99678604 Ry
     Harris-Foulkes estimate   =    -704.99678604 Ry
     estimated scf accuracy    <       0.00000001 Ry

     iteration # 37     ecut=    50.00 Ry     beta= 0.60
     Davidson diagonalization with overlap
     ethr =  1.56E-11,  avg # of iterations =  1.1

     total cpu time spent up to now is     6822.1 secs

     total energy              =    -704.99678604 Ry
     Harris-Foulkes estimate   =    -704.99678604 Ry
     estimated scf accuracy    <          3.2E-09 Ry

     iteration # 38     ecut=    50.00 Ry     beta= 0.60
     Davidson diagonalization with overlap
     ethr =  4.21E-12,  avg # of iterations =  3.2

     total cpu time spent up to now is     6916.5 secs

     total energy              =    -704.99678604 Ry
     Harris-Foulkes estimate   =    -704.99678604 Ry
     estimated scf accuracy    <          2.8E-10 Ry

     iteration # 39     ecut=    50.00 Ry     beta= 0.60
     Davidson diagonalization with overlap
     ethr =  3.72E-13,  avg # of iterations =  3.7

     total cpu time spent up to now is     7009.3 secs

     total energy              =    -704.99678604 Ry
     Harris-Foulkes estimate   =    -704.99678604 Ry
     estimated scf accuracy    <          1.5E-10 Ry

     iteration # 40     ecut=    50.00 Ry     beta= 0.60
     Davidson diagonalization with overlap
     ethr =  2.04E-13,  avg # of iterations =  1.3

     total cpu time spent up to now is     7141.0 secs

     End of self-consistent calculation

     Number of k-points >= 100: set verbosity='high' to print the bands.

     the Fermi energy is    14.7216 ev

!    total energy              =    -704.99678604 Ry
     Harris-Foulkes estimate   =    -704.99678604 Ry
     estimated scf accuracy    <          5.3E-11 Ry

     The total energy is the sum of the following terms:

     one-electron contribution =    -171.35746740 Ry
     hartree contribution      =     115.63213991 Ry
     xc contribution           =    -102.29521872 Ry
     ewald contribution        =    -546.97599919 Ry
     smearing contrib. (-TS)   =      -0.00024065 Ry

     convergence has been achieved in  40 iterations

     Forces acting on atoms (cartesian axes, Ry/au):

     atom    1 type  1   force =     0.00000000    0.00000000    0.00000000
     atom    2 type  2   force =     0.00955534    0.00193829   -0.00193829
     atom    3 type  2   force =    -0.00955534   -0.00193829    0.00193829
     atom    4 type  1   force =     0.00503415   -0.00739707    0.00739707
     atom    5 type  1   force =     0.00000000    0.00000000    0.00000000
     atom    6 type  1   force =    -0.00503415    0.00739707   -0.00739707

     Total force =     0.021615     Total SCF correction =     0.000009


     Computing stress (Cartesian axis) and pressure

          total   stress  (Ry/bohr**3)                   (kbar)     P= -119.65
  -0.00083432   0.00001048  -0.00001048       -122.73      1.54     -1.54
   0.00001048  -0.00080293  -0.00000498          1.54   -118.11     -0.73
  -0.00001048  -0.00000498  -0.00080293         -1.54     -0.73   -118.11


     number of scf cycles    =   2
     number of bfgs steps    =   1

     enthalpy old            =    -704.8926442133 Ry
     enthalpy new            =    -704.9967860428 Ry

     CASE: enthalpy_new < enthalpy_old

     new trust radius        =       0.2438666860 bohr
     new conv_thr            =            1.0E-10 Ry

     new unit-cell volume =    693.69416 a.u.^3 (   102.79487 Ang^3 )
     density =      7.54968 g/cm^3

CELL_PARAMETERS (alat=  1.88972599)
   4.864633560   1.628074351   1.620607914
   1.616567447  -4.875352371   1.626670106
  -1.616567447   1.626670106  -4.875352371

ATOMIC_POSITIONS (angstrom)
Nb       3.240600504  -3.247980142  -0.000702122
Ti       3.257944108   0.005435611  -0.005435611
Ti       1.606689453  -1.626043526  -1.622638739
Nb       4.870508890  -1.633656571   1.633656571
Nb       4.864633560  -1.620607914  -1.628074351
Nb      -0.005875330   0.013048657  -3.261730922


     NEW-OLD atomic charge density approx. for the potential
     extrapolated charge   65.76491, renormalised to   76.00000

     total cpu time spent up to now is     7195.9 secs

     Self-consistent Calculation

     iteration #  1     ecut=    50.00 Ry     beta= 0.60
     Davidson diagonalization with overlap
     c_bands:  1 eigenvalues not converged
     c_bands:  1 eigenvalues not converged
     c_bands:  1 eigenvalues not converged
     c_bands:  1 eigenvalues not converged
     c_bands:  1 eigenvalues not converged
     c_bands:  1 eigenvalues not converged
     c_bands:  1 eigenvalues not converged
     c_bands:  1 eigenvalues not converged
     c_bands:  1 eigenvalues not converged
     c_bands:  1 eigenvalues not converged
     c_bands:  1 eigenvalues not converged
     c_bands:  1 eigenvalues not converged
     c_bands:  1 eigenvalues not converged
     c_bands:  1 eigenvalues not converged
     c_bands:  2 eigenvalues not converged
     c_bands:  1 eigenvalues not converged
     c_bands:  1 eigenvalues not converged
     c_bands:  1 eigenvalues not converged
     c_bands:  1 eigenvalues not converged
     c_bands:  1 eigenvalues not converged
     c_bands:  1 eigenvalues not converged
     c_bands:  1 eigenvalues not converged
     c_bands:  1 eigenvalues not converged
     c_bands:  1 eigenvalues not converged
     c_bands:  1 eigenvalues not converged
     c_bands:  1 eigenvalues not converged
     c_bands:  2 eigenvalues not converged
     c_bands:  1 eigenvalues not converged
     c_bands:  1 eigenvalues not converged
     c_bands:  2 eigenvalues not converged
     c_bands:  2 eigenvalues not converged
     c_bands:  1 eigenvalues not converged
     c_bands:  1 eigenvalues not converged
     c_bands:  2 eigenvalues not converged
     c_bands:  1 eigenvalues not converged
     c_bands:  1 eigenvalues not converged
     c_bands:  1 eigenvalues not converged
     c_bands:  1 eigenvalues not converged
     c_bands:  1 eigenvalues not converged
     c_bands:  1 eigenvalues not converged
     c_bands:  1 eigenvalues not converged
     c_bands:  1 eigenvalues not converged
     c_bands:  1 eigenvalues not converged
     c_bands:  1 eigenvalues not converged
     c_bands:  1 eigenvalues not converged
     c_bands:  2 eigenvalues not converged
     c_bands:  1 eigenvalues not converged
     c_bands:  1 eigenvalues not converged
     c_bands:  1 eigenvalues not converged
     c_bands:  1 eigenvalues not converged
     c_bands:  1 eigenvalues not converged
     c_bands:  1 eigenvalues not converged
     c_bands:  1 eigenvalues not converged
     c_bands:  1 eigenvalues not converged
     c_bands:  1 eigenvalues not converged
     c_bands:  1 eigenvalues not converged
     c_bands:  2 eigenvalues not converged
     c_bands:  1 eigenvalues not converged
     c_bands:  1 eigenvalues not converged
     c_bands:  1 eigenvalues not converged
     c_bands:  1 eigenvalues not converged
     c_bands:  1 eigenvalues not converged
     c_bands:  1 eigenvalues not converged
     c_bands:  1 eigenvalues not converged
     c_bands:  1 eigenvalues not converged
     c_bands:  1 eigenvalues not converged
     c_bands:  1 eigenvalues not converged
     c_bands:  1 eigenvalues not converged
     c_bands:  1 eigenvalues not converged
     c_bands:  3 eigenvalues not converged
     c_bands:  1 eigenvalues not converged
     c_bands:  1 eigenvalues not converged
     c_bands:  2 eigenvalues not converged
     c_bands:  1 eigenvalues not converged
     c_bands:  2 eigenvalues not converged
     c_bands:  1 eigenvalues not converged
     c_bands:  1 eigenvalues not converged
     c_bands:  1 eigenvalues not converged
     c_bands:  1 eigenvalues not converged
     c_bands:  1 eigenvalues not converged
     c_bands:  1 eigenvalues not converged
     c_bands:  1 eigenvalues not converged
     c_bands:  1 eigenvalues not converged
     c_bands:  1 eigenvalues not converged
     c_bands:  1 eigenvalues not converged
     c_bands:  1 eigenvalues not converged
     c_bands:  1 eigenvalues not converged
     c_bands:  1 eigenvalues not converged
     c_bands:  2 eigenvalues not converged
     c_bands:  1 eigenvalues not converged
     c_bands:  1 eigenvalues not converged
     c_bands:  1 eigenvalues not converged
     c_bands:  1 eigenvalues not converged
     c_bands:  1 eigenvalues not converged
     c_bands:  1 eigenvalues not converged
     c_bands:  1 eigenvalues not converged
     c_bands:  1 eigenvalues not converged
     c_bands:  1 eigenvalues not converged
     c_bands:  1 eigenvalues not converged
     c_bands:  1 eigenvalues not converged
     c_bands:  2 eigenvalues not converged
     c_bands:  1 eigenvalues not converged
     c_bands:  2 eigenvalues not converged
     c_bands:  1 eigenvalues not converged
     c_bands:  1 eigenvalues not converged
     c_bands:  2 eigenvalues not converged
     c_bands:  1 eigenvalues not converged
     c_bands:  1 eigenvalues not converged
     c_bands:  1 eigenvalues not converged
     c_bands:  1 eigenvalues not converged
     c_bands:  1 eigenvalues not converged
     c_bands:  1 eigenvalues not converged
     c_bands:  1 eigenvalues not converged
     c_bands:  1 eigenvalues not converged
     c_bands:  1 eigenvalues not converged
     c_bands:  1 eigenvalues not converged
     c_bands:  1 eigenvalues not converged
     c_bands:  1 eigenvalues not converged
     c_bands:  1 eigenvalues not converged
     c_bands:  1 eigenvalues not converged
     c_bands:  1 eigenvalues not converged
     c_bands:  1 eigenvalues not converged
     c_bands:  1 eigenvalues not converged
     c_bands:  1 eigenvalues not converged
     c_bands:  1 eigenvalues not converged
     c_bands:  1 eigenvalues not converged
     c_bands:  1 eigenvalues not converged
     c_bands:  1 eigenvalues not converged
     c_bands:  1 eigenvalues not converged
     c_bands:  1 eigenvalues not converged
     c_bands:  1 eigenvalues not converged
     c_bands:  1 eigenvalues not converged
     c_bands:  1 eigenvalues not converged
     c_bands:  2 eigenvalues not converged
     c_bands:  1 eigenvalues not converged
     c_bands:  1 eigenvalues not converged
     c_bands:  1 eigenvalues not converged
     c_bands:  1 eigenvalues not converged
     ethr =  1.00E-06,  avg # of iterations = 16.8

     total cpu time spent up to now is     7547.9 secs

     total energy              =    -661.20889558 Ry
     Harris-Foulkes estimate   =    -720.76986623 Ry
     estimated scf accuracy    <      48.95421223 Ry

     iteration #  2     ecut=    50.00 Ry     beta= 0.60
     Davidson diagonalization with overlap
     ethr =  1.00E-02,  avg # of iterations =  6.5

     total cpu time spent up to now is     7734.0 secs

     total energy              =    -686.75672957 Ry
     Harris-Foulkes estimate   =    -764.37036414 Ry
     estimated scf accuracy    <     246.00320486 Ry

     iteration #  3     ecut=    50.00 Ry     beta= 0.60
     Davidson diagonalization with overlap
     ethr =  1.00E-02,  avg # of iterations =  5.0

     total cpu time spent up to now is     7876.2 secs

     total energy              =    -708.01731992 Ry
     Harris-Foulkes estimate   =    -711.86782906 Ry
     estimated scf accuracy    <      18.17202800 Ry

     iteration #  4     ecut=    50.00 Ry     beta= 0.60
     Davidson diagonalization with overlap
     ethr =  1.00E-02,  avg # of iterations =  1.7

     total cpu time spent up to now is     7955.1 secs

     total energy              =    -707.25693720 Ry
     Harris-Foulkes estimate   =    -709.17094132 Ry
     estimated scf accuracy    <      16.31725452 Ry

     iteration #  5     ecut=    50.00 Ry     beta= 0.60
     Davidson diagonalization with overlap
     ethr =  1.00E-02,  avg # of iterations =  1.0

     total cpu time spent up to now is     8030.2 secs

     total energy              =    -706.30120643 Ry
     Harris-Foulkes estimate   =    -707.69014563 Ry
     estimated scf accuracy    <       9.08582285 Ry

     iteration #  6     ecut=    50.00 Ry     beta= 0.60
     Davidson diagonalization with overlap
     ethr =  1.00E-02,  avg # of iterations =  1.0

     total cpu time spent up to now is     8104.2 secs

     total energy              =    -705.81025033 Ry
     Harris-Foulkes estimate   =    -706.38621999 Ry
     estimated scf accuracy    <       6.25407783 Ry

     iteration #  7     ecut=    50.00 Ry     beta= 0.60
     Davidson diagonalization with overlap
     ethr =  8.23E-03,  avg # of iterations =  1.0

     total cpu time spent up to now is     8178.1 secs

     total energy              =    -705.66056386 Ry
     Harris-Foulkes estimate   =    -705.88068531 Ry
     estimated scf accuracy    <       4.61020310 Ry

     iteration #  8     ecut=    50.00 Ry     beta= 0.60
     Davidson diagonalization with overlap
     ethr =  6.07E-03,  avg # of iterations =  1.0

     total cpu time spent up to now is     8251.4 secs

     total energy              =    -705.48789403 Ry
     Harris-Foulkes estimate   =    -705.69501884 Ry
     estimated scf accuracy    <       3.92022558 Ry

     iteration #  9     ecut=    50.00 Ry     beta= 0.60
     Davidson diagonalization with overlap
     ethr =  5.16E-03,  avg # of iterations =  1.0

     total cpu time spent up to now is     8323.5 secs

     total energy              =    -705.02751646 Ry
     Harris-Foulkes estimate   =    -705.52196698 Ry
     estimated scf accuracy    <       3.14728089 Ry

     iteration # 10     ecut=    50.00 Ry     beta= 0.60
     Davidson diagonalization with overlap
     ethr =  4.14E-03,  avg # of iterations =  1.8

     total cpu time spent up to now is     8397.3 secs

     total energy              =    -704.23595390 Ry
     Harris-Foulkes estimate   =    -705.09620851 Ry
     estimated scf accuracy    <       1.58948650 Ry

     iteration # 11     ecut=    50.00 Ry     beta= 0.60
     Davidson diagonalization with overlap
     ethr =  2.09E-03,  avg # of iterations =  4.0

     total cpu time spent up to now is     8524.6 secs

     total energy              =    -705.91642982 Ry
     Harris-Foulkes estimate   =    -706.43738167 Ry
     estimated scf accuracy    <      25.44595240 Ry

     iteration # 12     ecut=    50.00 Ry     beta= 0.60
     Davidson diagonalization with overlap
     ethr =  2.09E-03,  avg # of iterations =  1.0

     total cpu time spent up to now is     8615.1 secs

     total energy              =    -706.50873292 Ry
     Harris-Foulkes estimate   =    -705.95828485 Ry
     estimated scf accuracy    <      17.75621090 Ry

     iteration # 13     ecut=    50.00 Ry     beta= 0.60
     Davidson diagonalization with overlap
     ethr =  2.09E-03,  avg # of iterations =  1.0

     total cpu time spent up to now is     8695.5 secs

     total energy              =    -706.98006284 Ry
     Harris-Foulkes estimate   =    -706.56893722 Ry
     estimated scf accuracy    <      27.03959143 Ry

     iteration # 14     ecut=    50.00 Ry     beta= 0.60
     Davidson diagonalization with overlap
     ethr =  2.09E-03,  avg # of iterations =  1.0

     total cpu time spent up to now is     8770.2 secs

     total energy              =    -705.90381499 Ry
     Harris-Foulkes estimate   =    -707.00969176 Ry
     estimated scf accuracy    <      34.69471702 Ry

     iteration # 15     ecut=    50.00 Ry     beta= 0.60
     Davidson diagonalization with overlap
     ethr =  2.09E-03,  avg # of iterations =  1.2

     total cpu time spent up to now is     8843.9 secs

     total energy              =    -707.85519960 Ry
     Harris-Foulkes estimate   =    -706.06708684 Ry
     estimated scf accuracy    <      19.15419027 Ry

     iteration # 16     ecut=    50.00 Ry     beta= 0.60
     Davidson diagonalization with overlap
     ethr =  2.09E-03,  avg # of iterations =  2.7

     total cpu time spent up to now is     8925.7 secs

     total energy              =    -708.32381853 Ry
     Harris-Foulkes estimate   =    -708.33988164 Ry
     estimated scf accuracy    <      47.47771137 Ry

     iteration # 17     ecut=    50.00 Ry     beta= 0.60
     Davidson diagonalization with overlap
     ethr =  2.09E-03,  avg # of iterations =  1.0

     total cpu time spent up to now is     8998.3 secs

     total energy              =    -707.38343229 Ry
     Harris-Foulkes estimate   =    -708.34072169 Ry
     estimated scf accuracy    <      49.07733379 Ry

     iteration # 18     ecut=    50.00 Ry     beta= 0.60
     Davidson diagonalization with overlap
     ethr =  2.09E-03,  avg # of iterations =  1.0

     total cpu time spent up to now is     9071.8 secs

     total energy              =    -702.65253215 Ry
     Harris-Foulkes estimate   =    -707.43703801 Ry
     estimated scf accuracy    <      40.57022709 Ry

     iteration # 19     ecut=    50.00 Ry     beta= 0.60
     Davidson diagonalization with overlap
     ethr =  2.09E-03,  avg # of iterations =  4.7

     total cpu time spent up to now is     9191.0 secs

     total energy              =    -705.00012032 Ry
     Harris-Foulkes estimate   =    -705.05150337 Ry
     estimated scf accuracy    <       0.10978161 Ry

     iteration # 20     ecut=    50.00 Ry     beta= 0.60
     Davidson diagonalization with overlap
     ethr =  1.44E-04,  avg # of iterations =  4.6

     total cpu time spent up to now is     9306.0 secs

     total energy              =    -705.02298353 Ry
     Harris-Foulkes estimate   =    -705.03309257 Ry
     estimated scf accuracy    <       0.06912579 Ry

     iteration # 21     ecut=    50.00 Ry     beta= 0.60
     Davidson diagonalization with overlap
     ethr =  9.10E-05,  avg # of iterations =  1.0

     total cpu time spent up to now is     9379.1 secs

     total energy              =    -705.02482553 Ry
     Harris-Foulkes estimate   =    -705.02557784 Ry
     estimated scf accuracy    <       0.01539857 Ry

     iteration # 22     ecut=    50.00 Ry     beta= 0.60
     Davidson diagonalization with overlap
     ethr =  2.03E-05,  avg # of iterations =  3.8

     total cpu time spent up to now is     9466.4 secs

     total energy              =    -705.02493270 Ry
     Harris-Foulkes estimate   =    -705.02572072 Ry
     estimated scf accuracy    <       0.00809586 Ry

     iteration # 23     ecut=    50.00 Ry     beta= 0.60
     Davidson diagonalization with overlap
     ethr =  1.07E-05,  avg # of iterations =  5.6

     total cpu time spent up to now is     9579.5 secs

     total energy              =    -705.02666471 Ry
     Harris-Foulkes estimate   =    -705.02759591 Ry
     estimated scf accuracy    <       0.02462601 Ry

     iteration # 24     ecut=    50.00 Ry     beta= 0.60
     Davidson diagonalization with overlap
     ethr =  1.07E-05,  avg # of iterations =  1.0

     total cpu time spent up to now is     9654.2 secs

     total energy              =    -705.02340688 Ry
     Harris-Foulkes estimate   =    -705.02682111 Ry
     estimated scf accuracy    <       0.02073260 Ry

     iteration # 25     ecut=    50.00 Ry     beta= 0.60
     Davidson diagonalization with overlap
     ethr =  1.07E-05,  avg # of iterations =  2.8

     total cpu time spent up to now is     9741.0 secs

     total energy              =    -705.02444793 Ry
     Harris-Foulkes estimate   =    -705.02512948 Ry
     estimated scf accuracy    <       0.00252569 Ry

     iteration # 26     ecut=    50.00 Ry     beta= 0.60
     Davidson diagonalization with overlap
     ethr =  3.32E-06,  avg # of iterations =  5.2

     total cpu time spent up to now is     9840.4 secs

     total energy              =    -705.02480236 Ry
     Harris-Foulkes estimate   =    -705.02484307 Ry
     estimated scf accuracy    <       0.00023869 Ry

     iteration # 27     ecut=    50.00 Ry     beta= 0.60
     Davidson diagonalization with overlap
     ethr =  3.14E-07,  avg # of iterations =  4.0

     total cpu time spent up to now is     9930.5 secs

     total energy              =    -705.02483212 Ry
     Harris-Foulkes estimate   =    -705.02483995 Ry
     estimated scf accuracy    <       0.00003678 Ry

     iteration # 28     ecut=    50.00 Ry     beta= 0.60
     Davidson diagonalization with overlap
     ethr =  4.84E-08,  avg # of iterations =  2.7

     total cpu time spent up to now is    10018.3 secs

     total energy              =    -705.02483641 Ry
     Harris-Foulkes estimate   =    -705.02483677 Ry
     estimated scf accuracy    <       0.00000138 Ry

     iteration # 29     ecut=    50.00 Ry     beta= 0.60
     Davidson diagonalization with overlap
     ethr =  1.82E-09,  avg # of iterations =  4.2

     total cpu time spent up to now is    10132.1 secs

     total energy              =    -705.02483703 Ry
     Harris-Foulkes estimate   =    -705.02483718 Ry
     estimated scf accuracy    <       0.00000075 Ry

     iteration # 30     ecut=    50.00 Ry     beta= 0.60
     Davidson diagonalization with overlap
     ethr =  9.91E-10,  avg # of iterations =  2.7

     total cpu time spent up to now is    10210.7 secs

     total energy              =    -705.02483709 Ry
     Harris-Foulkes estimate   =    -705.02483710 Ry
     estimated scf accuracy    <       0.00000002 Ry

     iteration # 31     ecut=    50.00 Ry     beta= 0.60
     Davidson diagonalization with overlap
     ethr =  2.41E-11,  avg # of iterations =  4.9

     total cpu time spent up to now is    10329.6 secs

     total energy              =    -705.02483710 Ry
     Harris-Foulkes estimate   =    -705.02483712 Ry
     estimated scf accuracy    <       0.00000007 Ry

     iteration # 32     ecut=    50.00 Ry     beta= 0.60
     Davidson diagonalization with overlap
     ethr =  2.41E-11,  avg # of iterations =  3.6

     total cpu time spent up to now is    10434.7 secs

     total energy              =    -705.02483711 Ry
     Harris-Foulkes estimate   =    -705.02483711 Ry
     estimated scf accuracy    <          8.3E-10 Ry

     iteration # 33     ecut=    50.00 Ry     beta= 0.60
     Davidson diagonalization with overlap
     ethr =  1.09E-12,  avg # of iterations =  3.8

     total cpu time spent up to now is    10539.5 secs

     total energy              =    -705.02483711 Ry
     Harris-Foulkes estimate   =    -705.02483711 Ry
     estimated scf accuracy    <          3.5E-10 Ry

     iteration # 34     ecut=    50.00 Ry     beta= 0.60
     Davidson diagonalization with overlap
     ethr =  4.57E-13,  avg # of iterations =  2.5

     total cpu time spent up to now is    10623.8 secs

     End of self-consistent calculation

     Number of k-points >= 100: set verbosity='high' to print the bands.

     the Fermi energy is    17.1412 ev

!    total energy              =    -705.02483711 Ry
     Harris-Foulkes estimate   =    -705.02483711 Ry
     estimated scf accuracy    <          7.0E-11 Ry

     The total energy is the sum of the following terms:

     one-electron contribution =    -136.70480048 Ry
     hartree contribution      =     105.83082999 Ry
     xc contribution           =    -103.06264519 Ry
     ewald contribution        =    -571.08717274 Ry
     smearing contrib. (-TS)   =      -0.00104869 Ry

     convergence has been achieved in  34 iterations

     Forces acting on atoms (cartesian axes, Ry/au):

     atom    1 type  1   force =     0.00000000    0.00000000    0.00000000
     atom    2 type  2   force =     0.00710039    0.00107218   -0.00107218
     atom    3 type  2   force =    -0.00710039   -0.00107218    0.00107218
     atom    4 type  1   force =     0.00018578   -0.00625917    0.00625917
     atom    5 type  1   force =    -0.00000000   -0.00000000    0.00000000
     atom    6 type  1   force =    -0.00018578    0.00625917   -0.00625917

     Total force =     0.016193     Total SCF correction =     0.000007


     Computing stress (Cartesian axis) and pressure

          total   stress  (Ry/bohr**3)                   (kbar)     P=   53.82
   0.00034462   0.00001385  -0.00001385         50.70      2.04     -2.04
   0.00001385   0.00037650   0.00000312          2.04     55.39      0.46
  -0.00001385   0.00000312   0.00037650         -2.04      0.46     55.39


     number of scf cycles    =   3
     number of bfgs steps    =   2

     enthalpy old            =    -704.9967860428 Ry
     enthalpy new            =    -705.0248371096 Ry

     CASE: enthalpy_new < enthalpy_old

     new trust radius        =       0.0669317264 bohr
     new conv_thr            =            1.0E-10 Ry

     new unit-cell volume =    720.31193 a.u.^3 (   106.73921 Ang^3 )
     density =      7.27070 g/cm^3

CELL_PARAMETERS (alat=  1.88972599)
   4.925345777   1.649550641   1.640744792
   1.635913659  -4.936918516   1.646623082
  -1.635913659   1.646623082  -4.936918516

ATOMIC_POSITIONS (angstrom)
Nb       3.280629718  -3.288831654  -0.001463780
Ti       3.299447200   0.005974946  -0.005974946
Ti       1.625898578  -1.646719738  -1.643575696
Nb       4.930159055  -1.654526835   1.654526835
Nb       4.925345777  -1.640744792  -1.649550641
Nb      -0.004813278   0.013782042  -3.304077476


     NEW-OLD atomic charge density approx. for the potential
     extrapolated charge   78.73412, renormalised to   76.00000

     total cpu time spent up to now is    10660.8 secs

     Self-consistent Calculation

     iteration #  1     ecut=    50.00 Ry     beta= 0.60
     Davidson diagonalization with overlap
     ethr =  1.00E-06,  avg # of iterations = 12.9

     total cpu time spent up to now is    10904.3 secs

     total energy              =    -704.61871823 Ry
     Harris-Foulkes estimate   =    -701.32788535 Ry
     estimated scf accuracy    <       0.32849158 Ry

     iteration #  2     ecut=    50.00 Ry     beta= 0.60
     Davidson diagonalization with overlap
     ethr =  4.32E-04,  avg # of iterations =  6.6

     total cpu time spent up to now is    11070.3 secs

     total energy              =    -704.13785007 Ry
     Harris-Foulkes estimate   =    -705.97932429 Ry
     estimated scf accuracy    <      16.71345168 Ry

     iteration #  3     ecut=    50.00 Ry     beta= 0.60
     Davidson diagonalization with overlap
     ethr =  4.32E-04,  avg # of iterations =  5.3

     total cpu time spent up to now is    11199.8 secs

     total energy              =    -705.01037191 Ry
     Harris-Foulkes estimate   =    -705.11556446 Ry
     estimated scf accuracy    <       0.31646409 Ry

     iteration #  4     ecut=    50.00 Ry     beta= 0.60
     Davidson diagonalization with overlap
     ethr =  4.16E-04,  avg # of iterations =  2.1

     total cpu time spent up to now is    11289.1 secs

     total energy              =    -705.03726470 Ry
     Harris-Foulkes estimate   =    -705.05210787 Ry
     estimated scf accuracy    <       0.12335875 Ry

     iteration #  5     ecut=    50.00 Ry     beta= 0.60
     Davidson diagonalization with overlap
     ethr =  1.62E-04,  avg # of iterations =  1.5

     total cpu time spent up to now is    11364.1 secs

     total energy              =    -705.03840601 Ry
     Harris-Foulkes estimate   =    -705.04417778 Ry
     estimated scf accuracy    <       0.06994180 Ry

     iteration #  6     ecut=    50.00 Ry     beta= 0.60
     Davidson diagonalization with overlap
     ethr =  9.20E-05,  avg # of iterations =  1.0

     total cpu time spent up to now is    11435.4 secs

     total energy              =    -705.03652810 Ry
     Harris-Foulkes estimate   =    -705.03946413 Ry
     estimated scf accuracy    <       0.05609426 Ry

     iteration #  7     ecut=    50.00 Ry     beta= 0.60
     Davidson diagonalization with overlap
     ethr =  7.38E-05,  avg # of iterations =  1.0

     total cpu time spent up to now is    11506.2 secs

     total energy              =    -705.03101956 Ry
     Harris-Foulkes estimate   =    -705.03709435 Ry
     estimated scf accuracy    <       0.04619727 Ry

     iteration #  8     ecut=    50.00 Ry     beta= 0.60
     Davidson diagonalization with overlap
     ethr =  6.08E-05,  avg # of iterations =  1.0

     total cpu time spent up to now is    11577.2 secs

     total energy              =    -705.02988323 Ry
     Harris-Foulkes estimate   =    -705.03190403 Ry
     estimated scf accuracy    <       0.02308410 Ry

     iteration #  9     ecut=    50.00 Ry     beta= 0.60
     Davidson diagonalization with overlap
     ethr =  3.04E-05,  avg # of iterations =  1.9

     total cpu time spent up to now is    11659.4 secs

     total energy              =    -705.02892177 Ry
     Harris-Foulkes estimate   =    -705.03044311 Ry
     estimated scf accuracy    <       0.01240925 Ry

     iteration # 10     ecut=    50.00 Ry     beta= 0.60
     Davidson diagonalization with overlap
     ethr =  1.63E-05,  avg # of iterations =  2.0

     total cpu time spent up to now is    11737.3 secs

     total energy              =    -705.02857382 Ry
     Harris-Foulkes estimate   =    -705.02926162 Ry
     estimated scf accuracy    <       0.00468796 Ry

     iteration # 11     ecut=    50.00 Ry     beta= 0.60
     Davidson diagonalization with overlap
     ethr =  6.17E-06,  avg # of iterations =  4.7

     total cpu time spent up to now is    11837.8 secs

     total energy              =    -705.02912318 Ry
     Harris-Foulkes estimate   =    -705.02913575 Ry
     estimated scf accuracy    <       0.00003787 Ry

     iteration # 12     ecut=    50.00 Ry     beta= 0.60
     Davidson diagonalization with overlap
     ethr =  4.98E-08,  avg # of iterations =  5.4

     total cpu time spent up to now is    11965.2 secs

     total energy              =    -705.02916131 Ry
     Harris-Foulkes estimate   =    -705.02917739 Ry
     estimated scf accuracy    <       0.00025821 Ry

     iteration # 13     ecut=    50.00 Ry     beta= 0.60
     Davidson diagonalization with overlap
     ethr =  4.98E-08,  avg # of iterations =  1.5

     total cpu time spent up to now is    12037.5 secs

     total energy              =    -705.02915748 Ry
     Harris-Foulkes estimate   =    -705.02916411 Ry
     estimated scf accuracy    <       0.00012416 Ry

     iteration # 14     ecut=    50.00 Ry     beta= 0.60
     Davidson diagonalization with overlap
     ethr =  4.98E-08,  avg # of iterations =  3.0

     total cpu time spent up to now is    12118.9 secs

     total energy              =    -705.02915653 Ry
     Harris-Foulkes estimate   =    -705.02915961 Ry
     estimated scf accuracy    <       0.00005398 Ry

     iteration # 15     ecut=    50.00 Ry     beta= 0.60
     Davidson diagonalization with overlap
     ethr =  4.98E-08,  avg # of iterations =  1.2

     total cpu time spent up to now is    12199.5 secs

     total energy              =    -705.02915642 Ry
     Harris-Foulkes estimate   =    -705.02915705 Ry
     estimated scf accuracy    <       0.00003217 Ry

     iteration # 16     ecut=    50.00 Ry     beta= 0.60
     Davidson diagonalization with overlap
     ethr =  4.23E-08,  avg # of iterations =  1.0

     total cpu time spent up to now is    12272.9 secs

     total energy              =    -705.02915590 Ry
     Harris-Foulkes estimate   =    -705.02915662 Ry
     estimated scf accuracy    <       0.00002707 Ry

     iteration # 17     ecut=    50.00 Ry     beta= 0.60
     Davidson diagonalization with overlap
     ethr =  3.56E-08,  avg # of iterations =  1.0

     total cpu time spent up to now is    12348.7 secs

     total energy              =    -705.02915382 Ry
     Harris-Foulkes estimate   =    -705.02915604 Ry
     estimated scf accuracy    <       0.00002238 Ry

     iteration # 18     ecut=    50.00 Ry     beta= 0.60
     Davidson diagonalization with overlap
     ethr =  2.94E-08,  avg # of iterations =  1.5

     total cpu time spent up to now is    12425.5 secs

     total energy              =    -705.02915213 Ry
     Harris-Foulkes estimate   =    -705.02915431 Ry
     estimated scf accuracy    <       0.00000935 Ry

     iteration # 19     ecut=    50.00 Ry     beta= 0.60
     Davidson diagonalization with overlap
     ethr =  1.23E-08,  avg # of iterations =  4.0

     total cpu time spent up to now is    12521.0 secs

     total energy              =    -705.02915363 Ry
     Harris-Foulkes estimate   =    -705.02915383 Ry
     estimated scf accuracy    <       0.00000083 Ry

     iteration # 20     ecut=    50.00 Ry     beta= 0.60
     Davidson diagonalization with overlap
     ethr =  1.09E-09,  avg # of iterations =  3.2

     total cpu time spent up to now is    12612.7 secs

     total energy              =    -705.02915375 Ry
     Harris-Foulkes estimate   =    -705.02915376 Ry
     estimated scf accuracy    <       0.00000003 Ry

     iteration # 21     ecut=    50.00 Ry     beta= 0.60
     Davidson diagonalization with overlap
     ethr =  3.87E-11,  avg # of iterations =  4.7

     total cpu time spent up to now is    12722.8 secs

     total energy              =    -705.02915375 Ry
     Harris-Foulkes estimate   =    -705.02915376 Ry
     estimated scf accuracy    <       0.00000007 Ry

     iteration # 22     ecut=    50.00 Ry     beta= 0.60
     Davidson diagonalization with overlap
     ethr =  3.87E-11,  avg # of iterations =  1.3

     total cpu time spent up to now is    12794.6 secs

     total energy              =    -705.02915375 Ry
     Harris-Foulkes estimate   =    -705.02915375 Ry
     estimated scf accuracy    <       0.00000002 Ry

     iteration # 23     ecut=    50.00 Ry     beta= 0.60
     Davidson diagonalization with overlap
     ethr =  2.09E-11,  avg # of iterations =  3.0

     total cpu time spent up to now is    12873.2 secs

     total energy              =    -705.02915375 Ry
     Harris-Foulkes estimate   =    -705.02915375 Ry
     estimated scf accuracy    <          3.0E-09 Ry

     iteration # 24     ecut=    50.00 Ry     beta= 0.60
     Davidson diagonalization with overlap
     ethr =  3.92E-12,  avg # of iterations =  4.0

     total cpu time spent up to now is    12965.5 secs

     total energy              =    -705.02915375 Ry
     Harris-Foulkes estimate   =    -705.02915375 Ry
     estimated scf accuracy    <          2.3E-10 Ry

     iteration # 25     ecut=    50.00 Ry     beta= 0.60
     Davidson diagonalization with overlap
     ethr =  2.98E-13,  avg # of iterations =  3.9

     total cpu time spent up to now is    13069.0 secs

     total energy              =    -705.02915375 Ry
     Harris-Foulkes estimate   =    -705.02915375 Ry
     estimated scf accuracy    <          5.2E-10 Ry

     iteration # 26     ecut=    50.00 Ry     beta= 0.60
     Davidson diagonalization with overlap
     ethr =  2.98E-13,  avg # of iterations =  2.8

     total cpu time spent up to now is    13146.7 secs

     End of self-consistent calculation

     Number of k-points >= 100: set verbosity='high' to print the bands.

     the Fermi energy is    16.4069 ev

!    total energy              =    -705.02915375 Ry
     Harris-Foulkes estimate   =    -705.02915375 Ry
     estimated scf accuracy    <          6.1E-11 Ry

     The total energy is the sum of the following terms:

     one-electron contribution =    -146.89016190 Ry
     hartree contribution      =     108.65372724 Ry
     xc contribution           =    -102.82805163 Ry
     ewald contribution        =    -563.96385774 Ry
     smearing contrib. (-TS)   =      -0.00080973 Ry

     convergence has been achieved in  26 iterations

     Forces acting on atoms (cartesian axes, Ry/au):

     atom    1 type  1   force =     0.00000000    0.00000000    0.00000000
     atom    2 type  2   force =     0.00747102    0.00143456   -0.00143456
     atom    3 type  2   force =    -0.00747102   -0.00143456    0.00143456
     atom    4 type  1   force =     0.00162290   -0.00614754    0.00614754
     atom    5 type  1   force =     0.00000000    0.00000000    0.00000000
     atom    6 type  1   force =    -0.00162290    0.00614754   -0.00614754

     Total force =     0.016622     Total SCF correction =     0.000008


     Computing stress (Cartesian axis) and pressure

          total   stress  (Ry/bohr**3)                   (kbar)     P=   -5.26
  -0.00005524   0.00001314  -0.00001314         -8.13      1.93     -1.93
   0.00001314  -0.00002599  -0.00000058          1.93     -3.82     -0.09
  -0.00001314  -0.00000058  -0.00002599         -1.93     -0.09     -3.82


     number of scf cycles    =   4
     number of bfgs steps    =   3

     enthalpy old            =    -705.0248371096 Ry
     enthalpy new            =    -705.0291537533 Ry

     CASE: enthalpy_new < enthalpy_old

     new trust radius        =       0.0084078299 bohr
     new conv_thr            =            1.0E-10 Ry

     new unit-cell volume =    718.06439 a.u.^3 (   106.40616 Ang^3 )
     density =      7.29346 g/cm^3

CELL_PARAMETERS (alat=  1.88972599)
   4.917937795   1.649713829   1.637875945
   1.631424814  -4.932440047   1.644850273
  -1.631424814   1.644850273  -4.932440047

ATOMIC_POSITIONS (angstrom)
Nb       3.274681305  -3.285157996  -0.002431778
Ti       3.297963799   0.007661247  -0.007661247
Ti       1.619973996  -1.645537193  -1.642052581
Nb       4.922481184  -1.654566523   1.654566523
Nb       4.917937795  -1.637875945  -1.649713829
Nb      -0.004543389   0.016690578  -3.304280351


     NEW-OLD atomic charge density approx. for the potential
     extrapolated charge   75.76841, renormalised to   76.00000

     total cpu time spent up to now is    13186.6 secs

     Self-consistent Calculation

     iteration #  1     ecut=    50.00 Ry     beta= 0.60
     Davidson diagonalization with overlap
     ethr =  1.00E-06,  avg # of iterations =  4.3

     total cpu time spent up to now is    13352.0 secs

     total energy              =    -705.02538992 Ry
     Harris-Foulkes estimate   =    -705.34676598 Ry
     estimated scf accuracy    <       0.00358647 Ry

     iteration #  2     ecut=    50.00 Ry     beta= 0.60
     Davidson diagonalization with overlap
     c_bands:  1 eigenvalues not converged
     c_bands:  1 eigenvalues not converged
     c_bands:  1 eigenvalues not converged
     c_bands:  1 eigenvalues not converged
     c_bands:  1 eigenvalues not converged
     c_bands:  1 eigenvalues not converged
     c_bands:  1 eigenvalues not converged
     c_bands:  1 eigenvalues not converged
     c_bands:  1 eigenvalues not converged
     c_bands:  1 eigenvalues not converged
     c_bands:  1 eigenvalues not converged
     c_bands:  1 eigenvalues not converged
     c_bands:  1 eigenvalues not converged
     ethr =  4.72E-06,  avg # of iterations =  7.7

     total cpu time spent up to now is    13513.6 secs

     total energy              =    -705.02371777 Ry
     Harris-Foulkes estimate   =    -705.03802250 Ry
     estimated scf accuracy    <       0.09439114 Ry

     iteration #  3     ecut=    50.00 Ry     beta= 0.60
     Davidson diagonalization with overlap
     ethr =  4.72E-06,  avg # of iterations =  5.4

     total cpu time spent up to now is    13644.5 secs

     total energy              =    -705.02944653 Ry
     Harris-Foulkes estimate   =    -705.03021307 Ry
     estimated scf accuracy    <       0.00211382 Ry

     iteration #  4     ecut=    50.00 Ry     beta= 0.60
     Davidson diagonalization with overlap
     ethr =  2.78E-06,  avg # of iterations =  2.0

     total cpu time spent up to now is    13724.9 secs

     total energy              =    -705.02959755 Ry
     Harris-Foulkes estimate   =    -705.02969716 Ry
     estimated scf accuracy    <       0.00150366 Ry

     iteration #  5     ecut=    50.00 Ry     beta= 0.60
     Davidson diagonalization with overlap
     ethr =  1.98E-06,  avg # of iterations =  1.0

     total cpu time spent up to now is    13796.1 secs

     total energy              =    -705.02952552 Ry
     Harris-Foulkes estimate   =    -705.02962893 Ry
     estimated scf accuracy    <       0.00108163 Ry

     iteration #  6     ecut=    50.00 Ry     beta= 0.60
     Davidson diagonalization with overlap
     ethr =  1.42E-06,  avg # of iterations =  1.0

     total cpu time spent up to now is    13866.6 secs

     total energy              =    -705.02944646 Ry
     Harris-Foulkes estimate   =    -705.02953839 Ry
     estimated scf accuracy    <       0.00063720 Ry

     iteration #  7     ecut=    50.00 Ry     beta= 0.60
     Davidson diagonalization with overlap
     ethr =  8.38E-07,  avg # of iterations =  1.9

     total cpu time spent up to now is    13939.8 secs

     total energy              =    -705.02942369 Ry
     Harris-Foulkes estimate   =    -705.02947028 Ry
     estimated scf accuracy    <       0.00018997 Ry

     iteration #  8     ecut=    50.00 Ry     beta= 0.60
     Davidson diagonalization with overlap
     ethr =  2.50E-07,  avg # of iterations =  3.8

     total cpu time spent up to now is    14029.0 secs

     total energy              =    -705.02945149 Ry
     Harris-Foulkes estimate   =    -705.02945281 Ry
     estimated scf accuracy    <       0.00000690 Ry

     iteration #  9     ecut=    50.00 Ry     beta= 0.60
     Davidson diagonalization with overlap
     ethr =  9.08E-09,  avg # of iterations =  3.8

     total cpu time spent up to now is    14139.3 secs

     total energy              =    -705.02945346 Ry
     Harris-Foulkes estimate   =    -705.02945360 Ry
     estimated scf accuracy    <       0.00000086 Ry

     iteration # 10     ecut=    50.00 Ry     beta= 0.60
     Davidson diagonalization with overlap
     ethr =  1.13E-09,  avg # of iterations =  3.7

     total cpu time spent up to now is    14248.5 secs

     total energy              =    -705.02945339 Ry
     Harris-Foulkes estimate   =    -705.02945377 Ry
     estimated scf accuracy    <       0.00000257 Ry

     iteration # 11     ecut=    50.00 Ry     beta= 0.60
     Davidson diagonalization with overlap
     ethr =  1.13E-09,  avg # of iterations =  3.1

     total cpu time spent up to now is    14328.3 secs

     total energy              =    -705.02945338 Ry
     Harris-Foulkes estimate   =    -705.02945348 Ry
     estimated scf accuracy    <       0.00000042 Ry

     iteration # 12     ecut=    50.00 Ry     beta= 0.60
     Davidson diagonalization with overlap
     ethr =  5.48E-10,  avg # of iterations =  4.0

     total cpu time spent up to now is    14423.8 secs

     total energy              =    -705.02945346 Ry
     Harris-Foulkes estimate   =    -705.02945348 Ry
     estimated scf accuracy    <       0.00000012 Ry

     iteration # 13     ecut=    50.00 Ry     beta= 0.60
     Davidson diagonalization with overlap
     ethr =  1.63E-10,  avg # of iterations =  1.3

     total cpu time spent up to now is    14496.9 secs

     total energy              =    -705.02945347 Ry
[...]
   0.00000001   0.00000003  -0.00000000          0.00      0.01     -0.00


     bfgs converged in  25 scf cycles and  24 bfgs steps
     (criteria: energy <  1.0E-10 Ry, force <  1.0E-05Ry/Bohr, cell <  1.0E-03kbar)

     End of BFGS Geometry Optimization

     Final enthalpy =    -705.0310177560 Ry
Begin final coordinates
     new unit-cell volume =    718.36184 a.u.^3 (   106.45024 Ang^3 )
     density =      7.29044 g/cm^3

CELL_PARAMETERS (alat=  1.88972599)
   4.906296841   1.670627183   1.613834564
   1.597699677  -4.935908920   1.651447173
  -1.597699677   1.651447173  -4.935908920

ATOMIC_POSITIONS (angstrom)
Nb       3.251998259  -3.274871742  -0.009590005
Ti       3.334045934   0.040335929  -0.040335929
Ti       1.572250906  -1.654170493  -1.630291254
Nb       4.885948203  -1.671393027   1.671393027
Nb       4.906296841  -1.613834564  -1.670627183
Nb       0.020348638   0.057558463  -3.342020210
End final coordinates



     A final scf calculation at the relaxed structure.
     The G-vectors are recalculated for the final unit cell
     Results may differ from those at the preceding step.
 
     Parallelization info
     --------------------
     sticks:   dense  smooth     PW     G-vecs:    dense   smooth      PW
     Min        1048     419    137                33927     8575    1602
     Max        1049     420    138                33928     8576    1603
     Sum        4195    1679    551               135709    34303    6409
 


     bravais-lattice index     =            0
     lattice parameter (alat)  =       1.8897  a.u.
     unit-cell volume          =     718.3618 (a.u.)^3
     number of atoms/cell      =            6
     number of atomic types    =            2
     number of electrons       =        76.00
     number of Kohn-Sham states=           46
     kinetic-energy cutoff     =      50.0000  Ry
     charge density cutoff     =     500.0000  Ry
     convergence threshold     =      1.0E-12
     mixing beta               =       0.6000
     number of iterations used =            8  plain     mixing
     Exchange-correlation      = SLA PW PBE PBE ( 1  4  3  4 0 0)

     celldm(1)=   1.889726  celldm(2)=   0.000000  celldm(3)=   0.000000
     celldm(4)=   0.000000  celldm(5)=   0.000000  celldm(6)=   0.000000

     crystal axes: (cart. coord. in units of alat)
               a(1) = (   4.906297   1.670627   1.613835 )  
               a(2) = (   1.597700  -4.935909   1.651447 )  
               a(3) = (  -1.597700   1.651447  -4.935909 )  

     reciprocal axes: (cart. coord. in units 2 pi/alat)
               b(1) = (  0.203249  0.049296 -0.049296 )  
               b(2) = (  0.102501 -0.203274 -0.101190 )  
               b(3) = (  0.100748 -0.051893 -0.252570 )  


     PseudoPot. # 1 for Nb read from file:
     ./Nb.pbe-nsp-van.UPF
     MD5 check sum: 0a22fc7fb0ba19a08ca5db297a5d2854
     Pseudo is Ultrasoft + core correction, Zval = 13.0
     Generated by new atomic code, or converted to UPF format
     Using radial grid of  887 points,  6 beta functions with: 
                l(1) =   0
                l(2) =   0
                l(3) =   1
                l(4) =   1
                l(5) =   2
                l(6) =   2
     Q(r) pseudized with  6 coefficients,  rinner =    1.000   1.000   1.000
                                                       1.000   1.000

     PseudoPot. # 2 for Ti read from file:
     ./Ti.pbe-sp-van_ak.UPF
     MD5 check sum: f98fea3e8887528921fefa5636a534ca
     Pseudo is Ultrasoft, Zval = 12.0
     Generated by new atomic code, or converted to UPF format
     Using radial grid of  851 points,  6 beta functions with: 
                l(1) =   0
                l(2) =   0
                l(3) =   1
                l(4) =   1
                l(5) =   2
                l(6) =   2
     Q(r) pseudized with  8 coefficients,  rinner =    1.000   1.000   1.000
                                                       1.000   1.000

     atomic species   valence    mass     pseudopotential
        Nb            13.00    92.90638     Nb( 1.00)
        Ti            12.00    47.86700     Ti( 1.00)

      4 Sym. Ops., with inversion, found



   Cartesian axes

     site n.     atom                  positions (alat units)
         1           Nb  tau(   1) = (   3.2519985  -3.2748720  -0.0095900  )
         2           Ti  tau(   2) = (   3.3340462   0.0403359  -0.0403359  )
         3           Ti  tau(   3) = (   1.5722510  -1.6541706  -1.6302914  )
         4           Nb  tau(   4) = (   4.8859486  -1.6713932   1.6713932  )
         5           Nb  tau(   5) = (   4.9062972  -1.6138347  -1.6706273  )
         6           Nb  tau(   6) = (   0.0203486   0.0575585  -3.3420205  )

     number of k points=   476  Marzari-Vanderbilt smearing, width (Ry)=  0.0200

     Number of k-points >= 100: set verbosity='high' to print them.

     Dense  grid:   135709 G-vectors     FFT dimensions: (  75,  75,  75)

     Smooth grid:    34303 G-vectors     FFT dimensions: (  48,  48,  48)

     Estimated max dynamical RAM per process >     490.63 MB

     Estimated total dynamical RAM >       1.92 GB

     Initial potential from superposition of free atoms

     starting charge   73.98898, renormalised to   76.00000
     Starting wfcs are   72 randomized atomic wfcs

     total cpu time spent up to now is    42726.7 secs

     Self-consistent Calculation

     iteration #  1     ecut=    50.00 Ry     beta= 0.60
     Davidson diagonalization with overlap
     c_bands:  1 eigenvalues not converged
     c_bands:  1 eigenvalues not converged
     ethr =  1.00E-06,  avg # of iterations = 11.7

     total cpu time spent up to now is    42993.9 secs

     total energy              =    -682.08404873 Ry
     Harris-Foulkes estimate   =    -707.62825536 Ry
     estimated scf accuracy    <      32.11342700 Ry

     iteration #  2     ecut=    50.00 Ry     beta= 0.60
     Davidson diagonalization with overlap
     ethr =  1.00E-02,  avg # of iterations =  6.9

     total cpu time spent up to now is    43121.3 secs

     total energy              =    -679.73240051 Ry
     Harris-Foulkes estimate   =    -739.15983394 Ry
     estimated scf accuracy    <     199.26499712 Ry

     iteration #  3     ecut=    50.00 Ry     beta= 0.60
     Davidson diagonalization with overlap
     ethr =  1.00E-02,  avg # of iterations =  4.0

     total cpu time spent up to now is    43232.9 secs

     total energy              =    -705.93246264 Ry
     Harris-Foulkes estimate   =    -707.96973295 Ry
     estimated scf accuracy    <      15.12708412 Ry

     iteration #  4     ecut=    50.00 Ry     beta= 0.60
     Davidson diagonalization with overlap
     ethr =  1.00E-02,  avg # of iterations =  1.6

     total cpu time spent up to now is    43291.1 secs

     total energy              =    -706.20702281 Ry
     Harris-Foulkes estimate   =    -706.52883372 Ry
     estimated scf accuracy    <       7.42979943 Ry

     iteration #  5     ecut=    50.00 Ry     beta= 0.60
     Davidson diagonalization with overlap
     ethr =  9.78E-03,  avg # of iterations =  1.0

     total cpu time spent up to now is    43351.1 secs

     total energy              =    -705.31451351 Ry
     Harris-Foulkes estimate   =    -706.24138380 Ry
     estimated scf accuracy    <       6.51261542 Ry

     iteration #  6     ecut=    50.00 Ry     beta= 0.60
     Davidson diagonalization with overlap
     ethr =  8.57E-03,  avg # of iterations =  1.1

     total cpu time spent up to now is    43407.6 secs

     total energy              =    -704.67611909 Ry
     Harris-Foulkes estimate   =    -705.40815135 Ry
     estimated scf accuracy    <       4.16730615 Ry

     iteration #  7     ecut=    50.00 Ry     beta= 0.60
     Davidson diagonalization with overlap
     ethr =  5.48E-03,  avg # of iterations =  3.8

     total cpu time spent up to now is    43477.6 secs

     total energy              =    -704.83658781 Ry
     Harris-Foulkes estimate   =    -705.02920490 Ry
     estimated scf accuracy    <       0.37175236 Ry

     iteration #  8     ecut=    50.00 Ry     beta= 0.60
     Davidson diagonalization with overlap
     ethr =  4.89E-04,  avg # of iterations =  5.0

     total cpu time spent up to now is    43587.6 secs

     total energy              =    -704.34165942 Ry
     Harris-Foulkes estimate   =    -705.60849836 Ry
     estimated scf accuracy    <      10.46078716 Ry

     iteration #  9     ecut=    50.00 Ry     beta= 0.60
     Davidson diagonalization with overlap
     ethr =  4.89E-04,  avg # of iterations =  5.5

     total cpu time spent up to now is    43692.4 secs

     total energy              =    -705.04373093 Ry
     Harris-Foulkes estimate   =    -705.04083786 Ry
     estimated scf accuracy    <       0.05338789 Ry

     iteration # 10     ecut=    50.00 Ry     beta= 0.60
     Davidson diagonalization with overlap
     ethr =  7.02E-05,  avg # of iterations =  4.5

     total cpu time spent up to now is    43763.0 secs

     total energy              =    -705.05703151 Ry
     Harris-Foulkes estimate   =    -705.05099873 Ry
     estimated scf accuracy    <       0.18080781 Ry

     iteration # 11     ecut=    50.00 Ry     beta= 0.60
     Davidson diagonalization with overlap
     ethr =  7.02E-05,  avg # of iterations =  2.6

     total cpu time spent up to now is    43825.7 secs

     total energy              =    -705.04185325 Ry
     Harris-Foulkes estimate   =    -705.05953730 Ry
     estimated scf accuracy    <       0.26394030 Ry

     iteration # 12     ecut=    50.00 Ry     beta= 0.60
     Davidson diagonalization with overlap
     ethr =  7.02E-05,  avg # of iterations =  1.0

     total cpu time spent up to now is    43882.5 secs

     total energy              =    -705.03663368 Ry
     Harris-Foulkes estimate   =    -705.04378155 Ry
     estimated scf accuracy    <       0.15650948 Ry

     iteration # 13     ecut=    50.00 Ry     beta= 0.60
     Davidson diagonalization with overlap
     ethr =  7.02E-05,  avg # of iterations =  1.2

     total cpu time spent up to now is    43939.5 secs

     total energy              =    -705.02917612 Ry
     Harris-Foulkes estimate   =    -705.03758850 Ry
     estimated scf accuracy    <       0.09861176 Ry

     iteration # 14     ecut=    50.00 Ry     beta= 0.60
     Davidson diagonalization with overlap
     ethr =  7.02E-05,  avg # of iterations =  2.6

     total cpu time spent up to now is    44001.6 secs

     total energy              =    -705.02876487 Ry
     Harris-Foulkes estimate   =    -705.03151532 Ry
     estimated scf accuracy    <       0.02674442 Ry

     iteration # 15     ecut=    50.00 Ry     beta= 0.60
     Davidson diagonalization with overlap
     ethr =  3.52E-05,  avg # of iterations =  3.8

     total cpu time spent up to now is    44072.7 secs

     total energy              =    -705.03021186 Ry
     Harris-Foulkes estimate   =    -705.03016643 Ry
     estimated scf accuracy    <       0.00384198 Ry

     iteration # 16     ecut=    50.00 Ry     beta= 0.60
     Davidson diagonalization with overlap
     ethr =  5.06E-06,  avg # of iterations =  5.9

     total cpu time spent up to now is    44155.9 secs

     total energy              =    -705.03037531 Ry
     Harris-Foulkes estimate   =    -705.03052695 Ry
     estimated scf accuracy    <       0.00253796 Ry

     iteration # 17     ecut=    50.00 Ry     beta= 0.60
     Davidson diagonalization with overlap
     ethr =  3.34E-06,  avg # of iterations =  1.1

     total cpu time spent up to now is    44212.6 secs

     total energy              =    -705.03020772 Ry
     Harris-Foulkes estimate   =    -705.03040186 Ry
     estimated scf accuracy    <       0.00170359 Ry

     iteration # 18     ecut=    50.00 Ry     beta= 0.60
     Davidson diagonalization with overlap
     ethr =  2.24E-06,  avg # of iterations =  3.0

     total cpu time spent up to now is    44275.8 secs

     total energy              =    -705.03025354 Ry
     Harris-Foulkes estimate   =    -705.03028105 Ry
     estimated scf accuracy    <       0.00025941 Ry

     iteration # 19     ecut=    50.00 Ry     beta= 0.60
     Davidson diagonalization with overlap
     ethr =  3.41E-07,  avg # of iterations =  5.0

     total cpu time spent up to now is    44356.3 secs

     total energy              =    -705.03029601 Ry
     Harris-Foulkes estimate   =    -705.03029717 Ry
     estimated scf accuracy    <       0.00000309 Ry

     iteration # 20     ecut=    50.00 Ry     beta= 0.60
     Davidson diagonalization with overlap
     ethr =  4.07E-09,  avg # of iterations =  4.4

     total cpu time spent up to now is    44444.4 secs

     total energy              =    -705.03029760 Ry
     Harris-Foulkes estimate   =    -705.03029798 Ry
     estimated scf accuracy    <       0.00000613 Ry

     iteration # 21     ecut=    50.00 Ry     beta= 0.60
     Davidson diagonalization with overlap
     ethr =  4.07E-09,  avg # of iterations =  1.0

     total cpu time spent up to now is    44500.9 secs

     total energy              =    -705.03029725 Ry
     Harris-Foulkes estimate   =    -705.03029766 Ry
     estimated scf accuracy    <       0.00000303 Ry

     iteration # 22     ecut=    50.00 Ry     beta= 0.60
     Davidson diagonalization with overlap
     ethr =  3.99E-09,  avg # of iterations =  2.2

     total cpu time spent up to now is    44563.8 secs

     total energy              =    -705.03029748 Ry
     Harris-Foulkes estimate   =    -705.03029749 Ry
     estimated scf accuracy    <       0.00000003 Ry

     iteration # 23     ecut=    50.00 Ry     beta= 0.60
     Davidson diagonalization with overlap
     ethr =  3.37E-11,  avg # of iterations =  5.0

     total cpu time spent up to now is    44660.0 secs

     total energy              =    -705.03029749 Ry
     Harris-Foulkes estimate   =    -705.03029752 Ry
     estimated scf accuracy    <       0.00000020 Ry

     iteration # 24     ecut=    50.00 Ry     beta= 0.60
     Davidson diagonalization with overlap
     ethr =  3.37E-11,  avg # of iterations =  4.0

     total cpu time spent up to now is    44741.4 secs

     total energy              =    -705.03029750 Ry
     Harris-Foulkes estimate   =    -705.03029750 Ry
     estimated scf accuracy    <          6.5E-10 Ry

     iteration # 25     ecut=    50.00 Ry     beta= 0.60
     Davidson diagonalization with overlap
     ethr =  8.54E-13,  avg # of iterations =  4.2

     total cpu time spent up to now is    44824.6 secs

     total energy              =    -705.03029750 Ry
     Harris-Foulkes estimate   =    -705.03029750 Ry
     estimated scf accuracy    <          1.1E-09 Ry

     iteration # 26     ecut=    50.00 Ry     beta= 0.60
     Davidson diagonalization with overlap
     ethr =  8.54E-13,  avg # of iterations =  2.1

     total cpu time spent up to now is    44884.5 secs

     total energy              =    -705.03029750 Ry
     Harris-Foulkes estimate   =    -705.03029750 Ry
     estimated scf accuracy    <          1.1E-10 Ry

     iteration # 27     ecut=    50.00 Ry     beta= 0.60
     Davidson diagonalization with overlap
     ethr =  1.42E-13,  avg # of iterations =  3.9

     total cpu time spent up to now is    44959.5 secs

     total energy              =    -705.03029750 Ry
     Harris-Foulkes estimate   =    -705.03029750 Ry
     estimated scf accuracy    <          6.3E-12 Ry

     iteration # 28     ecut=    50.00 Ry     beta= 0.60
     Davidson diagonalization with overlap
     ethr =  1.00E-13,  avg # of iterations =  1.0

     total cpu time spent up to now is    45015.8 secs

     End of self-consistent calculation

     Number of k-points >= 100: set verbosity='high' to print the bands.

     the Fermi energy is    16.4554 ev

!    total energy              =    -705.03029750 Ry
     Harris-Foulkes estimate   =    -705.03029750 Ry
     estimated scf accuracy    <          2.6E-13 Ry

     The total energy is the sum of the following terms:

     one-electron contribution =    -146.48695325 Ry
     hartree contribution      =     108.60641146 Ry
     xc contribution           =    -102.85204395 Ry
     ewald contribution        =    -564.29766477 Ry
     smearing contrib. (-TS)   =      -0.00004699 Ry

     convergence has been achieved in  28 iterations

     Forces acting on atoms (cartesian axes, Ry/au):

     atom    1 type  1   force =     0.00000000    0.00000000    0.00000000
     atom    2 type  2   force =     0.00000101    0.00000268   -0.00000268
     atom    3 type  2   force =    -0.00000101   -0.00000268    0.00000268
     atom    4 type  1   force =     0.00001202   -0.00000574    0.00000574
     atom    5 type  1   force =     0.00000000    0.00000000    0.00000000
     atom    6 type  1   force =    -0.00001202    0.00000574   -0.00000574

     Total force =     0.000021     Total SCF correction =     0.000001


     Computing stress (Cartesian axis) and pressure

          total   stress  (Ry/bohr**3)                   (kbar)     P=   -1.19
  -0.00000799  -0.00000007   0.00000007         -1.18     -0.01      0.01
  -0.00000007  -0.00000814  -0.00000011         -0.01     -1.20     -0.02
   0.00000007  -0.00000011  -0.00000814          0.01     -0.02     -1.20

 
     init_run     :     76.75s CPU     78.21s WALL (       2 calls)
     electrons    :  41117.67s CPU  44025.46s WALL (      26 calls)
     update_pot   :     49.66s CPU     54.59s WALL (      24 calls)
     forces       :    185.58s CPU    189.52s WALL (      26 calls)
     stress       :    573.57s CPU    584.61s WALL (      26 calls)

     Called by init_run:
     wfcinit      :     73.33s CPU     74.49s WALL (       2 calls)
     potinit      :      1.04s CPU      1.06s WALL (       2 calls)
     hinit0       :      1.84s CPU      1.86s WALL (       2 calls)

     Called by electrons:
     c_bands      :  34921.72s CPU  37360.46s WALL (     460 calls)
     sum_band     :   6032.35s CPU   6144.38s WALL (     460 calls)
     v_of_rho     :     32.08s CPU     32.39s WALL (     476 calls)
     newd         :    133.27s CPU    196.39s WALL (     476 calls)
     mix_rho      :      3.87s CPU      3.90s WALL (     460 calls)

     Called by c_bands:
     init_us_2    :    408.86s CPU    411.42s WALL (  463624 calls)
     cegterg      :  32292.91s CPU  32606.70s WALL (  218960 calls)

     Called by sum_band:
     sum_band:bec :      9.63s CPU      9.38s WALL (  218960 calls)
     addusdens    :    156.11s CPU    213.41s WALL (     460 calls)

     Called by *egterg:
     h_psi        :  24515.99s CPU  24807.60s WALL (  872333 calls)
     s_psi        :    909.87s CPU    912.04s WALL (  872333 calls)
     g_psi        :    164.92s CPU    163.64s WALL (  652421 calls)
     cdiaghg      :   3475.54s CPU   3482.69s WALL (  855197 calls)

     Called by h_psi:
     h_psi:pot    :  24452.91s CPU  24743.23s WALL (  872333 calls)
     h_psi:calbec :    989.70s CPU    992.43s WALL (  872333 calls)
     vloc_psi     :  22547.92s CPU  22830.14s WALL (  872333 calls)
     add_vuspsi   :    911.73s CPU    915.94s WALL (  872333 calls)

     General routines
     calbec       :   1457.16s CPU   1460.63s WALL ( 1153173 calls)
     fft          :     20.98s CPU     21.26s WALL (    6846 calls)
     ffts         :      0.80s CPU      0.79s WALL (     936 calls)
     fftw         :  25050.19s CPU  25367.02s WALL (61145230 calls)
     interpolate  :      1.99s CPU      2.00s WALL (     476 calls)
 
     Parallel routines
     fft_scatt_xy :   4381.13s CPU   4404.74s WALL (61153012 calls)
     fft_scatt_yz :   6130.51s CPU   6169.80s WALL (61153012 calls)
 
     PWSCF        :    11h40m CPU       40h12m WALL

      30h
 
   This run was terminated on:  10: 7:22  27Feb2020            

=------------------------------------------------------------------------------=
   JOB DONE.
=------------------------------------------------------------------------------=
