
     Program PWSCF v.6.0 (svn rev. 13079) starts on 29Apr2018 at 11:33:31 

     This program is part of the open-source Quantum ESPRESSO suite
     for quantum simulation of materials; please cite
         "P. Giannozzi et al., J. Phys.:Condens. Matter 21 395502 (2009);
          URL http://www.quantum-espresso.org", 
     in publications or presentations arising from this work. More details at
     http://www.quantum-espresso.org/quote

     Parallel version (MPI), running on     4 processors
     R & G space division:  proc/nbgrp/npool/nimage =       4
     Waiting for input...
     Reading input from standard input

     Current dimensions of program PWSCF are:
     Max number of different atomic species (ntypx) = 10
     Max number of k-points (npk) =  40000
     Max angular momentum in pseudopotentials (lmaxx) =  3

     Subspace diagonalization in iterative solution of the eigenvalue problem:
     a serial algorithm will be used


     Parallelization info
     --------------------
     sticks:   dense  smooth     PW     G-vecs:    dense   smooth      PW
     Min         431     171     53                18199     4595     779
     Max         432     172     54                18202     4596     782
     Sum        1727     687    213                72801    18383    3123



     bravais-lattice index     =            0
     lattice parameter (alat)  =       1.8897  a.u.
     unit-cell volume          =     538.8952 (a.u.)^3
     number of atoms/cell      =            4
     number of atomic types    =            2
     number of electrons       =        50.00
     number of Kohn-Sham states=           30
     kinetic-energy cutoff     =      40.0000  Ry
     charge density cutoff     =     400.0000  Ry
     convergence threshold     =      1.0E-10
     mixing beta               =       0.6000
     number of iterations used =            8  plain     mixing
     Exchange-correlation      = SLA  PW   PBE  PBE ( 1  4  3  4 0 0)
     nstep                     =           50


     celldm(1)=   1.889726  celldm(2)=   0.000000  celldm(3)=   0.000000
     celldm(4)=   0.000000  celldm(5)=   0.000000  celldm(6)=   0.000000

     crystal axes: (cart. coord. in units of alat)
               a(1) = (   1.522502  -2.637051   0.000000 )  
               a(2) = (   0.000000   0.000000  -4.972461 )  
               a(3) = (   4.567506   2.637051   0.000000 )  

     reciprocal axes: (cart. coord. in units 2 pi/alat)
               b(1) = (  0.164203 -0.284409  0.000000 )  
               b(2) = (  0.000000  0.000000 -0.201108 )  
               b(3) = (  0.164203  0.094803  0.000000 )  


     PseudoPot. # 1 for Nb read from file:
     ./Nb.pbe-nsp-van.UPF
     MD5 check sum: 0a22fc7fb0ba19a08ca5db297a5d2854
     Pseudo is Ultrasoft + core correction, Zval = 13.0
     Generated by new atomic code, or converted to UPF format
     Using radial grid of  887 points,  6 beta functions with: 
                l(1) =   0
                l(2) =   0
                l(3) =   1
                l(4) =   1
                l(5) =   2
                l(6) =   2
     Q(r) pseudized with  6 coefficients,  rinner =    1.000   1.000   1.000
                                                       1.000   1.000

     PseudoPot. # 2 for Ti read from file:
     ./Ti.pbe-sp-van_ak.UPF
     MD5 check sum: f98fea3e8887528921fefa5636a534ca
     Pseudo is Ultrasoft, Zval = 12.0
     Generated by new atomic code, or converted to UPF format
     Using radial grid of  851 points,  6 beta functions with: 
                l(1) =   0
                l(2) =   0
                l(3) =   1
                l(4) =   1
                l(5) =   2
                l(6) =   2
     Q(r) pseudized with  8 coefficients,  rinner =    1.000   1.000   1.000
                                                       1.000   1.000

     atomic species   valence    mass     pseudopotential
        Nb            13.00    92.90638     Nb( 1.00)
        Ti            12.00    47.86700     Ti( 1.00)

      4 Sym. Ops. (no inversion) found
          (note:  4 additional sym.ops. were found but ignored
           their fractional translations are incommensurate with FFT grid)


   Cartesian axes

     site n.     atom                  positions (alat units)
         1           Nb  tau(   1) = (   3.0450042   0.0000000  -4.9724614  )
         2           Ti  tau(   2) = (   3.0450058  -1.7580350  -2.4862307  )
         3           Ti  tau(   3) = (   6.0900085   0.0000000  -4.9724614  )
         4           Nb  tau(   4) = (   4.5675079   0.8790162  -2.4862307  )

     number of k points=   360  Marzari-Vanderbilt smearing, width (Ry)=  0.0200

     Number of k-points >= 100: set verbosity='high' to print them.

     Dense  grid:    72801 G-vectors     FFT dimensions: (  40,  60,  64)

     Smooth grid:    18383 G-vectors     FFT dimensions: (  24,  40,  45)

     Estimated max dynamical RAM per process >     108.33Mb

     Estimated total allocated dynamical RAM >     433.33Mb

     Initial potential from superposition of free atoms

     starting charge   47.99445, renormalised to   50.00000
     Starting wfc are   46 randomized atomic wfcs

     total cpu time spent up to now is       16.7 secs

     per-process dynamical memory:   179.4 Mb

     Self-consistent Calculation

     iteration #  1     ecut=    40.00 Ry     beta=0.60
     Davidson diagonalization with overlap
     ethr =  1.00E-02,  avg # of iterations =  3.1

     total cpu time spent up to now is       50.6 secs

     total energy              =    -462.09222037 Ry
     Harris-Foulkes estimate   =    -470.60459714 Ry
     estimated scf accuracy    <      10.81765099 Ry

     iteration #  2     ecut=    40.00 Ry     beta=0.60
     Davidson diagonalization with overlap
     ethr =  1.00E-02,  avg # of iterations =  5.3

     total cpu time spent up to now is      107.6 secs

     total energy              =    -467.49499288 Ry
     Harris-Foulkes estimate   =    -480.89114930 Ry
     estimated scf accuracy    <      38.19824952 Ry

     iteration #  3     ecut=    40.00 Ry     beta=0.60
     Davidson diagonalization with overlap
     ethr =  1.00E-02,  avg # of iterations =  3.6

     total cpu time spent up to now is      147.3 secs

     total energy              =    -469.64116274 Ry
     Harris-Foulkes estimate   =    -470.01774880 Ry
     estimated scf accuracy    <       5.59174759 Ry

     iteration #  4     ecut=    40.00 Ry     beta=0.60
     Davidson diagonalization with overlap
     ethr =  1.00E-02,  avg # of iterations =  1.0

     total cpu time spent up to now is      171.9 secs

     total energy              =    -468.59137875 Ry
     Harris-Foulkes estimate   =    -469.67987570 Ry
     estimated scf accuracy    <       4.54390791 Ry

     iteration #  5     ecut=    40.00 Ry     beta=0.60
     Davidson diagonalization with overlap
     ethr =  9.09E-03,  avg # of iterations =  3.6

     total cpu time spent up to now is      203.5 secs

     total energy              =    -469.02329233 Ry
     Harris-Foulkes estimate   =    -469.05291851 Ry
     estimated scf accuracy    <       0.10143038 Ry

     iteration #  6     ecut=    40.00 Ry     beta=0.60
     Davidson diagonalization with overlap
     ethr =  2.03E-04,  avg # of iterations =  6.0

     total cpu time spent up to now is      263.3 secs

     total energy              =    -468.85080268 Ry
     Harris-Foulkes estimate   =    -469.30759479 Ry
     estimated scf accuracy    <       3.04056222 Ry

     iteration #  7     ecut=    40.00 Ry     beta=0.60
     Davidson diagonalization with overlap
     ethr =  2.03E-04,  avg # of iterations =  5.3

     total cpu time spent up to now is      318.0 secs

     total energy              =    -469.11303256 Ry
     Harris-Foulkes estimate   =    -469.11404440 Ry
     estimated scf accuracy    <       0.08365048 Ry

     iteration #  8     ecut=    40.00 Ry     beta=0.60
     Davidson diagonalization with overlap
     ethr =  1.67E-04,  avg # of iterations =  1.0

     total cpu time spent up to now is      342.6 secs

     total energy              =    -469.11082481 Ry
     Harris-Foulkes estimate   =    -469.11828256 Ry
     estimated scf accuracy    <       0.11577540 Ry

     iteration #  9     ecut=    40.00 Ry     beta=0.60
     Davidson diagonalization with overlap
     ethr =  1.67E-04,  avg # of iterations =  1.2

     total cpu time spent up to now is      367.5 secs

     total energy              =    -469.10936879 Ry
     Harris-Foulkes estimate   =    -469.11376228 Ry
     estimated scf accuracy    <       0.12589005 Ry

     iteration # 10     ecut=    40.00 Ry     beta=0.60
     Davidson diagonalization with overlap
     ethr =  1.67E-04,  avg # of iterations =  1.0

     total cpu time spent up to now is      392.1 secs

     total energy              =    -469.09831385 Ry
     Harris-Foulkes estimate   =    -469.11120320 Ry
     estimated scf accuracy    <       0.12539728 Ry

     iteration # 11     ecut=    40.00 Ry     beta=0.60
     Davidson diagonalization with overlap
     ethr =  1.67E-04,  avg # of iterations =  1.0

     total cpu time spent up to now is      416.7 secs

     total energy              =    -469.09718867 Ry
     Harris-Foulkes estimate   =    -469.10063051 Ry
     estimated scf accuracy    <       0.05156674 Ry

     iteration # 12     ecut=    40.00 Ry     beta=0.60
     Davidson diagonalization with overlap
     ethr =  1.03E-04,  avg # of iterations =  1.1

     total cpu time spent up to now is      441.3 secs

     total energy              =    -469.09506090 Ry
     Harris-Foulkes estimate   =    -469.09806364 Ry
     estimated scf accuracy    <       0.02497934 Ry

     iteration # 13     ecut=    40.00 Ry     beta=0.60
     Davidson diagonalization with overlap
     ethr =  5.00E-05,  avg # of iterations =  3.3

     total cpu time spent up to now is      471.2 secs

     total energy              =    -469.09658582 Ry
     Harris-Foulkes estimate   =    -469.09685704 Ry
     estimated scf accuracy    <       0.00101742 Ry

     iteration # 14     ecut=    40.00 Ry     beta=0.60
     Davidson diagonalization with overlap
     ethr =  2.03E-06,  avg # of iterations =  5.7

     total cpu time spent up to now is      524.3 secs

     total energy              =    -469.09715059 Ry
     Harris-Foulkes estimate   =    -469.09738200 Ry
     estimated scf accuracy    <       0.00156773 Ry

     iteration # 15     ecut=    40.00 Ry     beta=0.60
     Davidson diagonalization with overlap
     ethr =  2.03E-06,  avg # of iterations =  1.1

     total cpu time spent up to now is      549.1 secs

     total energy              =    -469.09720289 Ry
     Harris-Foulkes estimate   =    -469.09722441 Ry
     estimated scf accuracy    <       0.00015628 Ry

     iteration # 16     ecut=    40.00 Ry     beta=0.60
     Davidson diagonalization with overlap
     ethr =  3.13E-07,  avg # of iterations =  4.5

     total cpu time spent up to now is      588.9 secs

     total energy              =    -469.09725601 Ry
     Harris-Foulkes estimate   =    -469.09727513 Ry
     estimated scf accuracy    <       0.00014576 Ry

     iteration # 17     ecut=    40.00 Ry     beta=0.60
     Davidson diagonalization with overlap
     ethr =  2.92E-07,  avg # of iterations =  1.0

     total cpu time spent up to now is      615.9 secs

     total energy              =    -469.09725917 Ry
     Harris-Foulkes estimate   =    -469.09726189 Ry
     estimated scf accuracy    <       0.00002865 Ry

     iteration # 18     ecut=    40.00 Ry     beta=0.60
     Davidson diagonalization with overlap
     ethr =  5.73E-08,  avg # of iterations =  3.9

     total cpu time spent up to now is      653.3 secs

     total energy              =    -469.09726393 Ry
     Harris-Foulkes estimate   =    -469.09726392 Ry
     estimated scf accuracy    <       0.00000152 Ry

     iteration # 19     ecut=    40.00 Ry     beta=0.60
     Davidson diagonalization with overlap
     ethr =  3.03E-09,  avg # of iterations =  4.4

     total cpu time spent up to now is      691.2 secs

     total energy              =    -469.09726390 Ry
     Harris-Foulkes estimate   =    -469.09726439 Ry
     estimated scf accuracy    <       0.00000655 Ry

     iteration # 20     ecut=    40.00 Ry     beta=0.60
     Davidson diagonalization with overlap
     ethr =  3.03E-09,  avg # of iterations =  1.1

     total cpu time spent up to now is      716.9 secs

     total energy              =    -469.09726355 Ry
     Harris-Foulkes estimate   =    -469.09726399 Ry
     estimated scf accuracy    <       0.00000290 Ry

     iteration # 21     ecut=    40.00 Ry     beta=0.60
     Davidson diagonalization with overlap
     ethr =  3.03E-09,  avg # of iterations =  3.7

     total cpu time spent up to now is      750.8 secs

     total energy              =    -469.09726386 Ry
     Harris-Foulkes estimate   =    -469.09726389 Ry
     estimated scf accuracy    <       0.00000019 Ry

     iteration # 22     ecut=    40.00 Ry     beta=0.60
     Davidson diagonalization with overlap
     ethr =  3.81E-10,  avg # of iterations =  2.9

     total cpu time spent up to now is      780.1 secs

     total energy              =    -469.09726388 Ry
     Harris-Foulkes estimate   =    -469.09726388 Ry
     estimated scf accuracy    <       0.00000001 Ry

     iteration # 23     ecut=    40.00 Ry     beta=0.60
     Davidson diagonalization with overlap
     ethr =  2.45E-11,  avg # of iterations =  5.0

     total cpu time spent up to now is      821.1 secs

     total energy              =    -469.09726388 Ry
     Harris-Foulkes estimate   =    -469.09726389 Ry
     estimated scf accuracy    <       0.00000001 Ry

     iteration # 24     ecut=    40.00 Ry     beta=0.60
     Davidson diagonalization with overlap
     ethr =  2.45E-11,  avg # of iterations =  1.0

     total cpu time spent up to now is      845.5 secs

     total energy              =    -469.09726388 Ry
     Harris-Foulkes estimate   =    -469.09726388 Ry
     estimated scf accuracy    <          3.0E-09 Ry

     iteration # 25     ecut=    40.00 Ry     beta=0.60
     Davidson diagonalization with overlap
     ethr =  5.92E-12,  avg # of iterations =  4.0

     total cpu time spent up to now is      880.6 secs

     total energy              =    -469.09726388 Ry
     Harris-Foulkes estimate   =    -469.09726388 Ry
     estimated scf accuracy    <          6.9E-10 Ry

     iteration # 26     ecut=    40.00 Ry     beta=0.60
     Davidson diagonalization with overlap
     ethr =  1.39E-12,  avg # of iterations =  1.3

     total cpu time spent up to now is      905.5 secs

     total energy              =    -469.09726389 Ry
     Harris-Foulkes estimate   =    -469.09726389 Ry
     estimated scf accuracy    <          2.2E-10 Ry

     iteration # 27     ecut=    40.00 Ry     beta=0.60
     Davidson diagonalization with overlap
     ethr =  4.36E-13,  avg # of iterations =  3.7

     total cpu time spent up to now is      938.0 secs

     End of self-consistent calculation

     Number of k-points >= 100: set verbosity='high' to print the bands.

     the Fermi energy is    13.8461 ev

!    total energy              =    -469.09726389 Ry
     Harris-Foulkes estimate   =    -469.09726389 Ry
     estimated scf accuracy    <          2.6E-12 Ry

     The total energy is the sum of the following terms:

     one-electron contribution =    -136.24163789 Ry
     hartree contribution      =      85.03166220 Ry
     xc contribution           =     -65.49238106 Ry
     ewald contribution        =    -352.38931141 Ry
     smearing contrib. (-TS)   =      -0.00559572 Ry

     convergence has been achieved in  27 iterations

     Forces acting on atoms (Ry/au):

     atom    1 type  1   force =     0.00274090    0.00158246    0.00000000
     atom    2 type  2   force =     0.00094353    0.00054475    0.00000000
     atom    3 type  2   force =    -0.00092736   -0.00053541    0.00000000
     atom    4 type  1   force =    -0.00275707   -0.00159180    0.00000000

     Total force =     0.004742     Total SCF correction =     0.000003


     entering subroutine stress ...

          total   stress  (Ry/bohr**3)                   (kbar)     P= -127.75
  -0.00089523   0.00003711   0.00000000       -131.69      5.46      0.00
   0.00003711  -0.00093809   0.00000000          5.46   -138.00      0.00
   0.00000000   0.00000000  -0.00077203          0.00      0.00   -113.57


     BFGS Geometry Optimization

     number of scf cycles    =   1
     number of bfgs steps    =   0

     enthalpy new            =    -469.0972638851 Ry

     new trust radius        =       0.1089694295 bohr
     new conv_thr            =            1.0E-10 Ry

     new unit-cell volume =    504.54851 a.u.^3 (    74.76637 Ang^3 )

CELL_PARAMETERS (alat=  1.88972599)
   1.485980466  -2.573793851   0.000000000
   0.000000000   0.000000000  -4.876488302
   4.467728129   2.579444223   0.000000000

ATOMIC_POSITIONS (angstrom)
Nb       2.978273036   0.003644295  -4.876488302
Ti       2.975713049  -1.713697998  -2.438244151
Ti       5.953228579   0.005373235  -4.876488302
Nb       4.464671386   0.861815129  -2.438244151


     NEW-OLD atomic charge density approx. for the potential

     Check: negative/imaginary core charge=   -0.000001    0.000000
     extrapolated charge   46.73282, renormalised to   50.00000

     total cpu time spent up to now is      953.9 secs

     per-process dynamical memory:   186.6 Mb

     Self-consistent Calculation

     iteration #  1     ecut=    40.00 Ry     beta=0.60
     Davidson diagonalization with overlap
     c_bands:  2 eigenvalues not converged
     c_bands:  2 eigenvalues not converged
     c_bands:  3 eigenvalues not converged
     c_bands:  1 eigenvalues not converged
     c_bands:  1 eigenvalues not converged
     c_bands:  3 eigenvalues not converged
     c_bands:  2 eigenvalues not converged
     c_bands:  1 eigenvalues not converged
     c_bands:  1 eigenvalues not converged
     c_bands:  4 eigenvalues not converged
     c_bands:  1 eigenvalues not converged
     c_bands:  1 eigenvalues not converged
     c_bands:  1 eigenvalues not converged
     c_bands:  2 eigenvalues not converged
     c_bands:  1 eigenvalues not converged
     c_bands:  1 eigenvalues not converged
     c_bands:  1 eigenvalues not converged
     c_bands:  1 eigenvalues not converged
     c_bands:  1 eigenvalues not converged
     c_bands:  1 eigenvalues not converged
     c_bands:  1 eigenvalues not converged
     c_bands:  1 eigenvalues not converged
     c_bands:  1 eigenvalues not converged
     c_bands:  1 eigenvalues not converged
     c_bands:  1 eigenvalues not converged
     c_bands:  1 eigenvalues not converged
     c_bands:  1 eigenvalues not converged
     c_bands:  1 eigenvalues not converged
     c_bands:  1 eigenvalues not converged
     c_bands:  1 eigenvalues not converged
     c_bands:  1 eigenvalues not converged
     c_bands:  1 eigenvalues not converged
     c_bands:  1 eigenvalues not converged
     c_bands:  1 eigenvalues not converged
     c_bands:  1 eigenvalues not converged
     c_bands:  1 eigenvalues not converged
     c_bands:  1 eigenvalues not converged
     c_bands:  1 eigenvalues not converged
     c_bands:  1 eigenvalues not converged
     c_bands:  1 eigenvalues not converged
     c_bands:  1 eigenvalues not converged
     c_bands:  1 eigenvalues not converged
     c_bands:  1 eigenvalues not converged
     c_bands:  1 eigenvalues not converged
     c_bands:  1 eigenvalues not converged
     c_bands:  1 eigenvalues not converged
     c_bands:  1 eigenvalues not converged
     c_bands:  1 eigenvalues not converged
     c_bands:  1 eigenvalues not converged
     c_bands:  1 eigenvalues not converged
     c_bands:  1 eigenvalues not converged
     c_bands:  1 eigenvalues not converged
     c_bands:  1 eigenvalues not converged
     c_bands:  1 eigenvalues not converged
     c_bands:  1 eigenvalues not converged
     c_bands:  1 eigenvalues not converged
     c_bands:  1 eigenvalues not converged
     c_bands:  1 eigenvalues not converged
     c_bands:  1 eigenvalues not converged
     c_bands:  1 eigenvalues not converged
     c_bands:  1 eigenvalues not converged
     c_bands:  2 eigenvalues not converged
     c_bands:  1 eigenvalues not converged
     c_bands:  1 eigenvalues not converged
     c_bands:  1 eigenvalues not converged
     c_bands:  1 eigenvalues not converged
     c_bands:  1 eigenvalues not converged
     c_bands:  2 eigenvalues not converged
     c_bands:  2 eigenvalues not converged
     c_bands:  2 eigenvalues not converged
     c_bands:  1 eigenvalues not converged
     c_bands:  1 eigenvalues not converged
     c_bands:  2 eigenvalues not converged
     c_bands:  1 eigenvalues not converged
     c_bands:  1 eigenvalues not converged
     c_bands:  1 eigenvalues not converged
     c_bands:  1 eigenvalues not converged
     c_bands:  1 eigenvalues not converged
     c_bands:  1 eigenvalues not converged
     c_bands:  1 eigenvalues not converged
     c_bands:  1 eigenvalues not converged
     c_bands:  2 eigenvalues not converged
     c_bands:  2 eigenvalues not converged
     c_bands:  2 eigenvalues not converged
     c_bands:  2 eigenvalues not converged
     c_bands:  1 eigenvalues not converged
     c_bands:  1 eigenvalues not converged
     c_bands:  1 eigenvalues not converged
     c_bands:  1 eigenvalues not converged
     c_bands:  1 eigenvalues not converged
     c_bands:  2 eigenvalues not converged
     c_bands:  1 eigenvalues not converged
     c_bands:  1 eigenvalues not converged
     ethr =  1.00E-06,  avg # of iterations = 16.8

     total cpu time spent up to now is     1076.0 secs

     total energy              =    -463.42634303 Ry
     Harris-Foulkes estimate   =    -475.30266996 Ry
     estimated scf accuracy    <       6.11876120 Ry

     iteration #  2     ecut=    40.00 Ry     beta=0.60
     Davidson diagonalization with overlap
     ethr =  1.00E-02,  avg # of iterations =  5.3

     total cpu time spent up to now is     1133.0 secs

     total energy              =    -468.63118091 Ry
     Harris-Foulkes estimate   =    -477.45056607 Ry
     estimated scf accuracy    <      27.86676540 Ry

     iteration #  3     ecut=    40.00 Ry     beta=0.60
     Davidson diagonalization with overlap
     ethr =  1.00E-02,  avg # of iterations =  3.2

     total cpu time spent up to now is     1169.2 secs

     total energy              =    -469.43200970 Ry
     Harris-Foulkes estimate   =    -470.53672905 Ry
     estimated scf accuracy    <       5.47753437 Ry

     iteration #  4     ecut=    40.00 Ry     beta=0.60
     Davidson diagonalization with overlap
     ethr =  1.00E-02,  avg # of iterations =  1.3

     total cpu time spent up to now is     1194.2 secs

     total energy              =    -468.91837521 Ry
     Harris-Foulkes estimate   =    -469.56886650 Ry
     estimated scf accuracy    <       3.60522140 Ry

     iteration #  5     ecut=    40.00 Ry     beta=0.60
     Davidson diagonalization with overlap
     ethr =  7.21E-03,  avg # of iterations =  2.9

     total cpu time spent up to now is     1222.7 secs

     total energy              =    -469.02873810 Ry
     Harris-Foulkes estimate   =    -469.11637175 Ry
     estimated scf accuracy    <       0.94425119 Ry

     iteration #  6     ecut=    40.00 Ry     beta=0.60
     Davidson diagonalization with overlap
     ethr =  1.89E-03,  avg # of iterations =  4.9

     total cpu time spent up to now is     1259.9 secs

     total energy              =    -469.17614003 Ry
     Harris-Foulkes estimate   =    -469.14463529 Ry
     estimated scf accuracy    <       0.14527875 Ry

     iteration #  7     ecut=    40.00 Ry     beta=0.60
     Davidson diagonalization with overlap
     ethr =  2.91E-04,  avg # of iterations =  4.4

     total cpu time spent up to now is     1293.0 secs

     total energy              =    -469.18953878 Ry
     Harris-Foulkes estimate   =    -469.19406628 Ry
     estimated scf accuracy    <       0.42292932 Ry

     iteration #  8     ecut=    40.00 Ry     beta=0.60
     Davidson diagonalization with overlap
     ethr =  2.91E-04,  avg # of iterations =  1.0

     total cpu time spent up to now is     1317.7 secs

     total energy              =    -469.17893278 Ry
     Harris-Foulkes estimate   =    -469.19073041 Ry
     estimated scf accuracy    <       0.42044510 Ry

     iteration #  9     ecut=    40.00 Ry     beta=0.60
     Davidson diagonalization with overlap
     ethr =  2.91E-04,  avg # of iterations =  1.0

     total cpu time spent up to now is     1342.3 secs

     total energy              =    -469.17439175 Ry
     Harris-Foulkes estimate   =    -469.17963988 Ry
     estimated scf accuracy    <       0.39617861 Ry

     iteration # 10     ecut=    40.00 Ry     beta=0.60
     Davidson diagonalization with overlap
     ethr =  2.91E-04,  avg # of iterations =  1.0

     total cpu time spent up to now is     1366.9 secs

     total energy              =    -469.05803261 Ry
     Harris-Foulkes estimate   =    -469.17474901 Ry
     estimated scf accuracy    <       0.37309406 Ry

     iteration # 11     ecut=    40.00 Ry     beta=0.60
     Davidson diagonalization with overlap
     ethr =  2.91E-04,  avg # of iterations =  4.8

     total cpu time spent up to now is     1412.1 secs

     total energy              =    -469.11210460 Ry
     Harris-Foulkes estimate   =    -469.12599603 Ry
     estimated scf accuracy    <       0.06662646 Ry

     iteration # 12     ecut=    40.00 Ry     beta=0.60
     Davidson diagonalization with overlap
     ethr =  1.33E-04,  avg # of iterations =  2.6

     total cpu time spent up to now is     1439.5 secs

     total energy              =    -469.11696159 Ry
     Harris-Foulkes estimate   =    -469.11728094 Ry
     estimated scf accuracy    <       0.00306197 Ry

     iteration # 13     ecut=    40.00 Ry     beta=0.60
     Davidson diagonalization with overlap
     ethr =  6.12E-06,  avg # of iterations =  5.5

     total cpu time spent up to now is     1491.4 secs

     total energy              =    -469.12019614 Ry
     Harris-Foulkes estimate   =    -469.12035667 Ry
     estimated scf accuracy    <       0.00649240 Ry

     iteration # 14     ecut=    40.00 Ry     beta=0.60
     Davidson diagonalization with overlap
     ethr =  6.12E-06,  avg # of iterations =  1.0

     total cpu time spent up to now is     1516.0 secs

     total energy              =    -469.11939663 Ry
     Harris-Foulkes estimate   =    -469.12024616 Ry
     estimated scf accuracy    <       0.00542614 Ry

     iteration # 15     ecut=    40.00 Ry     beta=0.60
     Davidson diagonalization with overlap
     ethr =  6.12E-06,  avg # of iterations =  3.3

     total cpu time spent up to now is     1546.4 secs

     total energy              =    -469.11972680 Ry
     Harris-Foulkes estimate   =    -469.11977325 Ry
     estimated scf accuracy    <       0.00029936 Ry

     iteration # 16     ecut=    40.00 Ry     beta=0.60
     Davidson diagonalization with overlap
     ethr =  5.99E-07,  avg # of iterations =  4.7

     total cpu time spent up to now is     1587.6 secs

     total energy              =    -469.11995779 Ry
     Harris-Foulkes estimate   =    -469.11984526 Ry
     estimated scf accuracy    <       0.00087774 Ry

     iteration # 17     ecut=    40.00 Ry     beta=0.60
     Davidson diagonalization with overlap
     ethr =  5.99E-07,  avg # of iterations =  4.3

     total cpu time spent up to now is     1624.7 secs

     total energy              =    -469.11999667 Ry
     Harris-Foulkes estimate   =    -469.12007972 Ry
     estimated scf accuracy    <       0.00417443 Ry

     iteration # 18     ecut=    40.00 Ry     beta=0.60
     Davidson diagonalization with overlap
     ethr =  5.99E-07,  avg # of iterations =  1.0

     total cpu time spent up to now is     1649.3 secs

     total energy              =    -469.11961848 Ry
     Harris-Foulkes estimate   =    -469.12000077 Ry
     estimated scf accuracy    <       0.00352944 Ry

     iteration # 19     ecut=    40.00 Ry     beta=0.60
     Davidson diagonalization with overlap
     ethr =  5.99E-07,  avg # of iterations =  3.9

     total cpu time spent up to now is     1685.3 secs

     total energy              =    -469.11975654 Ry
     Harris-Foulkes estimate   =    -469.11976045 Ry
     estimated scf accuracy    <       0.00031013 Ry

     iteration # 20     ecut=    40.00 Ry     beta=0.60
     Davidson diagonalization with overlap
     ethr =  5.99E-07,  avg # of iterations =  1.0

     total cpu time spent up to now is     1709.9 secs

     total energy              =    -469.11973628 Ry
     Harris-Foulkes estimate   =    -469.11976026 Ry
     estimated scf accuracy    <       0.00029063 Ry

     iteration # 21     ecut=    40.00 Ry     beta=0.60
     Davidson diagonalization with overlap
     ethr =  5.81E-07,  avg # of iterations =  1.0

     total cpu time spent up to now is     1734.5 secs

     total energy              =    -469.11972811 Ry
     Harris-Foulkes estimate   =    -469.11974100 Ry
     estimated scf accuracy    <       0.00012227 Ry

     iteration # 22     ecut=    40.00 Ry     beta=0.60
     Davidson diagonalization with overlap
     ethr =  2.45E-07,  avg # of iterations =  3.1

     total cpu time spent up to now is     1763.8 secs

     total energy              =    -469.11973491 Ry
     Harris-Foulkes estimate   =    -469.11973552 Ry
     estimated scf accuracy    <       0.00000821 Ry

     iteration # 23     ecut=    40.00 Ry     beta=0.60
     Davidson diagonalization with overlap
     ethr =  1.64E-08,  avg # of iterations =  4.5

     total cpu time spent up to now is     1802.2 secs

     total energy              =    -469.11973744 Ry
     Harris-Foulkes estimate   =    -469.11973754 Ry
     estimated scf accuracy    <       0.00000064 Ry

     iteration # 24     ecut=    40.00 Ry     beta=0.60
     Davidson diagonalization with overlap
     ethr =  1.28E-09,  avg # of iterations =  3.0

     total cpu time spent up to now is     1831.2 secs

     total energy              =    -469.11973749 Ry
     Harris-Foulkes estimate   =    -469.11973750 Ry
     estimated scf accuracy    <       0.00000008 Ry

     iteration # 25     ecut=    40.00 Ry     beta=0.60
     Davidson diagonalization with overlap
     ethr =  1.54E-10,  avg # of iterations =  4.7

     total cpu time spent up to now is     1870.0 secs

     total energy              =    -469.11973750 Ry
     Harris-Foulkes estimate   =    -469.11973751 Ry
     estimated scf accuracy    <       0.00000007 Ry

     iteration # 26     ecut=    40.00 Ry     beta=0.60
     Davidson diagonalization with overlap
     ethr =  1.33E-10,  avg # of iterations =  1.0

     total cpu time spent up to now is     1894.7 secs

     total energy              =    -469.11973750 Ry
     Harris-Foulkes estimate   =    -469.11973750 Ry
     estimated scf accuracy    <          3.7E-09 Ry

     iteration # 27     ecut=    40.00 Ry     beta=0.60
     Davidson diagonalization with overlap
     ethr =  7.50E-12,  avg # of iterations =  4.8

     total cpu time spent up to now is     1934.5 secs

     total energy              =    -469.11973751 Ry
     Harris-Foulkes estimate   =    -469.11973751 Ry
     estimated scf accuracy    <          3.9E-09 Ry

     iteration # 28     ecut=    40.00 Ry     beta=0.60
     Davidson diagonalization with overlap
     ethr =  7.50E-12,  avg # of iterations =  1.0

     total cpu time spent up to now is     1959.0 secs

     total energy              =    -469.11973751 Ry
     Harris-Foulkes estimate   =    -469.11973751 Ry
     estimated scf accuracy    <          2.6E-10 Ry

     iteration # 29     ecut=    40.00 Ry     beta=0.60
     Davidson diagonalization with overlap
     ethr =  5.17E-13,  avg # of iterations =  4.7

     total cpu time spent up to now is     1998.2 secs

     total energy              =    -469.11973751 Ry
     Harris-Foulkes estimate   =    -469.11973751 Ry
     estimated scf accuracy    <          3.2E-10 Ry

     iteration # 30     ecut=    40.00 Ry     beta=0.60
     Davidson diagonalization with overlap
     ethr =  5.17E-13,  avg # of iterations =  1.0

     total cpu time spent up to now is     2022.8 secs

     total energy              =    -469.11973751 Ry
     Harris-Foulkes estimate   =    -469.11973751 Ry
     estimated scf accuracy    <          1.9E-10 Ry

     iteration # 31     ecut=    40.00 Ry     beta=0.60
     Davidson diagonalization with overlap
     ethr =  3.72E-13,  avg # of iterations =  1.2

     total cpu time spent up to now is     2047.7 secs

     End of self-consistent calculation

     Number of k-points >= 100: set verbosity='high' to print the bands.

     the Fermi energy is    14.9668 ev

!    total energy              =    -469.11973751 Ry
     Harris-Foulkes estimate   =    -469.11973751 Ry
     estimated scf accuracy    <          5.3E-11 Ry

     The total energy is the sum of the following terms:

     one-electron contribution =    -124.80917473 Ry
     hartree contribution      =      81.61991574 Ry
     xc contribution           =     -65.71991184 Ry
     ewald contribution        =    -360.20572222 Ry
     smearing contrib. (-TS)   =      -0.00484446 Ry

     convergence has been achieved in  31 iterations

     Forces acting on atoms (Ry/au):

     atom    1 type  1   force =     0.00028572    0.00016496    0.00000000
     atom    2 type  2   force =    -0.00139339   -0.00080447    0.00000000
     atom    3 type  2   force =     0.00141466    0.00081675    0.00000000
     atom    4 type  1   force =    -0.00030699   -0.00017724    0.00000000

     Total force =     0.002343     Total SCF correction =     0.000011


     entering subroutine stress ...

          total   stress  (Ry/bohr**3)                   (kbar)     P=  -58.86
  -0.00043503   0.00004044   0.00000000        -63.99      5.95      0.00
   0.00004044  -0.00048173   0.00000000          5.95    -70.86      0.00
   0.00000000   0.00000000  -0.00028352          0.00      0.00    -41.71


     number of scf cycles    =   2
     number of bfgs steps    =   1

     enthalpy old            =    -469.0972638851 Ry
     enthalpy new            =    -469.1197375062 Ry

     CASE: enthalpy_new < enthalpy_old

     new trust radius        =       0.0977302455 bohr
     new conv_thr            =            1.0E-10 Ry

     new unit-cell volume =    477.80225 a.u.^3 (    70.80299 Ang^3 )

CELL_PARAMETERS (alat=  1.88972599)
   1.452189574  -2.515266314   0.000000000
   0.000000000   0.000000000  -4.814438545
   4.385138569   2.531761123   0.000000000

ATOMIC_POSITIONS (angstrom)
Nb       2.920331758   0.009210243  -4.814438545
Ti       2.913139462  -1.671788117  -2.407219273
Ti       5.838119980   0.016951975  -4.814438545
Nb       4.378683287   0.851188277  -2.407219273


     NEW-OLD atomic charge density approx. for the potential

     Check: negative/imaginary core charge=   -0.000001    0.000000
     extrapolated charge   47.31338, renormalised to   50.00000

     total cpu time spent up to now is     2063.7 secs

     per-process dynamical memory:   186.6 Mb

     Self-consistent Calculation

     iteration #  1     ecut=    40.00 Ry     beta=0.60
     Davidson diagonalization with overlap
     c_bands:  1 eigenvalues not converged
     c_bands:  2 eigenvalues not converged
     c_bands:  1 eigenvalues not converged
     c_bands:  1 eigenvalues not converged
     c_bands:  1 eigenvalues not converged
     c_bands:  1 eigenvalues not converged
     c_bands:  2 eigenvalues not converged
     c_bands:  2 eigenvalues not converged
     c_bands:  1 eigenvalues not converged
     c_bands:  1 eigenvalues not converged
     c_bands:  1 eigenvalues not converged
     c_bands:  1 eigenvalues not converged
     c_bands:  1 eigenvalues not converged
     c_bands:  1 eigenvalues not converged
     c_bands:  1 eigenvalues not converged
     c_bands:  2 eigenvalues not converged
     c_bands:  1 eigenvalues not converged
     c_bands:  1 eigenvalues not converged
     c_bands:  1 eigenvalues not converged
     c_bands:  1 eigenvalues not converged
     c_bands:  1 eigenvalues not converged
     c_bands:  1 eigenvalues not converged
     c_bands:  1 eigenvalues not converged
     c_bands:  1 eigenvalues not converged
     c_bands:  1 eigenvalues not converged
     c_bands:  1 eigenvalues not converged
     c_bands:  1 eigenvalues not converged
     c_bands:  2 eigenvalues not converged
     c_bands:  1 eigenvalues not converged
     c_bands:  1 eigenvalues not converged
     c_bands:  1 eigenvalues not converged
     c_bands:  1 eigenvalues not converged
     c_bands:  2 eigenvalues not converged
     c_bands:  1 eigenvalues not converged
     c_bands:  1 eigenvalues not converged
     c_bands:  1 eigenvalues not converged
     c_bands:  1 eigenvalues not converged
     c_bands:  1 eigenvalues not converged
     c_bands:  1 eigenvalues not converged
     c_bands:  1 eigenvalues not converged
     c_bands:  1 eigenvalues not converged
     c_bands:  1 eigenvalues not converged
     c_bands:  1 eigenvalues not converged
     c_bands:  1 eigenvalues not converged
     c_bands:  1 eigenvalues not converged
     c_bands:  1 eigenvalues not converged
     c_bands:  1 eigenvalues not converged
     c_bands:  1 eigenvalues not converged
     c_bands:  1 eigenvalues not converged
     c_bands:  1 eigenvalues not converged
     c_bands:  2 eigenvalues not converged
     c_bands:  2 eigenvalues not converged
     c_bands:  2 eigenvalues not converged
     c_bands:  1 eigenvalues not converged
     c_bands:  2 eigenvalues not converged
     c_bands:  1 eigenvalues not converged
     c_bands:  1 eigenvalues not converged
     c_bands:  1 eigenvalues not converged
     c_bands:  1 eigenvalues not converged
     c_bands:  1 eigenvalues not converged
     c_bands:  1 eigenvalues not converged
     c_bands:  1 eigenvalues not converged
     c_bands:  1 eigenvalues not converged
     c_bands:  2 eigenvalues not converged
     c_bands:  1 eigenvalues not converged
     c_bands:  1 eigenvalues not converged
     c_bands:  1 eigenvalues not converged
     c_bands:  1 eigenvalues not converged
     ethr =  1.00E-06,  avg # of iterations = 15.2

     total cpu time spent up to now is     2178.8 secs

     total energy              =    -466.54516137 Ry
     Harris-Foulkes estimate   =    -473.77442075 Ry
     estimated scf accuracy    <       2.66965418 Ry

     iteration #  2     ecut=    40.00 Ry     beta=0.60
     Davidson diagonalization with overlap
     ethr =  5.34E-03,  avg # of iterations =  5.4

     total cpu time spent up to now is     2235.8 secs

     total energy              =    -468.57038182 Ry
     Harris-Foulkes estimate   =    -473.20962425 Ry
     estimated scf accuracy    <      16.30849279 Ry

     iteration #  3     ecut=    40.00 Ry     beta=0.60
     Davidson diagonalization with overlap
     ethr =  5.34E-03,  avg # of iterations =  4.3

     total cpu time spent up to now is     2273.6 secs

     total energy              =    -469.20134924 Ry
     Harris-Foulkes estimate   =    -469.72598756 Ry
     estimated scf accuracy    <       2.68531905 Ry

     iteration #  4     ecut=    40.00 Ry     beta=0.60
     Davidson diagonalization with overlap
     ethr =  5.34E-03,  avg # of iterations =  1.3

     total cpu time spent up to now is     2298.6 secs

     total energy              =    -469.02367196 Ry
     Harris-Foulkes estimate   =    -469.28827042 Ry
     estimated scf accuracy    <       1.65273110 Ry

     iteration #  5     ecut=    40.00 Ry     beta=0.60
     Davidson diagonalization with overlap
     ethr =  3.31E-03,  avg # of iterations =  3.0

     total cpu time spent up to now is     2327.6 secs

     total energy              =    -469.10693818 Ry
     Harris-Foulkes estimate   =    -469.12585591 Ry
     estimated scf accuracy    <       0.35282004 Ry

     iteration #  6     ecut=    40.00 Ry     beta=0.60
     Davidson diagonalization with overlap
     ethr =  7.06E-04,  avg # of iterations =  5.3

     total cpu time spent up to now is     2364.7 secs

     total energy              =    -469.14421858 Ry
     Harris-Foulkes estimate   =    -469.14168257 Ry
     estimated scf accuracy    <       0.11554254 Ry

     iteration #  7     ecut=    40.00 Ry     beta=0.60
     Davidson diagonalization with overlap
     ethr =  2.31E-04,  avg # of iterations =  2.2

     total cpu time spent up to now is     2391.4 secs

     total energy              =    -469.14264483 Ry
     Harris-Foulkes estimate   =    -469.14662274 Ry
     estimated scf accuracy    <       0.13675904 Ry

     iteration #  8     ecut=    40.00 Ry     beta=0.60
     Davidson diagonalization with overlap
     ethr =  2.31E-04,  avg # of iterations =  1.0

     total cpu time spent up to now is     2416.0 secs

     total energy              =    -469.13057584 Ry
     Harris-Foulkes estimate   =    -469.14329272 Ry
     estimated scf accuracy    <       0.12487914 Ry

     iteration #  9     ecut=    40.00 Ry     beta=0.60
     Davidson diagonalization with overlap
     ethr =  2.31E-04,  avg # of iterations =  1.0

     total cpu time spent up to now is     2440.6 secs

     total energy              =    -469.12052811 Ry
     Harris-Foulkes estimate   =    -469.13205507 Ry
     estimated scf accuracy    <       0.07835336 Ry

     iteration # 10     ecut=    40.00 Ry     beta=0.60
     Davidson diagonalization with overlap
     ethr =  1.57E-04,  avg # of iterations =  2.7

     total cpu time spent up to now is     2468.9 secs

     total energy              =    -469.12098010 Ry
     Harris-Foulkes estimate   =    -469.12470414 Ry
     estimated scf accuracy    <       0.01394933 Ry

     iteration # 11     ecut=    40.00 Ry     beta=0.60
     Davidson diagonalization with overlap
     ethr =  2.79E-05,  avg # of iterations =  4.8

     total cpu time spent up to now is     2511.9 secs

     total energy              =    -469.12366233 Ry
     Harris-Foulkes estimate   =    -469.12558136 Ry
     estimated scf accuracy    <       0.00735800 Ry

     iteration # 12     ecut=    40.00 Ry     beta=0.60
     Davidson diagonalization with overlap
     ethr =  1.47E-05,  avg # of iterations =  3.7

     total cpu time spent up to now is     2542.9 secs

     total energy              =    -469.12469766 Ry
     Harris-Foulkes estimate   =    -469.12479539 Ry
     estimated scf accuracy    <       0.00064271 Ry

     iteration # 13     ecut=    40.00 Ry     beta=0.60
     Davidson diagonalization with overlap
     ethr =  1.29E-06,  avg # of iterations =  4.5

     total cpu time spent up to now is     2581.0 secs

     total energy              =    -469.12487335 Ry
     Harris-Foulkes estimate   =    -469.12488556 Ry
     estimated scf accuracy    <       0.00049017 Ry

     iteration # 14     ecut=    40.00 Ry     beta=0.60
     Davidson diagonalization with overlap
     ethr =  9.80E-07,  avg # of iterations =  1.0

     total cpu time spent up to now is     2605.6 secs

     total energy              =    -469.12482491 Ry
     Harris-Foulkes estimate   =    -469.12487740 Ry
     estimated scf accuracy    <       0.00040068 Ry

     iteration # 15     ecut=    40.00 Ry     beta=0.60
     Davidson diagonalization with overlap
     ethr =  8.01E-07,  avg # of iterations =  2.2

     total cpu time spent up to now is     2632.4 secs

     total energy              =    -469.12484260 Ry
     Harris-Foulkes estimate   =    -469.12484446 Ry
     estimated scf accuracy    <       0.00004524 Ry

     iteration # 16     ecut=    40.00 Ry     beta=0.60
     Davidson diagonalization with overlap
     ethr =  9.05E-08,  avg # of iterations =  4.0

     total cpu time spent up to now is     2666.8 secs

     total energy              =    -469.12485099 Ry
     Harris-Foulkes estimate   =    -469.12485114 Ry
     estimated scf accuracy    <       0.00000243 Ry

     iteration # 17     ecut=    40.00 Ry     beta=0.60
     Davidson diagonalization with overlap
     ethr =  4.86E-09,  avg # of iterations =  3.4

     total cpu time spent up to now is     2699.1 secs

     total energy              =    -469.12485124 Ry
     Harris-Foulkes estimate   =    -469.12485140 Ry
     estimated scf accuracy    <       0.00000378 Ry

     iteration # 18     ecut=    40.00 Ry     beta=0.60
     Davidson diagonalization with overlap
     ethr =  4.86E-09,  avg # of iterations =  1.0

     total cpu time spent up to now is     2723.8 secs

     total energy              =    -469.12485100 Ry
     Harris-Foulkes estimate   =    -469.12485135 Ry
     estimated scf accuracy    <       0.00000328 Ry

     iteration # 19     ecut=    40.00 Ry     beta=0.60
     Davidson diagonalization with overlap
     ethr =  4.86E-09,  avg # of iterations =  1.4

     total cpu time spent up to now is     2749.0 secs

     total energy              =    -469.12485102 Ry
     Harris-Foulkes estimate   =    -469.12485110 Ry
     estimated scf accuracy    <       0.00000101 Ry

     iteration # 20     ecut=    40.00 Ry     beta=0.60
     Davidson diagonalization with overlap
     ethr =  2.03E-09,  avg # of iterations =  2.8

     total cpu time spent up to now is     2777.0 secs

     total energy              =    -469.12485103 Ry
     Harris-Foulkes estimate   =    -469.12485106 Ry
     estimated scf accuracy    <       0.00000025 Ry

     iteration # 21     ecut=    40.00 Ry     beta=0.60
     Davidson diagonalization with overlap
     ethr =  4.92E-10,  avg # of iterations =  4.0

     total cpu time spent up to now is     2812.6 secs

     total energy              =    -469.12485107 Ry
     Harris-Foulkes estimate   =    -469.12485108 Ry
     estimated scf accuracy    <       0.00000002 Ry

     iteration # 22     ecut=    40.00 Ry     beta=0.60
     Davidson diagonalization with overlap
     ethr =  4.34E-11,  avg # of iterations =  3.2

     total cpu time spent up to now is     2842.4 secs

     total energy              =    -469.12485108 Ry
     Harris-Foulkes estimate   =    -469.12485108 Ry
     estimated scf accuracy    <          1.9E-09 Ry

     iteration # 23     ecut=    40.00 Ry     beta=0.60
     Davidson diagonalization with overlap
     ethr =  3.77E-12,  avg # of iterations =  4.3

     total cpu time spent up to now is     2879.9 secs

     total energy              =    -469.12485108 Ry
     Harris-Foulkes estimate   =    -469.12485108 Ry
     estimated scf accuracy    <          1.3E-10 Ry

     iteration # 24     ecut=    40.00 Ry     beta=0.60
     Davidson diagonalization with overlap
     ethr =  2.61E-13,  avg # of iterations =  4.6

     total cpu time spent up to now is     2923.5 secs

     total energy              =    -469.12485108 Ry
     Harris-Foulkes estimate   =    -469.12485108 Ry
     estimated scf accuracy    <          4.4E-10 Ry

     iteration # 25     ecut=    40.00 Ry     beta=0.60
     Davidson diagonalization with overlap
     ethr =  2.61E-13,  avg # of iterations =  2.5

     total cpu time spent up to now is     2951.0 secs

     End of self-consistent calculation

     Number of k-points >= 100: set verbosity='high' to print the bands.

     the Fermi energy is    15.9400 ev

!    total energy              =    -469.12485108 Ry
     Harris-Foulkes estimate   =    -469.12485108 Ry
     estimated scf accuracy    <          8.7E-11 Ry

     The total energy is the sum of the following terms:

     one-electron contribution =    -115.23462785 Ry
     hartree contribution      =      78.83761923 Ry
     xc contribution           =     -65.92252711 Ry
     ewald contribution        =    -366.80116984 Ry
     smearing contrib. (-TS)   =      -0.00414552 Ry

     convergence has been achieved in  25 iterations

     Forces acting on atoms (Ry/au):

     atom    1 type  1   force =    -0.00147586   -0.00085209    0.00000000
     atom    2 type  2   force =    -0.00360395   -0.00208074    0.00000000
     atom    3 type  2   force =     0.00362480    0.00209278    0.00000000
     atom    4 type  1   force =     0.00145501    0.00084005    0.00000000

     Total force =     0.006369     Total SCF correction =     0.000018


     entering subroutine stress ...

          total   stress  (Ry/bohr**3)                   (kbar)     P=   11.97
   0.00004131   0.00003862   0.00000000          6.08      5.68      0.00
   0.00003862  -0.00000329   0.00000000          5.68     -0.48      0.00
   0.00000000   0.00000000   0.00020608          0.00      0.00     30.32


     number of scf cycles    =   3
     number of bfgs steps    =   2

     enthalpy old            =    -469.1197375062 Ry
     enthalpy new            =    -469.1248510769 Ry

     CASE: enthalpy_new < enthalpy_old

     new trust radius        =       0.0198747046 bohr
     new conv_thr            =            1.0E-10 Ry

     new unit-cell volume =    480.84389 a.u.^3 (    71.25371 Ang^3 )

CELL_PARAMETERS (alat=  1.88972599)
   1.452225977  -2.515329366   0.000000000
   0.000000000   0.000000000  -4.836325848
   4.392972098   2.536283812   0.000000000

ATOMIC_POSITIONS (angstrom)
Nb       2.923639589   0.011077985  -4.836325848
Ti       2.914284577  -1.671211054  -2.418162924
Ti       5.847500791   0.022283919  -4.836325848
Nb       4.385848153   0.855282880  -2.418162924


     NEW-OLD atomic charge density approx. for the potential

     Check: negative/imaginary core charge=   -0.000001    0.000000
     extrapolated charge   50.30360, renormalised to   50.00000

     total cpu time spent up to now is     2967.0 secs

     per-process dynamical memory:   186.6 Mb

     Self-consistent Calculation

     iteration #  1     ecut=    40.00 Ry     beta=0.60
     Davidson diagonalization with overlap
     c_bands:  1 eigenvalues not converged
     ethr =  1.00E-06,  avg # of iterations =  6.6

     total cpu time spent up to now is     3033.2 secs

     total energy              =    -469.11296244 Ry
     Harris-Foulkes estimate   =    -468.62277414 Ry
     estimated scf accuracy    <       0.01070300 Ry

     iteration #  2     ecut=    40.00 Ry     beta=0.60
     Davidson diagonalization with overlap
     ethr =  2.14E-05,  avg # of iterations =  5.5

     total cpu time spent up to now is     3092.1 secs

     total energy              =    -469.10796990 Ry
     Harris-Foulkes estimate   =    -469.15034814 Ry
     estimated scf accuracy    <       0.26901030 Ry

     iteration #  3     ecut=    40.00 Ry     beta=0.60
     Davidson diagonalization with overlap
     ethr =  2.14E-05,  avg # of iterations =  4.9

     total cpu time spent up to now is     3139.0 secs

     total energy              =    -469.12524437 Ry
     Harris-Foulkes estimate   =    -469.12741682 Ry
     estimated scf accuracy    <       0.00617589 Ry

     iteration #  4     ecut=    40.00 Ry     beta=0.60
     Davidson diagonalization with overlap
     ethr =  1.24E-05,  avg # of iterations =  2.0

     total cpu time spent up to now is     3166.8 secs

     total energy              =    -469.12562119 Ry
     Harris-Foulkes estimate   =    -469.12589162 Ry
     estimated scf accuracy    <       0.00308883 Ry

     iteration #  5     ecut=    40.00 Ry     beta=0.60
     Davidson diagonalization with overlap
     ethr =  6.18E-06,  avg # of iterations =  1.0

     total cpu time spent up to now is     3191.4 secs

     total energy              =    -469.12535817 Ry
     Harris-Foulkes estimate   =    -469.12567723 Ry
     estimated scf accuracy    <       0.00231052 Ry

     iteration #  6     ecut=    40.00 Ry     beta=0.60
     Davidson diagonalization with overlap
     ethr =  4.62E-06,  avg # of iterations =  1.0

     total cpu time spent up to now is     3215.9 secs

     total energy              =    -469.12523701 Ry
     Harris-Foulkes estimate   =    -469.12541624 Ry
     estimated scf accuracy    <       0.00123145 Ry

     iteration #  7     ecut=    40.00 Ry     beta=0.60
     Davidson diagonalization with overlap
     ethr =  2.46E-06,  avg # of iterations =  2.2

     total cpu time spent up to now is     3243.2 secs

     total energy              =    -469.12524726 Ry
     Harris-Foulkes estimate   =    -469.12529827 Ry
     estimated scf accuracy    <       0.00042783 Ry

     iteration #  8     ecut=    40.00 Ry     beta=0.60
     Davidson diagonalization with overlap
     ethr =  8.56E-07,  avg # of iterations =  2.1

     total cpu time spent up to now is     3269.7 secs

     total energy              =    -469.12525805 Ry
     Harris-Foulkes estimate   =    -469.12526565 Ry
     estimated scf accuracy    <       0.00013729 Ry

     iteration #  9     ecut=    40.00 Ry     beta=0.60
     Davidson diagonalization with overlap
     ethr =  2.75E-07,  avg # of iterations =  3.5

     total cpu time spent up to now is     3301.0 secs

     total energy              =    -469.12526976 Ry
     Harris-Foulkes estimate   =    -469.12527015 Ry
     estimated scf accuracy    <       0.00002275 Ry

     iteration # 10     ecut=    40.00 Ry     beta=0.60
     Davidson diagonalization with overlap
     ethr =  4.55E-08,  avg # of iterations =  3.1

     total cpu time spent up to now is     3330.1 secs

     total energy              =    -469.12526845 Ry
     Harris-Foulkes estimate   =    -469.12527106 Ry
     estimated scf accuracy    <       0.00001587 Ry

     iteration # 11     ecut=    40.00 Ry     beta=0.60
     Davidson diagonalization with overlap
     ethr =  3.17E-08,  avg # of iterations =  2.4

     total cpu time spent up to now is     3357.3 secs

     total energy              =    -469.12526919 Ry
     Harris-Foulkes estimate   =    -469.12526940 Ry
     estimated scf accuracy    <       0.00000431 Ry

     iteration # 12     ecut=    40.00 Ry     beta=0.60
     Davidson diagonalization with overlap
     ethr =  8.61E-09,  avg # of iterations =  3.8

     total cpu time spent up to now is     3390.3 secs

     total energy              =    -469.12526965 Ry
     Harris-Foulkes estimate   =    -469.12526970 Ry
     estimated scf accuracy    <       0.00000054 Ry

     iteration # 13     ecut=    40.00 Ry     beta=0.60
     Davidson diagonalization with overlap
     ethr =  1.08E-09,  avg # of iterations =  3.6

     total cpu time spent up to now is     3421.6 secs

     total energy              =    -469.12526970 Ry
     Harris-Foulkes estimate   =    -469.12526972 Ry
     estimated scf accuracy    <       0.00000011 Ry

     iteration # 14     ecut=    40.00 Ry     beta=0.60
     Davidson diagonalization with overlap
     ethr =  2.24E-10,  avg # of iterations =  3.8

     total cpu time spent up to now is     3455.1 secs

     total energy              =    -469.12526972 Ry
     Harris-Foulkes estimate   =    -469.12526972 Ry
     estimated scf accuracy    <          2.0E-09 Ry

     iteration # 15     ecut=    40.00 Ry     beta=0.60
     Davidson diagonalization with overlap
     ethr =  3.90E-12,  avg # of iterations =  5.1

     total cpu time spent up to now is     3508.3 secs

     total energy              =    -469.12526972 Ry
     Harris-Foulkes estimate   =    -469.12526972 Ry
     estimated scf accuracy    <       0.00000003 Ry

     iteration # 16     ecut=    40.00 Ry     beta=0.60
     Davidson diagonalization with overlap
     ethr =  3.90E-12,  avg # of iterations =  4.5

     total cpu time spent up to now is     3548.0 secs

     total energy              =    -469.12526972 Ry
     Harris-Foulkes estimate   =    -469.12526972 Ry
     estimated scf accuracy    <          7.7E-10 Ry

     iteration # 17     ecut=    40.00 Ry     beta=0.60
     Davidson diagonalization with overlap
     ethr =  1.54E-12,  avg # of iterations =  1.1

     total cpu time spent up to now is     3572.7 secs

     total energy              =    -469.12526972 Ry
     Harris-Foulkes estimate   =    -469.12526972 Ry
     estimated scf accuracy    <          6.8E-10 Ry

     iteration # 18     ecut=    40.00 Ry     beta=0.60
     Davidson diagonalization with overlap
     ethr =  1.36E-12,  avg # of iterations =  3.1

     total cpu time spent up to now is     3602.4 secs

     End of self-consistent calculation

     Number of k-points >= 100: set verbosity='high' to print the bands.

     the Fermi energy is    15.8211 ev

!    total energy              =    -469.12526972 Ry
     Harris-Foulkes estimate   =    -469.12526972 Ry
     estimated scf accuracy    <          2.8E-11 Ry

     The total energy is the sum of the following terms:

     one-electron contribution =    -116.35962217 Ry
     hartree contribution      =      79.16264335 Ry
     xc contribution           =     -65.89860598 Ry
     ewald contribution        =    -366.02550252 Ry
     smearing contrib. (-TS)   =      -0.00418240 Ry

     convergence has been achieved in  18 iterations

     Forces acting on atoms (Ry/au):

     atom    1 type  1   force =    -0.00065689   -0.00037925    0.00000000
     atom    2 type  2   force =    -0.00320149   -0.00184838    0.00000000
     atom    3 type  2   force =     0.00322485    0.00186187    0.00000000
     atom    4 type  1   force =     0.00063352    0.00036576    0.00000000

     Total force =     0.005352     Total SCF correction =     0.000009


     entering subroutine stress ...

          total   stress  (Ry/bohr**3)                   (kbar)     P=    2.54
  -0.00001709   0.00003530   0.00000000         -2.51      5.19      0.00
   0.00003530  -0.00005785   0.00000000          5.19     -8.51      0.00
   0.00000000   0.00000000   0.00012674          0.00      0.00     18.64


     number of scf cycles    =   4
     number of bfgs steps    =   3

     enthalpy old            =    -469.1248510769 Ry
     enthalpy new            =    -469.1252697192 Ry

     CASE: enthalpy_new < enthalpy_old

     new trust radius        =       0.0297714505 bohr
     new conv_thr            =            1.0E-10 Ry

     new unit-cell volume =    482.55891 a.u.^3 (    71.50785 Ang^3 )

CELL_PARAMETERS (alat=  1.88972599)
   1.446828610  -2.505980853   0.000000000
   0.000000000   0.000000000  -4.869156802
   4.395250073   2.537599002   0.000000000

ATOMIC_POSITIONS (angstrom)
Nb       2.921212349   0.015908960  -4.869156802
Ti       2.906330310  -1.663338761  -2.434578401
Ti       5.847720488   0.034875446  -4.869156802
Nb       4.385892458   0.861540808  -2.434578401


     NEW-OLD atomic charge density approx. for the potential

     Check: negative/imaginary core charge=   -0.000001    0.000000
     extrapolated charge   50.17057, renormalised to   50.00000

     total cpu time spent up to now is     3618.5 secs

     per-process dynamical memory:   186.6 Mb

     Self-consistent Calculation

     iteration #  1     ecut=    40.00 Ry     beta=0.60
     Davidson diagonalization with overlap
     c_bands:  1 eigenvalues not converged
     ethr =  1.00E-06,  avg # of iterations =  5.8

     total cpu time spent up to now is     3686.0 secs

     total energy              =    -469.12228746 Ry
     Harris-Foulkes estimate   =    -468.84163316 Ry
     estimated scf accuracy    <       0.00296856 Ry

     iteration #  2     ecut=    40.00 Ry     beta=0.60
     Davidson diagonalization with overlap
     c_bands:  1 eigenvalues not converged
     ethr =  5.94E-06,  avg # of iterations =  5.7

     total cpu time spent up to now is     3745.4 secs

     total energy              =    -469.12206845 Ry
     Harris-Foulkes estimate   =    -469.13143374 Ry
     estimated scf accuracy    <       0.05440955 Ry

     iteration #  3     ecut=    40.00 Ry     beta=0.60
     Davidson diagonalization with overlap
     ethr =  5.94E-06,  avg # of iterations =  4.8

     total cpu time spent up to now is     3791.4 secs

     total energy              =    -469.12566416 Ry
     Harris-Foulkes estimate   =    -469.12651412 Ry
     estimated scf accuracy    <       0.00239000 Ry

     iteration #  4     ecut=    40.00 Ry     beta=0.60
     Davidson diagonalization with overlap
     ethr =  4.78E-06,  avg # of iterations =  2.1

     total cpu time spent up to now is     3820.0 secs

     total energy              =    -469.12590976 Ry
     Harris-Foulkes estimate   =    -469.12597644 Ry
     estimated scf accuracy    <       0.00097007 Ry

     iteration #  5     ecut=    40.00 Ry     beta=0.60
     Davidson diagonalization with overlap
     ethr =  1.94E-06,  avg # of iterations =  1.1

     total cpu time spent up to now is     3844.7 secs

     total energy              =    -469.12589886 Ry
     Harris-Foulkes estimate   =    -469.12593032 Ry
     estimated scf accuracy    <       0.00079847 Ry

     iteration #  6     ecut=    40.00 Ry     beta=0.60
     Davidson diagonalization with overlap
     ethr =  1.60E-06,  avg # of iterations =  1.0

     total cpu time spent up to now is     3869.2 secs

     total energy              =    -469.12567323 Ry
     Harris-Foulkes estimate   =    -469.12590917 Ry
     estimated scf accuracy    <       0.00074678 Ry

     iteration #  7     ecut=    40.00 Ry     beta=0.60
     Davidson diagonalization with overlap
     ethr =  1.49E-06,  avg # of iterations =  3.0

     total cpu time spent up to now is     3900.1 secs

     total energy              =    -469.12576676 Ry
     Harris-Foulkes estimate   =    -469.12576929 Ry
     estimated scf accuracy    <       0.00002236 Ry

     iteration #  8     ecut=    40.00 Ry     beta=0.60
     Davidson diagonalization with overlap
     ethr =  4.47E-08,  avg # of iterations =  4.4

     total cpu time spent up to now is     3941.7 secs

     total energy              =    -469.12577499 Ry
     Harris-Foulkes estimate   =    -469.12577551 Ry
     estimated scf accuracy    <       0.00000117 Ry

     iteration #  9     ecut=    40.00 Ry     beta=0.60
     Davidson diagonalization with overlap
     ethr =  2.34E-09,  avg # of iterations =  3.3

     total cpu time spent up to now is     3974.5 secs

     total energy              =    -469.12577512 Ry
     Harris-Foulkes estimate   =    -469.12577522 Ry
     estimated scf accuracy    <       0.00000033 Ry

     iteration # 10     ecut=    40.00 Ry     beta=0.60
     Davidson diagonalization with overlap
     ethr =  6.63E-10,  avg # of iterations =  3.1

     total cpu time spent up to now is     4005.4 secs

     total energy              =    -469.12577516 Ry
     Harris-Foulkes estimate   =    -469.12577519 Ry
     estimated scf accuracy    <       0.00000014 Ry

     iteration # 11     ecut=    40.00 Ry     beta=0.60
     Davidson diagonalization with overlap
     ethr =  2.78E-10,  avg # of iterations =  2.1

     total cpu time spent up to now is     4033.9 secs

     total energy              =    -469.12577518 Ry
     Harris-Foulkes estimate   =    -469.12577518 Ry
     estimated scf accuracy    <       0.00000002 Ry

     iteration # 12     ecut=    40.00 Ry     beta=0.60
     Davidson diagonalization with overlap
     ethr =  3.12E-11,  avg # of iterations =  4.3

     total cpu time spent up to now is     4070.7 secs

     total energy              =    -469.12577518 Ry
     Harris-Foulkes estimate   =    -469.12577518 Ry
     estimated scf accuracy    <          1.7E-09 Ry

     iteration # 13     ecut=    40.00 Ry     beta=0.60
     Davidson diagonalization with overlap
     ethr =  3.35E-12,  avg # of iterations =  2.6

     total cpu time spent up to now is     4100.0 secs

     total energy              =    -469.12577518 Ry
     Harris-Foulkes estimate   =    -469.12577518 Ry
     estimated scf accuracy    <          4.0E-10 Ry

     iteration # 14     ecut=    40.00 Ry     beta=0.60
     Davidson diagonalization with overlap
     ethr =  8.05E-13,  avg # of iterations =  3.8

     total cpu time spent up to now is     4133.4 secs

     total energy              =    -469.12577518 Ry
     Harris-Foulkes estimate   =    -469.12577518 Ry
     estimated scf accuracy    <          2.2E-10 Ry

     iteration # 15     ecut=    40.00 Ry     beta=0.60
     Davidson diagonalization with overlap
     ethr =  4.32E-13,  avg # of iterations =  1.3

     total cpu time spent up to now is     4158.4 secs

     End of self-consistent calculation

     Number of k-points >= 100: set verbosity='high' to print the bands.

     the Fermi energy is    15.7496 ev

!    total energy              =    -469.12577518 Ry
     Harris-Foulkes estimate   =    -469.12577518 Ry
     estimated scf accuracy    <          7.5E-11 Ry

     The total energy is the sum of the following terms:

     one-electron contribution =    -117.01339276 Ry
     hartree contribution      =      79.35827632 Ry
     xc contribution           =     -65.88623133 Ry
     ewald contribution        =    -365.58029609 Ry
     smearing contrib. (-TS)   =      -0.00413132 Ry

     convergence has been achieved in  15 iterations

     Forces acting on atoms (Ry/au):

     atom    1 type  1   force =     0.00060535    0.00034950    0.00000000
     atom    2 type  2   force =    -0.00288782   -0.00166728    0.00000000
     atom    3 type  2   force =     0.00291218    0.00168135    0.00000000
     atom    4 type  1   force =    -0.00062972   -0.00036357    0.00000000

     Total force =     0.004842     Total SCF correction =     0.000012


     entering subroutine stress ...

          total   stress  (Ry/bohr**3)                   (kbar)     P=   -3.27
  -0.00004681   0.00002770   0.00000000         -6.89      4.07      0.00
   0.00002770  -0.00007879   0.00000000          4.07    -11.59      0.00
   0.00000000   0.00000000   0.00005885          0.00      0.00      8.66


     number of scf cycles    =   5
     number of bfgs steps    =   4

     enthalpy old            =    -469.1252697192 Ry
     enthalpy new            =    -469.1257751786 Ry

     CASE: enthalpy_new < enthalpy_old

     new trust radius        =       0.0444351004 bohr
     new conv_thr            =            1.0E-10 Ry

     new unit-cell volume =    482.98776 a.u.^3 (    71.57140 Ang^3 )

CELL_PARAMETERS (alat=  1.88972599)
   1.434695529  -2.484965741   0.000000000
   0.000000000   0.000000000  -4.918403233
   4.391939465   2.535687622   0.000000000

ATOMIC_POSITIONS (angstrom)
Nb       2.912879348   0.025107975  -4.918403233
Ti       2.886896757  -1.646538565  -2.459201617
Ti       5.838518913   0.057583064  -4.918403233
Nb       4.377633042   0.870782320  -2.459201617


     NEW-OLD atomic charge density approx. for the potential

     Check: negative/imaginary core charge=   -0.000001    0.000000
     extrapolated charge   50.04261, renormalised to   50.00000

     total cpu time spent up to now is     4174.5 secs

     per-process dynamical memory:   186.6 Mb

     Self-consistent Calculation

     iteration #  1     ecut=    40.00 Ry     beta=0.60
     Davidson diagonalization with overlap
     c_bands:  1 eigenvalues not converged
     ethr =  1.00E-06,  avg # of iterations =  7.3

     total cpu time spent up to now is     4247.0 secs

     total energy              =    -469.12593879 Ry
     Harris-Foulkes estimate   =    -469.05519299 Ry
     estimated scf accuracy    <       0.00071348 Ry

     iteration #  2     ecut=    40.00 Ry     beta=0.60
     Davidson diagonalization with overlap
     ethr =  1.43E-06,  avg # of iterations =  4.5

     total cpu time spent up to now is     4294.5 secs

     total energy              =    -469.12571609 Ry
     Harris-Foulkes estimate   =    -469.12678974 Ry
     estimated scf accuracy    <       0.00378038 Ry

     iteration #  3     ecut=    40.00 Ry     beta=0.60
     Davidson diagonalization with overlap
     ethr =  1.43E-06,  avg # of iterations =  4.9

     total cpu time spent up to now is     4339.4 secs

     total energy              =    -469.12620018 Ry
     Harris-Foulkes estimate   =    -469.12658071 Ry
     estimated scf accuracy    <       0.00247301 Ry

     iteration #  4     ecut=    40.00 Ry     beta=0.60
     Davidson diagonalization with overlap
     ethr =  1.43E-06,  avg # of iterations =  3.6

     total cpu time spent up to now is     4371.1 secs

     total energy              =    -469.12631167 Ry
     Harris-Foulkes estimate   =    -469.12633712 Ry
     estimated scf accuracy    <       0.00013507 Ry

     iteration #  5     ecut=    40.00 Ry     beta=0.60
     Davidson diagonalization with overlap
     ethr =  2.70E-07,  avg # of iterations =  4.3

     total cpu time spent up to now is     4408.2 secs

     total energy              =    -469.12630495 Ry
     Harris-Foulkes estimate   =    -469.12637235 Ry
     estimated scf accuracy    <       0.00060253 Ry

     iteration #  6     ecut=    40.00 Ry     beta=0.60
     Davidson diagonalization with overlap
     ethr =  2.70E-07,  avg # of iterations =  3.9

     total cpu time spent up to now is     4438.8 secs

     total energy              =    -469.12633895 Ry
     Harris-Foulkes estimate   =    -469.12634075 Ry
     estimated scf accuracy    <       0.00001452 Ry

     iteration #  7     ecut=    40.00 Ry     beta=0.60
     Davidson diagonalization with overlap
     ethr =  2.90E-08,  avg # of iterations =  3.9

     total cpu time spent up to now is     4473.4 secs

     total energy              =    -469.12634151 Ry
     Harris-Foulkes estimate   =    -469.12634266 Ry
     estimated scf accuracy    <       0.00001193 Ry

     iteration #  8     ecut=    40.00 Ry     beta=0.60
     Davidson diagonalization with overlap
     ethr =  2.39E-08,  avg # of iterations =  1.1

     total cpu time spent up to now is     4498.1 secs

     total energy              =    -469.12634142 Ry
     Harris-Foulkes estimate   =    -469.12634206 Ry
     estimated scf accuracy    <       0.00000591 Ry

     iteration #  9     ecut=    40.00 Ry     beta=0.60
     Davidson diagonalization with overlap
     ethr =  1.18E-08,  avg # of iterations =  2.1

     total cpu time spent up to now is     4524.6 secs

     total energy              =    -469.12634152 Ry
     Harris-Foulkes estimate   =    -469.12634170 Ry
     estimated scf accuracy    <       0.00000097 Ry

     iteration # 10     ecut=    40.00 Ry     beta=0.60
     Davidson diagonalization with overlap
     ethr =  1.93E-09,  avg # of iterations =  4.2

     total cpu time spent up to now is     4561.5 secs

     total energy              =    -469.12634173 Ry
     Harris-Foulkes estimate   =    -469.12634176 Ry
     estimated scf accuracy    <       0.00000029 Ry

     iteration # 11     ecut=    40.00 Ry     beta=0.60
     Davidson diagonalization with overlap
     ethr =  5.89E-10,  avg # of iterations =  1.1

     total cpu time spent up to now is     4586.2 secs

     total energy              =    -469.12634173 Ry
     Harris-Foulkes estimate   =    -469.12634174 Ry
     estimated scf accuracy    <       0.00000007 Ry

     iteration # 12     ecut=    40.00 Ry     beta=0.60
     Davidson diagonalization with overlap
     ethr =  1.41E-10,  avg # of iterations =  3.8

     total cpu time spent up to now is     4621.0 secs

     total energy              =    -469.12634174 Ry
     Harris-Foulkes estimate   =    -469.12634174 Ry
     estimated scf accuracy    <       0.00000004 Ry

     iteration # 13     ecut=    40.00 Ry     beta=0.60
     Davidson diagonalization with overlap
     ethr =  8.39E-11,  avg # of iterations =  1.0

     total cpu time spent up to now is     4645.6 secs

     total energy              =    -469.12634174 Ry
     Harris-Foulkes estimate   =    -469.12634174 Ry
     estimated scf accuracy    <          7.4E-09 Ry

     iteration # 14     ecut=    40.00 Ry     beta=0.60
     Davidson diagonalization with overlap
     ethr =  1.48E-11,  avg # of iterations =  3.9

     total cpu time spent up to now is     4680.9 secs

     total energy              =    -469.12634174 Ry
     Harris-Foulkes estimate   =    -469.12634174 Ry
     estimated scf accuracy    <          1.1E-09 Ry

     iteration # 15     ecut=    40.00 Ry     beta=0.60
     Davidson diagonalization with overlap
     ethr =  2.21E-12,  avg # of iterations =  1.4

     total cpu time spent up to now is     4706.2 secs

     total energy              =    -469.12634174 Ry
     Harris-Foulkes estimate   =    -469.12634174 Ry
     estimated scf accuracy    <          6.8E-10 Ry

     iteration # 16     ecut=    40.00 Ry     beta=0.60
     Davidson diagonalization with overlap
     ethr =  1.36E-12,  avg # of iterations =  2.2

     total cpu time spent up to now is     4733.2 secs

     End of self-consistent calculation

     Number of k-points >= 100: set verbosity='high' to print the bands.

     the Fermi energy is    15.7203 ev

!    total energy              =    -469.12634174 Ry
     Harris-Foulkes estimate   =    -469.12634174 Ry
     estimated scf accuracy    <          6.6E-11 Ry

     The total energy is the sum of the following terms:

     one-electron contribution =    -117.26742752 Ry
     hartree contribution      =      79.45653757 Ry
     xc contribution           =     -65.88628550 Ry
     ewald contribution        =    -365.42523916 Ry
     smearing contrib. (-TS)   =      -0.00392714 Ry

     convergence has been achieved in  16 iterations

     Forces acting on atoms (Ry/au):

     atom    1 type  1   force =     0.00247672    0.00142994    0.00000000
     atom    2 type  2   force =    -0.00278323   -0.00160690    0.00000000
     atom    3 type  2   force =     0.00280170    0.00161756    0.00000000
     atom    4 type  1   force =    -0.00249519   -0.00144060    0.00000000

     Total force =     0.006105     Total SCF correction =     0.000013


     entering subroutine stress ...

          total   stress  (Ry/bohr**3)                   (kbar)     P=   -5.70
  -0.00004823   0.00001308   0.00000000         -7.09      1.92      0.00
   0.00001308  -0.00006333   0.00000000          1.92     -9.32      0.00
   0.00000000   0.00000000  -0.00000472          0.00      0.00     -0.69


     number of scf cycles    =   6
     number of bfgs steps    =   5

     enthalpy old            =    -469.1257751786 Ry
     enthalpy new            =    -469.1263417407 Ry

     CASE: enthalpy_new < enthalpy_old

     new trust radius        =       0.0386323943 bohr
     new conv_thr            =            1.0E-10 Ry

     new unit-cell volume =    481.78401 a.u.^3 (    71.39302 Ang^3 )

CELL_PARAMETERS (alat=  1.88972599)
   1.421139400  -2.461485839   0.000000000
   0.000000000   0.000000000  -4.961632483
   4.384248972   2.531247514   0.000000000

ATOMIC_POSITIONS (angstrom)
Nb       2.903423990   0.035302190  -4.961632483
Ti       2.863440467  -1.628774507  -2.480816242
Ti       5.824658331   0.080887190  -4.961632483
Nb       4.363228886   0.878119362  -2.480816242


     NEW-OLD atomic charge density approx. for the potential
     extrapolated charge   49.88008, renormalised to   50.00000

     total cpu time spent up to now is     4749.2 secs

     per-process dynamical memory:   186.6 Mb

     Self-consistent Calculation

     iteration #  1     ecut=    40.00 Ry     beta=0.60
     Davidson diagonalization with overlap
     c_bands:  1 eigenvalues not converged
     c_bands:  1 eigenvalues not converged
     ethr =  1.00E-06,  avg # of iterations =  8.1

     total cpu time spent up to now is     4826.6 secs

     total energy              =    -469.12245154 Ry
     Harris-Foulkes estimate   =    -469.32755033 Ry
     estimated scf accuracy    <       0.00476555 Ry

     iteration #  2     ecut=    40.00 Ry     beta=0.60
     Davidson diagonalization with overlap
     ethr =  9.53E-06,  avg # of iterations =  5.4

     total cpu time spent up to now is     4883.9 secs

     total energy              =    -469.11747528 Ry
     Harris-Foulkes estimate   =    -469.13864553 Ry
     estimated scf accuracy    <       0.13284357 Ry

     iteration #  3     ecut=    40.00 Ry     beta=0.60
     Davidson diagonalization with overlap
     ethr =  9.53E-06,  avg # of iterations =  5.2

     total cpu time spent up to now is     4932.0 secs

     total energy              =    -469.12660191 Ry
     Harris-Foulkes estimate   =    -469.12698450 Ry
     estimated scf accuracy    <       0.00121477 Ry

     iteration #  4     ecut=    40.00 Ry     beta=0.60
     Davidson diagonalization with overlap
     ethr =  2.43E-06,  avg # of iterations =  2.1

     total cpu time spent up to now is     4958.8 secs

     total energy              =    -469.12651838 Ry
     Harris-Foulkes estimate   =    -469.12668398 Ry
     estimated scf accuracy    <       0.00053499 Ry

     iteration #  5     ecut=    40.00 Ry     beta=0.60
     Davidson diagonalization with overlap
     ethr =  1.07E-06,  avg # of iterations =  3.0

     total cpu time spent up to now is     4990.1 secs

     total energy              =    -469.12660493 Ry
     Harris-Foulkes estimate   =    -469.12661196 Ry
     estimated scf accuracy    <       0.00005076 Ry

     iteration #  6     ecut=    40.00 Ry     beta=0.60
     Davidson diagonalization with overlap
     ethr =  1.02E-07,  avg # of iterations =  4.1

     total cpu time spent up to now is     5026.0 secs

     total energy              =    -469.12661017 Ry
     Harris-Foulkes estimate   =    -469.12661932 Ry
     estimated scf accuracy    <       0.00009346 Ry

     iteration #  7     ecut=    40.00 Ry     beta=0.60
     Davidson diagonalization with overlap
     ethr =  1.02E-07,  avg # of iterations =  1.0

     total cpu time spent up to now is     5050.6 secs

     total energy              =    -469.12661295 Ry
     Harris-Foulkes estimate   =    -469.12661407 Ry
     estimated scf accuracy    <       0.00001194 Ry

     iteration #  8     ecut=    40.00 Ry     beta=0.60
     Davidson diagonalization with overlap
     ethr =  2.39E-08,  avg # of iterations =  4.0

     total cpu time spent up to now is     5082.8 secs

     total energy              =    -469.12661155 Ry
     Harris-Foulkes estimate   =    -469.12661408 Ry
     estimated scf accuracy    <       0.00000663 Ry

     iteration #  9     ecut=    40.00 Ry     beta=0.60
     Davidson diagonalization with overlap
     ethr =  1.33E-08,  avg # of iterations =  3.8

     total cpu time spent up to now is     5117.2 secs

     total energy              =    -469.12661267 Ry
     Harris-Foulkes estimate   =    -469.12661295 Ry
     estimated scf accuracy    <       0.00000228 Ry

     iteration # 10     ecut=    40.00 Ry     beta=0.60
     Davidson diagonalization with overlap
     ethr =  4.56E-09,  avg # of iterations =  1.7

     total cpu time spent up to now is     5142.9 secs

     total energy              =    -469.12661270 Ry
     Harris-Foulkes estimate   =    -469.12661282 Ry
     estimated scf accuracy    <       0.00000067 Ry

     iteration # 11     ecut=    40.00 Ry     beta=0.60
     Davidson diagonalization with overlap
     ethr =  1.34E-09,  avg # of iterations =  3.5

     total cpu time spent up to now is     5174.9 secs

     total energy              =    -469.12661277 Ry
     Harris-Foulkes estimate   =    -469.12661278 Ry
     estimated scf accuracy    <       0.00000013 Ry

     iteration # 12     ecut=    40.00 Ry     beta=0.60
     Davidson diagonalization with overlap
     ethr =  2.54E-10,  avg # of iterations =  2.4

     total cpu time spent up to now is     5202.4 secs

     total energy              =    -469.12661277 Ry
     Harris-Foulkes estimate   =    -469.12661277 Ry
     estimated scf accuracy    <       0.00000006 Ry

     iteration # 13     ecut=    40.00 Ry     beta=0.60
     Davidson diagonalization with overlap
     ethr =  1.17E-10,  avg # of iterations =  3.0

     total cpu time spent up to now is     5231.3 secs

     total energy              =    -469.12661277 Ry
     Harris-Foulkes estimate   =    -469.12661277 Ry
[...]

     celldm(1)=   1.889726  celldm(2)=   0.000000  celldm(3)=   0.000000
     celldm(4)=   0.000000  celldm(5)=   0.000000  celldm(6)=   0.000000

     crystal axes: (cart. coord. in units of alat)
               a(1) = (   1.379431  -2.389245   0.000000 )  
               a(2) = (   0.000000   0.000000  -4.794504 )  
               a(3) = (   4.650509   2.684973   0.000000 )  

     reciprocal axes: (cart. coord. in units 2 pi/alat)
               b(1) = (  0.181234 -0.313907  0.000000 )  
               b(2) = (  0.000000  0.000000 -0.208572 )  
               b(3) = (  0.161273  0.093111  0.000000 )  


     PseudoPot. # 1 for Nb read from file:
     ./Nb.pbe-nsp-van.UPF
     MD5 check sum: 0a22fc7fb0ba19a08ca5db297a5d2854
     Pseudo is Ultrasoft + core correction, Zval = 13.0
     Generated by new atomic code, or converted to UPF format
     Using radial grid of  887 points,  6 beta functions with: 
                l(1) =   0
                l(2) =   0
                l(3) =   1
                l(4) =   1
                l(5) =   2
                l(6) =   2
     Q(r) pseudized with  6 coefficients,  rinner =    1.000   1.000   1.000
                                                       1.000   1.000

     PseudoPot. # 2 for Ti read from file:
     ./Ti.pbe-sp-van_ak.UPF
     MD5 check sum: f98fea3e8887528921fefa5636a534ca
     Pseudo is Ultrasoft, Zval = 12.0
     Generated by new atomic code, or converted to UPF format
     Using radial grid of  851 points,  6 beta functions with: 
                l(1) =   0
                l(2) =   0
                l(3) =   1
                l(4) =   1
                l(5) =   2
                l(6) =   2
     Q(r) pseudized with  8 coefficients,  rinner =    1.000   1.000   1.000
                                                       1.000   1.000

     atomic species   valence    mass     pseudopotential
        Nb            13.00    92.90638     Nb( 1.00)
        Ti            12.00    47.86700     Ti( 1.00)

      4 Sym. Ops. (no inversion) found
          (note:  4 additional sym.ops. were found but ignored
           their fractional translations are incommensurate with FFT grid)


   Cartesian axes

     site n.     atom                  positions (alat units)
         1           Nb  tau(   1) = (   3.1626749   0.2331413  -4.7945049  )
         2           Ti  tau(   2) = (   2.7664223  -1.5884669  -2.3972524  )
         3           Ti  tau(   3) = (   6.1930862   0.3899201  -4.7945049  )
         4           Nb  tau(   4) = (   4.4174715   0.9575969  -2.3972524  )

     number of k points=   360  Marzari-Vanderbilt smearing, width (Ry)=  0.0200

     Number of k-points >= 100: set verbosity='high' to print them.

     Dense  grid:    64711 G-vectors     FFT dimensions: (  40,  60,  64)

     Smooth grid:    16413 G-vectors     FFT dimensions: (  24,  40,  45)

     Estimated max dynamical RAM per process >      96.79Mb

     Estimated total allocated dynamical RAM >     387.16Mb

     Initial potential from superposition of free atoms

     starting charge   47.99445, renormalised to   50.00000
     Starting wfc are   46 randomized atomic wfcs

     total cpu time spent up to now is    18852.5 secs

     per-process dynamical memory:   181.6 Mb

     Self-consistent Calculation

     iteration #  1     ecut=    40.00 Ry     beta=0.60
     Davidson diagonalization with overlap
     c_bands:  1 eigenvalues not converged
     c_bands:  1 eigenvalues not converged
     c_bands:  1 eigenvalues not converged
     c_bands:  1 eigenvalues not converged
     c_bands:  1 eigenvalues not converged
     c_bands:  1 eigenvalues not converged
     c_bands:  1 eigenvalues not converged
     c_bands:  1 eigenvalues not converged
     c_bands:  1 eigenvalues not converged
     c_bands:  1 eigenvalues not converged
     c_bands:  1 eigenvalues not converged
     c_bands:  1 eigenvalues not converged
     c_bands:  1 eigenvalues not converged
     c_bands:  1 eigenvalues not converged
     c_bands:  1 eigenvalues not converged
     c_bands:  1 eigenvalues not converged
     c_bands:  1 eigenvalues not converged
     c_bands:  1 eigenvalues not converged
     c_bands:  1 eigenvalues not converged
     c_bands:  1 eigenvalues not converged
     c_bands:  1 eigenvalues not converged
     c_bands:  1 eigenvalues not converged
     c_bands:  1 eigenvalues not converged
     c_bands:  1 eigenvalues not converged
     c_bands:  1 eigenvalues not converged
     c_bands:  1 eigenvalues not converged
     c_bands:  1 eigenvalues not converged
     c_bands:  1 eigenvalues not converged
     c_bands:  1 eigenvalues not converged
     c_bands:  1 eigenvalues not converged
     c_bands:  1 eigenvalues not converged
     c_bands:  1 eigenvalues not converged
     c_bands:  1 eigenvalues not converged
     ethr =  1.00E-06,  avg # of iterations = 13.8

     total cpu time spent up to now is    18954.9 secs

     total energy              =    -458.15709940 Ry
     Harris-Foulkes estimate   =    -471.09848339 Ry
     estimated scf accuracy    <      16.27361732 Ry

     iteration #  2     ecut=    40.00 Ry     beta=0.60
     Davidson diagonalization with overlap
     ethr =  1.00E-02,  avg # of iterations =  5.3

     total cpu time spent up to now is    19008.8 secs

     total energy              =    -467.74974928 Ry
     Harris-Foulkes estimate   =    -487.66034574 Ry
     estimated scf accuracy    <      55.76926942 Ry

     iteration #  3     ecut=    40.00 Ry     beta=0.60
     Davidson diagonalization with overlap
     ethr =  1.00E-02,  avg # of iterations =  3.7

     total cpu time spent up to now is    19046.6 secs

     total energy              =    -469.74564933 Ry
     Harris-Foulkes estimate   =    -470.86902036 Ry
     estimated scf accuracy    <      11.28985240 Ry

     iteration #  4     ecut=    40.00 Ry     beta=0.60
     Davidson diagonalization with overlap
     ethr =  1.00E-02,  avg # of iterations =  1.2

     total cpu time spent up to now is    19069.7 secs

     total energy              =    -469.64745216 Ry
     Harris-Foulkes estimate   =    -469.85724784 Ry
     estimated scf accuracy    <       6.75649396 Ry

     iteration #  5     ecut=    40.00 Ry     beta=0.60
     Davidson diagonalization with overlap
     ethr =  1.00E-02,  avg # of iterations =  1.0

     total cpu time spent up to now is    19092.5 secs

     total energy              =    -469.01827559 Ry
     Harris-Foulkes estimate   =    -469.68533542 Ry
     estimated scf accuracy    <       5.81773738 Ry

     iteration #  6     ecut=    40.00 Ry     beta=0.60
     Davidson diagonalization with overlap
     ethr =  1.00E-02,  avg # of iterations =  1.6

     total cpu time spent up to now is    19116.3 secs

     total energy              =    -468.84819416 Ry
     Harris-Foulkes estimate   =    -469.14016538 Ry
     estimated scf accuracy    <       2.56504861 Ry

     iteration #  7     ecut=    40.00 Ry     beta=0.60
     Davidson diagonalization with overlap
     ethr =  5.13E-03,  avg # of iterations =  4.2

     total cpu time spent up to now is    19147.0 secs

     total energy              =    -469.09496969 Ry
     Harris-Foulkes estimate   =    -469.10513723 Ry
     estimated scf accuracy    <       0.07688541 Ry

     iteration #  8     ecut=    40.00 Ry     beta=0.60
     Davidson diagonalization with overlap
     ethr =  1.54E-04,  avg # of iterations =  6.7

     total cpu time spent up to now is    19195.7 secs

     total energy              =    -469.14289311 Ry
     Harris-Foulkes estimate   =    -469.14710413 Ry
     estimated scf accuracy    <       0.07018861 Ry

     iteration #  9     ecut=    40.00 Ry     beta=0.60
     Davidson diagonalization with overlap
     ethr =  1.40E-04,  avg # of iterations =  1.0

     total cpu time spent up to now is    19218.6 secs

     total energy              =    -469.14200149 Ry
     Harris-Foulkes estimate   =    -469.14411701 Ry
     estimated scf accuracy    <       0.06471588 Ry

     iteration # 10     ecut=    40.00 Ry     beta=0.60
     Davidson diagonalization with overlap
     ethr =  1.29E-04,  avg # of iterations =  1.0

     total cpu time spent up to now is    19241.4 secs

     total energy              =    -469.14936054 Ry
     Harris-Foulkes estimate   =    -469.14368907 Ry
     estimated scf accuracy    <       0.07639217 Ry

     iteration # 11     ecut=    40.00 Ry     beta=0.60
     Davidson diagonalization with overlap
     ethr =  1.29E-04,  avg # of iterations =  1.2

     total cpu time spent up to now is    19264.5 secs

     total energy              =    -469.10915598 Ry
     Harris-Foulkes estimate   =    -469.15546460 Ry
     estimated scf accuracy    <       0.18779475 Ry

     iteration # 12     ecut=    40.00 Ry     beta=0.60
     Davidson diagonalization with overlap
     ethr =  1.29E-04,  avg # of iterations =  3.9

     total cpu time spent up to now is    19297.8 secs

     total energy              =    -469.14035506 Ry
     Harris-Foulkes estimate   =    -469.14208317 Ry
     estimated scf accuracy    <       0.04858187 Ry

     iteration # 13     ecut=    40.00 Ry     beta=0.60
     Davidson diagonalization with overlap
     ethr =  9.72E-05,  avg # of iterations =  1.2

     total cpu time spent up to now is    19320.9 secs

     total energy              =    -469.12730173 Ry
     Harris-Foulkes estimate   =    -469.14074160 Ry
     estimated scf accuracy    <       0.04428407 Ry

     iteration # 14     ecut=    40.00 Ry     beta=0.60
     Davidson diagonalization with overlap
     ethr =  8.86E-05,  avg # of iterations =  3.7

     total cpu time spent up to now is    19352.0 secs

     total energy              =    -469.13402984 Ry
     Harris-Foulkes estimate   =    -469.13904375 Ry
     estimated scf accuracy    <       0.03054213 Ry

     iteration # 15     ecut=    40.00 Ry     beta=0.60
     Davidson diagonalization with overlap
     ethr =  6.11E-05,  avg # of iterations =  1.1

     total cpu time spent up to now is    19374.9 secs

     total energy              =    -469.13547598 Ry
     Harris-Foulkes estimate   =    -469.13570918 Ry
     estimated scf accuracy    <       0.00264952 Ry

     iteration # 16     ecut=    40.00 Ry     beta=0.60
     Davidson diagonalization with overlap
     c_bands:  2 eigenvalues not converged
     ethr =  5.30E-06,  avg # of iterations =  5.0

     total cpu time spent up to now is    19412.4 secs

     total energy              =    -469.13628336 Ry
     Harris-Foulkes estimate   =    -469.13633932 Ry
     estimated scf accuracy    <       0.00030818 Ry

     iteration # 17     ecut=    40.00 Ry     beta=0.60
     Davidson diagonalization with overlap
     c_bands:  1 eigenvalues not converged
     ethr =  6.16E-07,  avg # of iterations =  2.8

     total cpu time spent up to now is    19438.9 secs

     total energy              =    -469.13631354 Ry
     Harris-Foulkes estimate   =    -469.13631476 Ry
     estimated scf accuracy    <       0.00000771 Ry

     iteration # 18     ecut=    40.00 Ry     beta=0.60
     Davidson diagonalization with overlap
     ethr =  1.54E-08,  avg # of iterations =  5.1

     total cpu time spent up to now is    19480.5 secs

     total energy              =    -469.13631984 Ry
     Harris-Foulkes estimate   =    -469.13632074 Ry
     estimated scf accuracy    <       0.00000780 Ry

     iteration # 19     ecut=    40.00 Ry     beta=0.60
     Davidson diagonalization with overlap
     ethr =  1.54E-08,  avg # of iterations =  1.0

     total cpu time spent up to now is    19503.3 secs

     total energy              =    -469.13631997 Ry
     Harris-Foulkes estimate   =    -469.13632010 Ry
     estimated scf accuracy    <       0.00000199 Ry

     iteration # 20     ecut=    40.00 Ry     beta=0.60
     Davidson diagonalization with overlap
     ethr =  3.98E-09,  avg # of iterations =  3.0

     total cpu time spent up to now is    19529.8 secs

     total energy              =    -469.13632004 Ry
     Harris-Foulkes estimate   =    -469.13632009 Ry
     estimated scf accuracy    <       0.00000049 Ry

     iteration # 21     ecut=    40.00 Ry     beta=0.60
     Davidson diagonalization with overlap
     ethr =  9.81E-10,  avg # of iterations =  3.9

     total cpu time spent up to now is    19559.9 secs

     total energy              =    -469.13632010 Ry
     Harris-Foulkes estimate   =    -469.13632010 Ry
     estimated scf accuracy    <       0.00000004 Ry

     iteration # 22     ecut=    40.00 Ry     beta=0.60
     Davidson diagonalization with overlap
     ethr =  7.22E-11,  avg # of iterations =  3.9

     total cpu time spent up to now is    19590.7 secs

     total energy              =    -469.13632011 Ry
     Harris-Foulkes estimate   =    -469.13632011 Ry
     estimated scf accuracy    <       0.00000003 Ry

     iteration # 23     ecut=    40.00 Ry     beta=0.60
     Davidson diagonalization with overlap
     ethr =  6.16E-11,  avg # of iterations =  1.0

     total cpu time spent up to now is    19613.6 secs

     total energy              =    -469.13632011 Ry
     Harris-Foulkes estimate   =    -469.13632011 Ry
     estimated scf accuracy    <       0.00000002 Ry

     iteration # 24     ecut=    40.00 Ry     beta=0.60
     Davidson diagonalization with overlap
     ethr =  4.06E-11,  avg # of iterations =  1.0

     total cpu time spent up to now is    19636.4 secs

     total energy              =    -469.13632011 Ry
     Harris-Foulkes estimate   =    -469.13632011 Ry
     estimated scf accuracy    <       0.00000001 Ry

     iteration # 25     ecut=    40.00 Ry     beta=0.60
     Davidson diagonalization with overlap
     ethr =  2.04E-11,  avg # of iterations =  3.0

     total cpu time spent up to now is    19663.0 secs

     total energy              =    -469.13632011 Ry
     Harris-Foulkes estimate   =    -469.13632011 Ry
     estimated scf accuracy    <          1.1E-09 Ry

     iteration # 26     ecut=    40.00 Ry     beta=0.60
     Davidson diagonalization with overlap
     ethr =  2.24E-12,  avg # of iterations =  4.3

     total cpu time spent up to now is    19698.1 secs

     total energy              =    -469.13632011 Ry
     Harris-Foulkes estimate   =    -469.13632011 Ry
     estimated scf accuracy    <          3.9E-10 Ry

     iteration # 27     ecut=    40.00 Ry     beta=0.60
     Davidson diagonalization with overlap
     ethr =  7.72E-13,  avg # of iterations =  1.1

     total cpu time spent up to now is    19721.0 secs

     total energy              =    -469.13632011 Ry
     Harris-Foulkes estimate   =    -469.13632011 Ry
     estimated scf accuracy    <          7.4E-11 Ry

     iteration # 28     ecut=    40.00 Ry     beta=0.60
     Davidson diagonalization with overlap
     ethr =  1.49E-13,  avg # of iterations =  3.8

     total cpu time spent up to now is    19753.3 secs

     total energy              =    -469.13632011 Ry
     Harris-Foulkes estimate   =    -469.13632011 Ry
     estimated scf accuracy    <          4.3E-11 Ry

     iteration # 29     ecut=    40.00 Ry     beta=0.60
     Davidson diagonalization with overlap
     ethr =  1.00E-13,  avg # of iterations =  1.0

     total cpu time spent up to now is    19776.1 secs

     total energy              =    -469.13632011 Ry
     Harris-Foulkes estimate   =    -469.13632011 Ry
     estimated scf accuracy    <          7.4E-12 Ry

     iteration # 30     ecut=    40.00 Ry     beta=0.60
     Davidson diagonalization with overlap
     ethr =  1.00E-13,  avg # of iterations =  1.0

     total cpu time spent up to now is    19799.0 secs

     total energy              =    -469.13632011 Ry
     Harris-Foulkes estimate   =    -469.13632011 Ry
     estimated scf accuracy    <          2.3E-12 Ry

     iteration # 31     ecut=    40.00 Ry     beta=0.60
     Davidson diagonalization with overlap
     ethr =  1.00E-13,  avg # of iterations =  1.0

     total cpu time spent up to now is    19821.8 secs

     End of self-consistent calculation

     Number of k-points >= 100: set verbosity='high' to print the bands.

     the Fermi energy is    15.7136 ev

!    total energy              =    -469.13632011 Ry
     Harris-Foulkes estimate   =    -469.13632011 Ry
     estimated scf accuracy    <          6.8E-15 Ry

     The total energy is the sum of the following terms:

     one-electron contribution =    -116.34360606 Ry
     hartree contribution      =      79.20558171 Ry
     xc contribution           =     -65.92136995 Ry
     ewald contribution        =    -366.07637968 Ry
     smearing contrib. (-TS)   =      -0.00054613 Ry

     convergence has been achieved in  31 iterations

     Forces acting on atoms (Ry/au):

     atom    1 type  1   force =    -0.00000733   -0.00000423    0.00000000
     atom    2 type  2   force =     0.00008648    0.00004993    0.00000000
     atom    3 type  2   force =    -0.00007117   -0.00004109    0.00000000
     atom    4 type  1   force =    -0.00000797   -0.00000460    0.00000000

     Total force =     0.000130     Total SCF correction =     0.000000


     entering subroutine stress ...

          total   stress  (Ry/bohr**3)                   (kbar)     P=   -2.78
  -0.00001156   0.00001160   0.00000000         -1.70      1.71      0.00
   0.00001160  -0.00002496   0.00000000          1.71     -3.67      0.00
   0.00000000   0.00000000  -0.00002011          0.00      0.00     -2.96


     init_run     :     29.65s CPU     30.60s WALL (       2 calls)
     electrons    :  18837.97s CPU  19294.87s WALL (      32 calls)
     update_pot   :     54.90s CPU     55.01s WALL (      30 calls)
     forces       :    161.42s CPU    163.64s WALL (      32 calls)
     stress       :    277.89s CPU    281.72s WALL (      32 calls)

     Called by init_run:
     wfcinit      :     26.42s CPU     27.19s WALL (       2 calls)
     potinit      :      0.88s CPU      0.93s WALL (       2 calls)

     Called by electrons:
     c_bands      :  16427.32s CPU  16785.81s WALL (     553 calls)
     sum_band     :   2283.87s CPU   2366.71s WALL (     553 calls)
     v_of_rho     :     22.50s CPU     22.90s WALL (     579 calls)
     newd         :    105.58s CPU    121.40s WALL (     579 calls)
     mix_rho      :      3.17s CPU      3.24s WALL (     553 calls)

     Called by c_bands:
     init_us_2    :    246.79s CPU    250.72s WALL (  421920 calls)
     cegterg      :  15892.47s CPU  16243.80s WALL (  199080 calls)

     Called by sum_band:
     sum_band:bec :     14.77s CPU     15.11s WALL (  199080 calls)
     addusdens    :     97.10s CPU    118.76s WALL (     553 calls)

     Called by *egterg:
     h_psi        :   8919.35s CPU   9214.45s WALL (  845610 calls)
     s_psi        :   1076.99s CPU   1084.08s WALL (  845610 calls)
     g_psi        :     41.67s CPU     41.81s WALL (  645810 calls)
     cdiaghg      :   1989.40s CPU   2001.95s WALL (  831930 calls)

     Called by h_psi:
     h_psi:pot    :   8826.90s CPU   9121.16s WALL (  845610 calls)
     h_psi:calbec :   1339.59s CPU   1386.77s WALL (  845610 calls)
     vloc_psi     :   6442.99s CPU   6674.71s WALL (  845610 calls)
     add_vuspsi   :   1040.28s CPU   1056.04s WALL (  845610 calls)

     General routines
     calbec       :   1905.83s CPU   1968.88s WALL ( 1102290 calls)
     fft          :     11.49s CPU     11.88s WALL (    9990 calls)
     ffts         :      0.40s CPU      0.41s WALL (    1132 calls)
     fftw         :   7025.55s CPU   7273.19s WALL (37257684 calls)
     interpolate  :      2.14s CPU      2.19s WALL (    1132 calls)

     Parallel routines
     fft_scatter  :   1015.36s CPU   1056.57s WALL (37268806 calls)

     PWSCF        :     5h22m CPU        5h30m WALL


   This run was terminated on:  17: 4: 4  29Apr2018            

=------------------------------------------------------------------------------=
   JOB DONE.
=------------------------------------------------------------------------------=
