
     Program PWSCF v.6.0 (svn rev. 13079) starts on  1May2018 at 17:42: 6 

     This program is part of the open-source Quantum ESPRESSO suite
     for quantum simulation of materials; please cite
         "P. Giannozzi et al., J. Phys.:Condens. Matter 21 395502 (2009);
          URL http://www.quantum-espresso.org", 
     in publications or presentations arising from this work. More details at
     http://www.quantum-espresso.org/quote

     Parallel version (MPI), running on     4 processors
     R & G space division:  proc/nbgrp/npool/nimage =       4
     Waiting for input...
     Reading input from standard input

     Current dimensions of program PWSCF are:
     Max number of different atomic species (ntypx) = 10
     Max number of k-points (npk) =  40000
     Max angular momentum in pseudopotentials (lmaxx) =  3

     Subspace diagonalization in iterative solution of the eigenvalue problem:
     a serial algorithm will be used


     Parallelization info
     --------------------
     sticks:   dense  smooth     PW     G-vecs:    dense   smooth      PW
     Min         684     273     94                27323     6899    1409
     Max         686     274     95                27324     6902    1410
     Sum        2741    1095    377               109295    27603    5639



     bravais-lattice index     =            0
     lattice parameter (alat)  =       1.8897  a.u.
     unit-cell volume          =     808.3427 (a.u.)^3
     number of atoms/cell      =            6
     number of atomic types    =            2
     number of electrons       =        76.00
     number of Kohn-Sham states=           46
     kinetic-energy cutoff     =      40.0000  Ry
     charge density cutoff     =     400.0000  Ry
     convergence threshold     =      1.0E-10
     mixing beta               =       0.6000
     number of iterations used =            8  plain     mixing
     Exchange-correlation      = SLA  PW   PBE  PBE ( 1  4  3  4 0 0)
     nstep                     =           50


     celldm(1)=   1.889726  celldm(2)=   0.000000  celldm(3)=   0.000000
     celldm(4)=   0.000000  celldm(5)=   0.000000  celldm(6)=   0.000000

     crystal axes: (cart. coord. in units of alat)
               a(1) = (   6.090008   5.274102   0.000000 )  
               a(2) = (  -7.612510  -2.637051   0.000000 )  
               a(3) = (   0.000000   0.000000   4.972461 )  

     reciprocal axes: (cart. coord. in units 2 pi/alat)
               b(1) = ( -0.109469  0.316010  0.000000 )  
               b(2) = ( -0.218938  0.252808  0.000000 )  
               b(3) = (  0.000000 -0.000000  0.201108 )  


     PseudoPot. # 1 for Nb read from file:
     ./Nb.pbe-nsp-van.UPF
     MD5 check sum: 0a22fc7fb0ba19a08ca5db297a5d2854
     Pseudo is Ultrasoft + core correction, Zval = 13.0
     Generated by new atomic code, or converted to UPF format
     Using radial grid of  887 points,  6 beta functions with: 
                l(1) =   0
                l(2) =   0
                l(3) =   1
                l(4) =   1
                l(5) =   2
                l(6) =   2
     Q(r) pseudized with  6 coefficients,  rinner =    1.000   1.000   1.000
                                                       1.000   1.000

     PseudoPot. # 2 for Ti read from file:
     ./Ti.pbe-sp-van_ak.UPF
     MD5 check sum: f98fea3e8887528921fefa5636a534ca
     Pseudo is Ultrasoft, Zval = 12.0
     Generated by new atomic code, or converted to UPF format
     Using radial grid of  851 points,  6 beta functions with: 
                l(1) =   0
                l(2) =   0
                l(3) =   1
                l(4) =   1
                l(5) =   2
                l(6) =   2
     Q(r) pseudized with  8 coefficients,  rinner =    1.000   1.000   1.000
                                                       1.000   1.000

     atomic species   valence    mass     pseudopotential
        Nb            13.00    92.90638     Nb( 1.00)
        Ti            12.00    47.86700     Ti( 1.00)

      4 Sym. Ops. (no inversion) found



   Cartesian axes

     site n.     atom                  positions (alat units)
         1           Nb  tau(   1) = (  -1.5225021   2.6370512   4.9724614  )
         2           Ti  tau(   2) = (  -1.5225006   0.8790162   2.4862307  )
         3           Ti  tau(   3) = (   1.5225021   2.6370512   4.9724614  )
         4           Nb  tau(   4) = (  -6.0900069  -1.7580350   2.4862307  )
         5           Nb  tau(   5) = (  -3.0450042   0.0000000   4.9724614  )
         6           Nb  tau(   6) = (   3.0450058   3.5160674   2.4862307  )

     number of k points=   248  Marzari-Vanderbilt smearing, width (Ry)=  0.0200

     Number of k-points >= 100: set verbosity='high' to print them.

     Dense  grid:   109295 G-vectors     FFT dimensions: ( 100, 100,  60)

     Smooth grid:    27603 G-vectors     FFT dimensions: (  64,  64,  40)

     Estimated max dynamical RAM per process >     179.71Mb

     Estimated total allocated dynamical RAM >     718.85Mb

     Initial potential from superposition of free atoms

     starting charge   73.98898, renormalised to   76.00000
     Starting wfc are   72 randomized atomic wfcs

     total cpu time spent up to now is       62.6 secs

     per-process dynamical memory:   247.3 Mb

     Self-consistent Calculation

     iteration #  1     ecut=    40.00 Ry     beta=0.60
     Davidson diagonalization with overlap
     ethr =  1.00E-02,  avg # of iterations =  2.3

     total cpu time spent up to now is      190.4 secs

     total energy              =    -678.58519408 Ry
     Harris-Foulkes estimate   =    -707.76302276 Ry
     estimated scf accuracy    <      36.65114011 Ry

     iteration #  2     ecut=    40.00 Ry     beta=0.60
     Davidson diagonalization with overlap
     ethr =  1.00E-02,  avg # of iterations =  6.2

     total cpu time spent up to now is      456.9 secs

     total energy              =    -672.36669820 Ry
     Harris-Foulkes estimate   =    -750.09025814 Ry
     estimated scf accuracy    <     286.77822186 Ry

     iteration #  3     ecut=    40.00 Ry     beta=0.60
     Davidson diagonalization with overlap
     ethr =  1.00E-02,  avg # of iterations =  5.5

     total cpu time spent up to now is      698.6 secs

     total energy              =    -701.59090115 Ry
     Harris-Foulkes estimate   =    -719.30218798 Ry
     estimated scf accuracy    <     104.22657452 Ry

     iteration #  4     ecut=    40.00 Ry     beta=0.60
     Davidson diagonalization with overlap
     ethr =  1.00E-02,  avg # of iterations =  4.4

     total cpu time spent up to now is      849.8 secs

     total energy              =    -706.64145668 Ry
     Harris-Foulkes estimate   =    -707.27168275 Ry
     estimated scf accuracy    <       9.66375078 Ry

     iteration #  5     ecut=    40.00 Ry     beta=0.60
     Davidson diagonalization with overlap
     ethr =  1.00E-02,  avg # of iterations =  1.1

     total cpu time spent up to now is      954.4 secs

     total energy              =    -704.80531161 Ry
     Harris-Foulkes estimate   =    -706.68826218 Ry
     estimated scf accuracy    <       8.29955099 Ry

     iteration #  6     ecut=    40.00 Ry     beta=0.60
     Davidson diagonalization with overlap
     ethr =  1.00E-02,  avg # of iterations =  1.5

     total cpu time spent up to now is     1062.4 secs

     total energy              =    -705.30146278 Ry
     Harris-Foulkes estimate   =    -705.05448799 Ry
     estimated scf accuracy    <       2.82260274 Ry

     iteration #  7     ecut=    40.00 Ry     beta=0.60
     Davidson diagonalization with overlap
     ethr =  3.71E-03,  avg # of iterations =  1.5

     total cpu time spent up to now is     1168.8 secs

     total energy              =    -704.71907952 Ry
     Harris-Foulkes estimate   =    -705.34781047 Ry
     estimated scf accuracy    <       3.40238261 Ry

     iteration #  8     ecut=    40.00 Ry     beta=0.60
     Davidson diagonalization with overlap
     ethr =  3.71E-03,  avg # of iterations =  3.4

     total cpu time spent up to now is     1284.6 secs

     total energy              =    -704.70127340 Ry
     Harris-Foulkes estimate   =    -704.90746812 Ry
     estimated scf accuracy    <       1.69936569 Ry

     iteration #  9     ecut=    40.00 Ry     beta=0.60
     Davidson diagonalization with overlap
     ethr =  2.24E-03,  avg # of iterations =  4.2

     total cpu time spent up to now is     1440.2 secs

     total energy              =    -704.94034924 Ry
     Harris-Foulkes estimate   =    -704.95550831 Ry
     estimated scf accuracy    <       0.55082356 Ry

     iteration # 10     ecut=    40.00 Ry     beta=0.60
     Davidson diagonalization with overlap
     ethr =  7.25E-04,  avg # of iterations =  2.1

     total cpu time spent up to now is     1553.0 secs

     total energy              =    -705.05028082 Ry
     Harris-Foulkes estimate   =    -704.95601034 Ry
     estimated scf accuracy    <       0.47350195 Ry

     iteration # 11     ecut=    40.00 Ry     beta=0.60
     Davidson diagonalization with overlap
     ethr =  6.23E-04,  avg # of iterations =  4.7

     total cpu time spent up to now is     1718.6 secs

     total energy              =    -704.81982334 Ry
     Harris-Foulkes estimate   =    -705.25277173 Ry
     estimated scf accuracy    <       6.96689423 Ry

     iteration # 12     ecut=    40.00 Ry     beta=0.60
     Davidson diagonalization with overlap
     ethr =  6.23E-04,  avg # of iterations =  4.0

     total cpu time spent up to now is     1849.0 secs

     total energy              =    -704.78757217 Ry
     Harris-Foulkes estimate   =    -704.95534600 Ry
     estimated scf accuracy    <       1.10069272 Ry

     iteration # 13     ecut=    40.00 Ry     beta=0.60
     Davidson diagonalization with overlap
     ethr =  6.23E-04,  avg # of iterations =  4.7

     total cpu time spent up to now is     2000.8 secs

     total energy              =    -704.93824865 Ry
     Harris-Foulkes estimate   =    -704.92416270 Ry
     estimated scf accuracy    <       0.15763780 Ry

     iteration # 14     ecut=    40.00 Ry     beta=0.60
     Davidson diagonalization with overlap
     ethr =  2.07E-04,  avg # of iterations =  3.0

     total cpu time spent up to now is     2117.1 secs

     total energy              =    -704.87674337 Ry
     Harris-Foulkes estimate   =    -704.94866771 Ry
     estimated scf accuracy    <       0.42348121 Ry

     iteration # 15     ecut=    40.00 Ry     beta=0.60
     Davidson diagonalization with overlap
     ethr =  2.07E-04,  avg # of iterations =  3.5

     total cpu time spent up to now is     2239.2 secs

     total energy              =    -704.90916381 Ry
     Harris-Foulkes estimate   =    -704.90428835 Ry
     estimated scf accuracy    <       0.02296481 Ry

     iteration # 16     ecut=    40.00 Ry     beta=0.60
     Davidson diagonalization with overlap
     ethr =  3.02E-05,  avg # of iterations =  5.5

     total cpu time spent up to now is     2401.8 secs

     total energy              =    -704.90094108 Ry
     Harris-Foulkes estimate   =    -704.92124221 Ry
     estimated scf accuracy    <       0.18514114 Ry

     iteration # 17     ecut=    40.00 Ry     beta=0.60
     Davidson diagonalization with overlap
     ethr =  3.02E-05,  avg # of iterations =  4.2

     total cpu time spent up to now is     2544.5 secs

     total energy              =    -704.90373095 Ry
     Harris-Foulkes estimate   =    -704.90600269 Ry
     estimated scf accuracy    <       0.03252473 Ry

     iteration # 18     ecut=    40.00 Ry     beta=0.60
     Davidson diagonalization with overlap
     ethr =  3.02E-05,  avg # of iterations =  2.4

     total cpu time spent up to now is     2656.5 secs

     total energy              =    -704.90309402 Ry
     Harris-Foulkes estimate   =    -704.90443580 Ry
     estimated scf accuracy    <       0.01359125 Ry

     iteration # 19     ecut=    40.00 Ry     beta=0.60
     Davidson diagonalization with overlap
     ethr =  1.79E-05,  avg # of iterations =  4.3

     total cpu time spent up to now is     2782.8 secs

     total energy              =    -704.90367731 Ry
     Harris-Foulkes estimate   =    -704.90384804 Ry
     estimated scf accuracy    <       0.00149471 Ry

     iteration # 20     ecut=    40.00 Ry     beta=0.60
     Davidson diagonalization with overlap
     c_bands:  1 eigenvalues not converged
     ethr =  1.97E-06,  avg # of iterations =  6.1

     total cpu time spent up to now is     2960.1 secs

     total energy              =    -704.90393529 Ry
     Harris-Foulkes estimate   =    -704.90397379 Ry
     estimated scf accuracy    <       0.00027564 Ry

     iteration # 21     ecut=    40.00 Ry     beta=0.60
     Davidson diagonalization with overlap
     ethr =  3.63E-07,  avg # of iterations =  4.2

     total cpu time spent up to now is     3093.3 secs

     total energy              =    -704.90387300 Ry
     Harris-Foulkes estimate   =    -704.90398229 Ry
     estimated scf accuracy    <       0.00055887 Ry

     iteration # 22     ecut=    40.00 Ry     beta=0.60
     Davidson diagonalization with overlap
     ethr =  3.63E-07,  avg # of iterations =  4.1

     total cpu time spent up to now is     3228.2 secs

     total energy              =    -704.90393129 Ry
     Harris-Foulkes estimate   =    -704.90395046 Ry
     estimated scf accuracy    <       0.00011952 Ry

     iteration # 23     ecut=    40.00 Ry     beta=0.60
     Davidson diagonalization with overlap
     ethr =  1.57E-07,  avg # of iterations =  1.6

     total cpu time spent up to now is     3335.1 secs

     total energy              =    -704.90393923 Ry
     Harris-Foulkes estimate   =    -704.90393959 Ry
     estimated scf accuracy    <       0.00000309 Ry

     iteration # 24     ecut=    40.00 Ry     beta=0.60
     Davidson diagonalization with overlap
     ethr =  4.07E-09,  avg # of iterations =  5.2

     total cpu time spent up to now is     3517.7 secs

     total energy              =    -704.90394259 Ry
     Harris-Foulkes estimate   =    -704.90394312 Ry
     estimated scf accuracy    <       0.00000715 Ry

     iteration # 25     ecut=    40.00 Ry     beta=0.60
     Davidson diagonalization with overlap
     ethr =  4.07E-09,  avg # of iterations =  1.0

     total cpu time spent up to now is     3622.3 secs

     total energy              =    -704.90394234 Ry
     Harris-Foulkes estimate   =    -704.90394272 Ry
     estimated scf accuracy    <       0.00000314 Ry

     iteration # 26     ecut=    40.00 Ry     beta=0.60
     Davidson diagonalization with overlap
     ethr =  4.07E-09,  avg # of iterations =  2.9

     total cpu time spent up to now is     3742.4 secs

     total energy              =    -704.90394257 Ry
     Harris-Foulkes estimate   =    -704.90394260 Ry
     estimated scf accuracy    <       0.00000016 Ry

     iteration # 27     ecut=    40.00 Ry     beta=0.60
     Davidson diagonalization with overlap
     ethr =  2.14E-10,  avg # of iterations =  4.3

     total cpu time spent up to now is     3887.1 secs

     total energy              =    -704.90394260 Ry
     Harris-Foulkes estimate   =    -704.90394261 Ry
     estimated scf accuracy    <       0.00000007 Ry

     iteration # 28     ecut=    40.00 Ry     beta=0.60
     Davidson diagonalization with overlap
     ethr =  9.36E-11,  avg # of iterations =  2.0

     total cpu time spent up to now is     3999.8 secs

     total energy              =    -704.90394260 Ry
     Harris-Foulkes estimate   =    -704.90394261 Ry
     estimated scf accuracy    <       0.00000004 Ry

     iteration # 29     ecut=    40.00 Ry     beta=0.60
     Davidson diagonalization with overlap
     ethr =  4.83E-11,  avg # of iterations =  1.6

     total cpu time spent up to now is     4106.7 secs

     total energy              =    -704.90394260 Ry
     Harris-Foulkes estimate   =    -704.90394261 Ry
     estimated scf accuracy    <          6.4E-09 Ry

     iteration # 30     ecut=    40.00 Ry     beta=0.60
     Davidson diagonalization with overlap
     ethr =  8.43E-12,  avg # of iterations =  4.1

     total cpu time spent up to now is     4247.6 secs

     total energy              =    -704.90394261 Ry
     Harris-Foulkes estimate   =    -704.90394261 Ry
     estimated scf accuracy    <          3.3E-09 Ry

     iteration # 31     ecut=    40.00 Ry     beta=0.60
     Davidson diagonalization with overlap
     ethr =  4.39E-12,  avg # of iterations =  1.0

     total cpu time spent up to now is     4359.4 secs

     total energy              =    -704.90394261 Ry
     Harris-Foulkes estimate   =    -704.90394261 Ry
     estimated scf accuracy    <          4.2E-10 Ry

     iteration # 32     ecut=    40.00 Ry     beta=0.60
     Davidson diagonalization with overlap
     ethr =  5.52E-13,  avg # of iterations =  4.0

     total cpu time spent up to now is     4498.2 secs

     total energy              =    -704.90394261 Ry
     Harris-Foulkes estimate   =    -704.90394261 Ry
     estimated scf accuracy    <          1.2E-10 Ry

     iteration # 33     ecut=    40.00 Ry     beta=0.60
     Davidson diagonalization with overlap
     ethr =  1.53E-13,  avg # of iterations =  1.9

     total cpu time spent up to now is     4607.9 secs

     End of self-consistent calculation

     Number of k-points >= 100: set verbosity='high' to print the bands.

     the Fermi energy is    14.6534 ev

!    total energy              =    -704.90394261 Ry
     Harris-Foulkes estimate   =    -704.90394261 Ry
     estimated scf accuracy    <          1.2E-11 Ry

     The total energy is the sum of the following terms:

     one-electron contribution =    -177.49955630 Ry
     hartree contribution      =     117.46305195 Ry
     xc contribution           =    -102.15596197 Ry
     ewald contribution        =    -542.70690494 Ry
     smearing contrib. (-TS)   =      -0.00457135 Ry

     convergence has been achieved in  33 iterations

     Forces acting on atoms (Ry/au):

     atom    1 type  1   force =    -0.00107000   -0.00061776    0.00000000
     atom    2 type  2   force =     0.00127024    0.00073337    0.00000000
     atom    3 type  2   force =    -0.00126578   -0.00073080    0.00000000
     atom    4 type  1   force =     0.00106957    0.00061752    0.00000000
     atom    5 type  1   force =     0.00262200    0.00151381    0.00000000
     atom    6 type  1   force =    -0.00262604   -0.00151614    0.00000000

     Total force =     0.005070     Total SCF correction =     0.000012


     entering subroutine stress ...

          total   stress  (Ry/bohr**3)                   (kbar)     P= -119.20
  -0.00089367   0.00002774   0.00000000       -131.46      4.08      0.00
   0.00002774  -0.00092569   0.00000000          4.08   -136.17      0.00
   0.00000000   0.00000000  -0.00061146          0.00      0.00    -89.95


     BFGS Geometry Optimization

     number of scf cycles    =   1
     number of bfgs steps    =   0

     enthalpy new            =    -704.9039426057 Ry

     new trust radius        =       0.1316527186 bohr
     new conv_thr            =            1.0E-10 Ry

     new unit-cell volume =    760.19253 a.u.^3 (   112.64891 Ang^3 )

CELL_PARAMETERS (alat=  1.88972599)
   5.957604447   5.156269935   0.000000000
  -7.444262655  -2.581302200   0.000000000
   0.000000000   0.000000000   4.896449154

ATOMIC_POSITIONS (angstrom)
Nb      -1.487212004   2.574648001   4.896449154
Ti      -1.487218353   0.857997461   2.448224577
Ti       1.489660290   2.576700988   4.896449154
Nb      -5.954611246  -1.721253213   2.448224577
Nb      -2.975616564  -0.001327991   4.896449154
Nb       2.978054098   3.436023899   2.448224577


     NEW-OLD atomic charge density approx. for the potential

     Check: negative/imaginary core charge=   -0.000001    0.000000
     extrapolated charge   71.31357, renormalised to   76.00000

     total cpu time spent up to now is     4654.8 secs

     per-process dynamical memory:   260.9 Mb

     Self-consistent Calculation

     iteration #  1     ecut=    40.00 Ry     beta=0.60
     Davidson diagonalization with overlap
     c_bands:  1 eigenvalues not converged
     c_bands:  1 eigenvalues not converged
     c_bands:  1 eigenvalues not converged
     c_bands:  1 eigenvalues not converged
     c_bands:  1 eigenvalues not converged
     c_bands:  1 eigenvalues not converged
     c_bands:  1 eigenvalues not converged
     c_bands:  1 eigenvalues not converged
     c_bands:  1 eigenvalues not converged
     c_bands:  1 eigenvalues not converged
     c_bands:  1 eigenvalues not converged
     c_bands:  1 eigenvalues not converged
     c_bands:  1 eigenvalues not converged
     c_bands:  1 eigenvalues not converged
     c_bands:  1 eigenvalues not converged
     c_bands:  1 eigenvalues not converged
     c_bands:  1 eigenvalues not converged
     c_bands:  1 eigenvalues not converged
     c_bands:  1 eigenvalues not converged
     c_bands:  1 eigenvalues not converged
     c_bands:  1 eigenvalues not converged
     c_bands:  1 eigenvalues not converged
     c_bands:  1 eigenvalues not converged
     c_bands:  2 eigenvalues not converged
     c_bands:  1 eigenvalues not converged
     c_bands:  2 eigenvalues not converged
     c_bands:  2 eigenvalues not converged
     c_bands:  2 eigenvalues not converged
     c_bands:  1 eigenvalues not converged
     c_bands:  1 eigenvalues not converged
     c_bands:  1 eigenvalues not converged
     c_bands:  1 eigenvalues not converged
     c_bands:  1 eigenvalues not converged
     c_bands:  1 eigenvalues not converged
     c_bands:  1 eigenvalues not converged
     c_bands:  1 eigenvalues not converged
     c_bands:  1 eigenvalues not converged
     c_bands:  2 eigenvalues not converged
     c_bands:  3 eigenvalues not converged
     c_bands:  2 eigenvalues not converged
     c_bands:  1 eigenvalues not converged
     c_bands:  2 eigenvalues not converged
     c_bands:  1 eigenvalues not converged
     c_bands:  1 eigenvalues not converged
     c_bands:  1 eigenvalues not converged
     c_bands:  2 eigenvalues not converged
     c_bands:  1 eigenvalues not converged
     c_bands:  1 eigenvalues not converged
     c_bands:  1 eigenvalues not converged
     c_bands:  1 eigenvalues not converged
     c_bands:  1 eigenvalues not converged
     c_bands:  1 eigenvalues not converged
     c_bands:  1 eigenvalues not converged
     c_bands:  1 eigenvalues not converged
     c_bands:  2 eigenvalues not converged
     c_bands:  2 eigenvalues not converged
     c_bands:  2 eigenvalues not converged
     c_bands:  1 eigenvalues not converged
     c_bands:  1 eigenvalues not converged
     c_bands:  1 eigenvalues not converged
     c_bands:  1 eigenvalues not converged
     c_bands:  1 eigenvalues not converged
     c_bands:  1 eigenvalues not converged
     c_bands:  1 eigenvalues not converged
     c_bands:  1 eigenvalues not converged
     c_bands:  1 eigenvalues not converged
     ethr =  1.00E-06,  avg # of iterations = 16.4

     total cpu time spent up to now is     5168.9 secs

     total energy              =    -697.94781060 Ry
     Harris-Foulkes estimate   =    -712.34002117 Ry
     estimated scf accuracy    <       7.58344466 Ry

     iteration #  2     ecut=    40.00 Ry     beta=0.60
     Davidson diagonalization with overlap
     ethr =  9.98E-03,  avg # of iterations =  5.6

     total cpu time spent up to now is     5379.9 secs

     total energy              =    -705.33890940 Ry
     Harris-Foulkes estimate   =    -714.18858852 Ry
     estimated scf accuracy    <      25.00095708 Ry

     iteration #  3     ecut=    40.00 Ry     beta=0.60
     Davidson diagonalization with overlap
     ethr =  9.98E-03,  avg # of iterations =  3.0

     total cpu time spent up to now is     5525.3 secs

     total energy              =    -705.48131055 Ry
     Harris-Foulkes estimate   =    -707.17806093 Ry
     estimated scf accuracy    <      15.76136338 Ry

     iteration #  4     ecut=    40.00 Ry     beta=0.60
     Davidson diagonalization with overlap
     ethr =  9.98E-03,  avg # of iterations =  1.5

     total cpu time spent up to now is     5632.5 secs

     total energy              =    -704.80770871 Ry
     Harris-Foulkes estimate   =    -706.49603209 Ry
     estimated scf accuracy    <       8.16414444 Ry

     iteration #  5     ecut=    40.00 Ry     beta=0.60
     Davidson diagonalization with overlap
     ethr =  9.98E-03,  avg # of iterations =  1.5

     total cpu time spent up to now is     5739.2 secs

     total energy              =    -704.61845157 Ry
     Harris-Foulkes estimate   =    -705.07438658 Ry
     estimated scf accuracy    <       2.63136979 Ry

     iteration #  6     ecut=    40.00 Ry     beta=0.60
     Davidson diagonalization with overlap
     ethr =  3.46E-03,  avg # of iterations =  4.7

     total cpu time spent up to now is     5887.3 secs

     total energy              =    -704.97093444 Ry
     Harris-Foulkes estimate   =    -704.98078635 Ry
     estimated scf accuracy    <       0.19253015 Ry

     iteration #  7     ecut=    40.00 Ry     beta=0.60
     Davidson diagonalization with overlap
     ethr =  2.53E-04,  avg # of iterations =  5.4

     total cpu time spent up to now is     6075.7 secs

     total energy              =    -705.09176066 Ry
     Harris-Foulkes estimate   =    -705.14315484 Ry
     estimated scf accuracy    <       1.37674730 Ry

     iteration #  8     ecut=    40.00 Ry     beta=0.60
     Davidson diagonalization with overlap
     ethr =  2.53E-04,  avg # of iterations =  1.0

     total cpu time spent up to now is     6180.2 secs

     total energy              =    -705.06626533 Ry
     Harris-Foulkes estimate   =    -705.09318952 Ry
     estimated scf accuracy    <       1.20052005 Ry

     iteration #  9     ecut=    40.00 Ry     beta=0.60
     Davidson diagonalization with overlap
     ethr =  2.53E-04,  avg # of iterations =  1.0

     total cpu time spent up to now is     6284.8 secs

     total energy              =    -704.91104906 Ry
     Harris-Foulkes estimate   =    -705.06781813 Ry
     estimated scf accuracy    <       1.04530847 Ry

     iteration # 10     ecut=    40.00 Ry     beta=0.60
     Davidson diagonalization with overlap
     ethr =  2.53E-04,  avg # of iterations =  4.6

     total cpu time spent up to now is     6422.9 secs

     total energy              =    -704.88835986 Ry
     Harris-Foulkes estimate   =    -704.94809923 Ry
     estimated scf accuracy    <       0.17237990 Ry

     iteration # 11     ecut=    40.00 Ry     beta=0.60
     Davidson diagonalization with overlap
     ethr =  2.27E-04,  avg # of iterations =  5.2

     total cpu time spent up to now is     6612.0 secs

     total energy              =    -704.92473365 Ry
     Harris-Foulkes estimate   =    -704.95496962 Ry
     estimated scf accuracy    <       0.31903912 Ry

     iteration # 12     ecut=    40.00 Ry     beta=0.60
     Davidson diagonalization with overlap
     ethr =  2.27E-04,  avg # of iterations =  1.1

     total cpu time spent up to now is     6717.1 secs

     total energy              =    -704.92127932 Ry
     Harris-Foulkes estimate   =    -704.93270774 Ry
     estimated scf accuracy    <       0.06141955 Ry

     iteration # 13     ecut=    40.00 Ry     beta=0.60
     Davidson diagonalization with overlap
     ethr =  8.08E-05,  avg # of iterations =  4.4

     total cpu time spent up to now is     6867.9 secs

     total energy              =    -704.93116125 Ry
     Harris-Foulkes estimate   =    -704.93526047 Ry
     estimated scf accuracy    <       0.02979330 Ry

     iteration # 14     ecut=    40.00 Ry     beta=0.60
     Davidson diagonalization with overlap
     ethr =  3.92E-05,  avg # of iterations =  1.2

     total cpu time spent up to now is     6973.5 secs

     total energy              =    -704.93269322 Ry
     Harris-Foulkes estimate   =    -704.93294802 Ry
     estimated scf accuracy    <       0.00209874 Ry

     iteration # 15     ecut=    40.00 Ry     beta=0.60
     Davidson diagonalization with overlap
     ethr =  2.76E-06,  avg # of iterations =  5.3

     total cpu time spent up to now is     7155.0 secs

     total energy              =    -704.93323649 Ry
     Harris-Foulkes estimate   =    -704.93337070 Ry
     estimated scf accuracy    <       0.00057151 Ry

     iteration # 16     ecut=    40.00 Ry     beta=0.60
     Davidson diagonalization with overlap
     ethr =  7.52E-07,  avg # of iterations =  3.9

     total cpu time spent up to now is     7284.6 secs

     total energy              =    -704.93328948 Ry
     Harris-Foulkes estimate   =    -704.93335761 Ry
     estimated scf accuracy    <       0.00043956 Ry

     iteration # 17     ecut=    40.00 Ry     beta=0.60
     Davidson diagonalization with overlap
     ethr =  5.78E-07,  avg # of iterations =  1.4

     total cpu time spent up to now is     7390.6 secs

     total energy              =    -704.93330892 Ry
     Harris-Foulkes estimate   =    -704.93332198 Ry
     estimated scf accuracy    <       0.00006978 Ry

     iteration # 18     ecut=    40.00 Ry     beta=0.60
     Davidson diagonalization with overlap
     ethr =  9.18E-08,  avg # of iterations =  4.1

     total cpu time spent up to now is     7550.1 secs

     total energy              =    -704.93332364 Ry
     Harris-Foulkes estimate   =    -704.93333842 Ry
     estimated scf accuracy    <       0.00017468 Ry

     iteration # 19     ecut=    40.00 Ry     beta=0.60
     Davidson diagonalization with overlap
     ethr =  9.18E-08,  avg # of iterations =  1.0

     total cpu time spent up to now is     7657.7 secs

     total energy              =    -704.93332367 Ry
     Harris-Foulkes estimate   =    -704.93332770 Ry
     estimated scf accuracy    <       0.00005664 Ry

     iteration # 20     ecut=    40.00 Ry     beta=0.60
     Davidson diagonalization with overlap
     ethr =  7.45E-08,  avg # of iterations =  2.8

     total cpu time spent up to now is     7771.8 secs

     total energy              =    -704.93332523 Ry
     Harris-Foulkes estimate   =    -704.93332589 Ry
     estimated scf accuracy    <       0.00001288 Ry

     iteration # 21     ecut=    40.00 Ry     beta=0.60
     Davidson diagonalization with overlap
     ethr =  1.69E-08,  avg # of iterations =  3.5

     total cpu time spent up to now is     7894.3 secs

     total energy              =    -704.93332555 Ry
     Harris-Foulkes estimate   =    -704.93332611 Ry
     estimated scf accuracy    <       0.00000469 Ry

     iteration # 22     ecut=    40.00 Ry     beta=0.60
     Davidson diagonalization with overlap
     ethr =  6.16E-09,  avg # of iterations =  3.4

     total cpu time spent up to now is     8020.8 secs

     total energy              =    -704.93332594 Ry
     Harris-Foulkes estimate   =    -704.93332598 Ry
     estimated scf accuracy    <       0.00000034 Ry

     iteration # 23     ecut=    40.00 Ry     beta=0.60
     Davidson diagonalization with overlap
     ethr =  4.47E-10,  avg # of iterations =  3.9

     total cpu time spent up to now is     8158.8 secs

     total energy              =    -704.93332600 Ry
     Harris-Foulkes estimate   =    -704.93332601 Ry
     estimated scf accuracy    <       0.00000003 Ry

     iteration # 24     ecut=    40.00 Ry     beta=0.60
     Davidson diagonalization with overlap
     ethr =  3.76E-11,  avg # of iterations =  3.7

     total cpu time spent up to now is     8300.5 secs

     total energy              =    -704.93332600 Ry
     Harris-Foulkes estimate   =    -704.93332600 Ry
     estimated scf accuracy    <          5.2E-09 Ry

     iteration # 25     ecut=    40.00 Ry     beta=0.60
     Davidson diagonalization with overlap
     ethr =  6.89E-12,  avg # of iterations =  2.5

     total cpu time spent up to now is     8422.4 secs

     total energy              =    -704.93332600 Ry
     Harris-Foulkes estimate   =    -704.93332600 Ry
     estimated scf accuracy    <          1.8E-09 Ry

     iteration # 26     ecut=    40.00 Ry     beta=0.60
     Davidson diagonalization with overlap
     ethr =  2.35E-12,  avg # of iterations =  3.5

     total cpu time spent up to now is     8549.9 secs

     total energy              =    -704.93332600 Ry
     Harris-Foulkes estimate   =    -704.93332600 Ry
     estimated scf accuracy    <          5.2E-10 Ry

     iteration # 27     ecut=    40.00 Ry     beta=0.60
     Davidson diagonalization with overlap
     ethr =  6.86E-13,  avg # of iterations =  2.2

     total cpu time spent up to now is     8663.3 secs

     End of self-consistent calculation

     Number of k-points >= 100: set verbosity='high' to print the bands.

     the Fermi energy is    15.7466 ev

!    total energy              =    -704.93332600 Ry
     Harris-Foulkes estimate   =    -704.93332600 Ry
     estimated scf accuracy    <          9.0E-11 Ry

     The total energy is the sum of the following terms:

     one-electron contribution =    -161.25990143 Ry
     hartree contribution      =     112.75445957 Ry
     xc contribution           =    -102.49756703 Ry
     ewald contribution        =    -553.92688802 Ry
     smearing contrib. (-TS)   =      -0.00342910 Ry

     convergence has been achieved in  27 iterations

     Forces acting on atoms (Ry/au):

     atom    1 type  1   force =    -0.00071461   -0.00041258    0.00000000
     atom    2 type  2   force =     0.00057173    0.00033009    0.00000000
     atom    3 type  2   force =    -0.00056989   -0.00032903    0.00000000
     atom    4 type  1   force =     0.00071298    0.00041164    0.00000000
     atom    5 type  1   force =     0.00243902    0.00140817    0.00000000
     atom    6 type  1   force =    -0.00243923   -0.00140829    0.00000000

     Total force =     0.004254     Total SCF correction =     0.000034


     entering subroutine stress ...

          total   stress  (Ry/bohr**3)                   (kbar)     P=  -48.68
  -0.00042670   0.00002948   0.00000000        -62.77      4.34      0.00
   0.00002948  -0.00046075   0.00000000          4.34    -67.78      0.00
   0.00000000   0.00000000  -0.00010524          0.00      0.00    -15.48


     number of scf cycles    =   2
     number of bfgs steps    =   1

     enthalpy old            =    -704.9039426057 Ry
     enthalpy new            =    -704.9333260047 Ry

     CASE: enthalpy_new < enthalpy_old

     new trust radius        =       0.1125797983 bohr
     new conv_thr            =            1.0E-10 Ry

     new unit-cell volume =    726.98373 a.u.^3 (   107.72787 Ang^3 )

CELL_PARAMETERS (alat=  1.88972599)
   5.851815461   5.058932157   0.000000000
  -7.307071167  -2.538355147   0.000000000
   0.000000000   0.000000000   4.871922013

ATOMIC_POSITIONS (angstrom)
Nb      -1.456428579   2.519899852   4.871922013
Ti      -1.457517934   0.838884558   2.435961007
Ti       1.464366128   2.525836914   4.871922013
Nb      -5.843799930  -1.693536722   2.435961007
Nb      -2.917317997  -0.003929784   4.871922013
Nb       2.924159948   3.368647652   2.435961007


     NEW-OLD atomic charge density approx. for the potential

     Check: negative/imaginary core charge=   -0.000001    0.000000
     extrapolated charge   72.62017, renormalised to   76.00000

     total cpu time spent up to now is     8710.2 secs

     per-process dynamical memory:   263.2 Mb

     Self-consistent Calculation

     iteration #  1     ecut=    40.00 Ry     beta=0.60
     Davidson diagonalization with overlap
     c_bands:  1 eigenvalues not converged
     c_bands:  1 eigenvalues not converged
     c_bands:  1 eigenvalues not converged
     c_bands:  1 eigenvalues not converged
     c_bands:  1 eigenvalues not converged
     c_bands:  1 eigenvalues not converged
     c_bands:  1 eigenvalues not converged
     c_bands:  1 eigenvalues not converged
     c_bands:  1 eigenvalues not converged
     c_bands:  1 eigenvalues not converged
     c_bands:  1 eigenvalues not converged
     c_bands:  1 eigenvalues not converged
     c_bands:  2 eigenvalues not converged
     c_bands:  1 eigenvalues not converged
     c_bands:  1 eigenvalues not converged
     c_bands:  2 eigenvalues not converged
     c_bands:  2 eigenvalues not converged
     c_bands:  1 eigenvalues not converged
     c_bands:  1 eigenvalues not converged
     c_bands:  1 eigenvalues not converged
     c_bands:  1 eigenvalues not converged
     c_bands:  1 eigenvalues not converged
     c_bands:  1 eigenvalues not converged
     c_bands:  2 eigenvalues not converged
     c_bands:  2 eigenvalues not converged
     c_bands:  1 eigenvalues not converged
     c_bands:  1 eigenvalues not converged
     c_bands:  1 eigenvalues not converged
     c_bands:  1 eigenvalues not converged
     c_bands:  1 eigenvalues not converged
     c_bands:  1 eigenvalues not converged
     c_bands:  1 eigenvalues not converged
     c_bands:  1 eigenvalues not converged
     c_bands:  2 eigenvalues not converged
     c_bands:  1 eigenvalues not converged
     c_bands:  1 eigenvalues not converged
     c_bands:  2 eigenvalues not converged
     c_bands:  1 eigenvalues not converged
     ethr =  1.00E-06,  avg # of iterations = 13.9

     total cpu time spent up to now is     9184.6 secs

     total energy              =    -702.75550361 Ry
     Harris-Foulkes estimate   =    -709.82646365 Ry
     estimated scf accuracy    <       2.26054527 Ry

     iteration #  2     ecut=    40.00 Ry     beta=0.60
     Davidson diagonalization with overlap
     ethr =  2.97E-03,  avg # of iterations =  6.2

     total cpu time spent up to now is     9415.7 secs

     total energy              =    -704.80646520 Ry
     Harris-Foulkes estimate   =    -708.41003704 Ry
     estimated scf accuracy    <      11.93243789 Ry

     iteration #  3     ecut=    40.00 Ry     beta=0.60
     Davidson diagonalization with overlap
     ethr =  2.97E-03,  avg # of iterations =  4.5

     total cpu time spent up to now is     9583.0 secs

     total energy              =    -704.94759043 Ry
     Harris-Foulkes estimate   =    -705.59452447 Ry
     estimated scf accuracy    <       4.96845495 Ry

     iteration #  4     ecut=    40.00 Ry     beta=0.60
     Davidson diagonalization with overlap
     ethr =  2.97E-03,  avg # of iterations =  2.8

     total cpu time spent up to now is     9699.1 secs

     total energy              =    -704.86097329 Ry
     Harris-Foulkes estimate   =    -705.39472222 Ry
     estimated scf accuracy    <       3.76716784 Ry

     iteration #  5     ecut=    40.00 Ry     beta=0.60
     Davidson diagonalization with overlap
     ethr =  2.97E-03,  avg # of iterations =  1.5

     total cpu time spent up to now is     9805.9 secs

     total energy              =    -704.88721555 Ry
     Harris-Foulkes estimate   =    -704.98426346 Ry
     estimated scf accuracy    <       0.84947408 Ry

     iteration #  6     ecut=    40.00 Ry     beta=0.60
     Davidson diagonalization with overlap
     ethr =  1.12E-03,  avg # of iterations =  3.8

     total cpu time spent up to now is     9931.9 secs

     total energy              =    -704.96526060 Ry
     Harris-Foulkes estimate   =    -704.95160620 Ry
     estimated scf accuracy    <       0.10848202 Ry

     iteration #  7     ecut=    40.00 Ry     beta=0.60
     Davidson diagonalization with overlap
     ethr =  1.43E-04,  avg # of iterations =  5.2

     total cpu time spent up to now is    10077.5 secs

     total energy              =    -704.95900966 Ry
     Harris-Foulkes estimate   =    -704.97856169 Ry
     estimated scf accuracy    <       0.26565405 Ry

     iteration #  8     ecut=    40.00 Ry     beta=0.60
     Davidson diagonalization with overlap
     ethr =  1.43E-04,  avg # of iterations =  1.1

     total cpu time spent up to now is    10183.0 secs

     total energy              =    -704.95300662 Ry
     Harris-Foulkes estimate   =    -704.96075938 Ry
     estimated scf accuracy    <       0.17386229 Ry

     iteration #  9     ecut=    40.00 Ry     beta=0.60
     Davidson diagonalization with overlap
     ethr =  1.43E-04,  avg # of iterations =  1.0

     total cpu time spent up to now is    10287.9 secs

     total energy              =    -704.94014549 Ry
     Harris-Foulkes estimate   =    -704.95406889 Ry
     estimated scf accuracy    <       0.12273182 Ry

     iteration # 10     ecut=    40.00 Ry     beta=0.60
     Davidson diagonalization with overlap
     ethr =  1.43E-04,  avg # of iterations =  1.1

     total cpu time spent up to now is    10392.6 secs

     total energy              =    -704.92805883 Ry
     Harris-Foulkes estimate   =    -704.94222197 Ry
     estimated scf accuracy    <       0.05259983 Ry

     iteration # 11     ecut=    40.00 Ry     beta=0.60
     Davidson diagonalization with overlap
     ethr =  6.92E-05,  avg # of iterations =  5.0

     total cpu time spent up to now is    10566.2 secs

     total energy              =    -704.93925542 Ry
     Harris-Foulkes estimate   =    -704.94227829 Ry
     estimated scf accuracy    <       0.02763608 Ry

     iteration # 12     ecut=    40.00 Ry     beta=0.60
     Davidson diagonalization with overlap
     ethr =  3.64E-05,  avg # of iterations =  1.1

     total cpu time spent up to now is    10671.1 secs

     total energy              =    -704.93940432 Ry
     Harris-Foulkes estimate   =    -704.94003855 Ry
     estimated scf accuracy    <       0.00627139 Ry

     iteration # 13     ecut=    40.00 Ry     beta=0.60
     Davidson diagonalization with overlap
     ethr =  8.25E-06,  avg # of iterations =  4.1

     total cpu time spent up to now is    10811.0 secs

     total energy              =    -704.94014032 Ry
     Harris-Foulkes estimate   =    -704.94015843 Ry
     estimated scf accuracy    <       0.00010593 Ry

     iteration # 14     ecut=    40.00 Ry     beta=0.60
     Davidson diagonalization with overlap
     ethr =  1.39E-07,  avg # of iterations =  4.6

     total cpu time spent up to now is    10961.6 secs

     total energy              =    -704.94017845 Ry
     Harris-Foulkes estimate   =    -704.94017542 Ry
     estimated scf accuracy    <       0.00008733 Ry

     iteration # 15     ecut=    40.00 Ry     beta=0.60
     Davidson diagonalization with overlap
     ethr =  1.15E-07,  avg # of iterations =  4.1

     total cpu time spent up to now is    11105.9 secs

     total energy              =    -704.94015897 Ry
     Harris-Foulkes estimate   =    -704.94021357 Ry
     estimated scf accuracy    <       0.00062959 Ry

     iteration # 16     ecut=    40.00 Ry     beta=0.60
     Davidson diagonalization with overlap
     ethr =  1.15E-07,  avg # of iterations =  3.4

     total cpu time spent up to now is    11223.9 secs

     total energy              =    -704.94016231 Ry
     Harris-Foulkes estimate   =    -704.94017304 Ry
     estimated scf accuracy    <       0.00013545 Ry

     iteration # 17     ecut=    40.00 Ry     beta=0.60
     Davidson diagonalization with overlap
     ethr =  1.15E-07,  avg # of iterations =  2.9

     total cpu time spent up to now is    11342.2 secs

     total energy              =    -704.94016585 Ry
     Harris-Foulkes estimate   =    -704.94016855 Ry
     estimated scf accuracy    <       0.00002577 Ry

     iteration # 18     ecut=    40.00 Ry     beta=0.60
     Davidson diagonalization with overlap
     ethr =  3.39E-08,  avg # of iterations =  3.4

     total cpu time spent up to now is    11465.2 secs

     total energy              =    -704.94016771 Ry
     Harris-Foulkes estimate   =    -704.94016840 Ry
     estimated scf accuracy    <       0.00000778 Ry

     iteration # 19     ecut=    40.00 Ry     beta=0.60
     Davidson diagonalization with overlap
     ethr =  1.02E-08,  avg # of iterations =  2.4

     total cpu time spent up to now is    11578.0 secs

     total energy              =    -704.94016739 Ry
     Harris-Foulkes estimate   =    -704.94016868 Ry
     estimated scf accuracy    <       0.00000817 Ry

     iteration # 20     ecut=    40.00 Ry     beta=0.60
     Davidson diagonalization with overlap
     ethr =  1.02E-08,  avg # of iterations =  1.9

     total cpu time spent up to now is    11686.5 secs

     total energy              =    -704.94016799 Ry
     Harris-Foulkes estimate   =    -704.94016800 Ry
     estimated scf accuracy    <       0.00000010 Ry

     iteration # 21     ecut=    40.00 Ry     beta=0.60
     Davidson diagonalization with overlap
     ethr =  1.31E-10,  avg # of iterations =  5.3

     total cpu time spent up to now is    11868.2 secs

     total energy              =    -704.94016814 Ry
     Harris-Foulkes estimate   =    -704.94016817 Ry
     estimated scf accuracy    <       0.00000035 Ry

     iteration # 22     ecut=    40.00 Ry     beta=0.60
     Davidson diagonalization with overlap
     ethr =  1.31E-10,  avg # of iterations =  1.8

     total cpu time spent up to now is    11976.2 secs

     total energy              =    -704.94016813 Ry
     Harris-Foulkes estimate   =    -704.94016815 Ry
     estimated scf accuracy    <       0.00000009 Ry

     iteration # 23     ecut=    40.00 Ry     beta=0.60
     Davidson diagonalization with overlap
     ethr =  1.12E-10,  avg # of iterations =  3.6

     total cpu time spent up to now is    12111.0 secs

     total energy              =    -704.94016814 Ry
     Harris-Foulkes estimate   =    -704.94016815 Ry
     estimated scf accuracy    <       0.00000001 Ry

     iteration # 24     ecut=    40.00 Ry     beta=0.60
     Davidson diagonalization with overlap
     ethr =  1.64E-11,  avg # of iterations =  1.9

     total cpu time spent up to now is    12219.8 secs

     total energy              =    -704.94016815 Ry
     Harris-Foulkes estimate   =    -704.94016815 Ry
     estimated scf accuracy    <          4.0E-09 Ry

     iteration # 25     ecut=    40.00 Ry     beta=0.60
     Davidson diagonalization with overlap
     ethr =  5.23E-12,  avg # of iterations =  2.9

     total cpu time spent up to now is    12338.4 secs

     total energy              =    -704.94016815 Ry
     Harris-Foulkes estimate   =    -704.94016815 Ry
     estimated scf accuracy    <          7.4E-10 Ry

     iteration # 26     ecut=    40.00 Ry     beta=0.60
     Davidson diagonalization with overlap
     ethr =  9.77E-13,  avg # of iterations =  3.2

     total cpu time spent up to now is    12459.1 secs

     total energy              =    -704.94016815 Ry
     Harris-Foulkes estimate   =    -704.94016815 Ry
     estimated scf accuracy    <          2.0E-10 Ry

     iteration # 27     ecut=    40.00 Ry     beta=0.60
     Davidson diagonalization with overlap
     ethr =  2.61E-13,  avg # of iterations =  2.6

     total cpu time spent up to now is    12574.8 secs

     total energy              =    -704.94016815 Ry
     Harris-Foulkes estimate   =    -704.94016815 Ry
     estimated scf accuracy    <          1.4E-10 Ry

     iteration # 28     ecut=    40.00 Ry     beta=0.60
     Davidson diagonalization with overlap
     ethr =  1.78E-13,  avg # of iterations =  3.4

     total cpu time spent up to now is    12702.8 secs

     End of self-consistent calculation

     Number of k-points >= 100: set verbosity='high' to print the bands.

     the Fermi energy is    16.5739 ev

!    total energy              =    -704.94016815 Ry
     Harris-Foulkes estimate   =    -704.94016815 Ry
     estimated scf accuracy    <          3.0E-11 Ry

     The total energy is the sum of the following terms:

     one-electron contribution =    -149.38784580 Ry
     hartree contribution      =     109.41354916 Ry
     xc contribution           =    -102.76491354 Ry
     ewald contribution        =    -562.19848188 Ry
     smearing contrib. (-TS)   =      -0.00247609 Ry

     convergence has been achieved in  28 iterations

     Forces acting on atoms (Ry/au):

     atom    1 type  1   force =     0.00023991    0.00013851    0.00000000
     atom    2 type  2   force =    -0.00051313   -0.00029625    0.00000000
     atom    3 type  2   force =     0.00051545    0.00029759    0.00000000
     atom    4 type  1   force =    -0.00024279   -0.00014018    0.00000000
     atom    5 type  1   force =     0.00228214    0.00131759    0.00000000
     atom    6 type  1   force =    -0.00228158   -0.00131727    0.00000000

     Total force =     0.003840     Total SCF correction =     0.000022


     entering subroutine stress ...

          total   stress  (Ry/bohr**3)                   (kbar)     P=   13.28
  -0.00000348   0.00003452   0.00000000         -0.51      5.08      0.00
   0.00003452  -0.00004334   0.00000000          5.08     -6.38      0.00
   0.00000000   0.00000000   0.00031764          0.00      0.00     46.73


     number of scf cycles    =   3
     number of bfgs steps    =   2

     enthalpy old            =    -704.9333260047 Ry
     enthalpy new            =    -704.9401681453 Ry

     CASE: enthalpy_new < enthalpy_old

     new trust radius        =       0.0342800581 bohr
     new conv_thr            =            1.0E-10 Ry

     new unit-cell volume =    727.84360 a.u.^3 (   107.85529 Ang^3 )

CELL_PARAMETERS (alat=  1.88972599)
   5.844588285   5.048633926   0.000000000
  -7.294539048  -2.537245345   0.000000000
   0.000000000   0.000000000   4.902892607

ATOMIC_POSITIONS (angstrom)
Nb      -1.451063079   2.510746385   4.902892607
Ti      -1.453960103   0.834813059   2.451446304
Ti       1.463919033   2.519453165   4.902892607
Nb      -5.833525296  -1.693730273   2.451446304
Nb      -2.910128497  -0.005904544   4.902892607
Nb       2.920080083   3.360166527   2.451446304


     NEW-OLD atomic charge density approx. for the potential

     Check: negative/imaginary core charge=   -0.000001    0.000000
     extrapolated charge   76.08741, renormalised to   76.00000

     total cpu time spent up to now is    12749.7 secs

     per-process dynamical memory:   260.9 Mb

     Self-consistent Calculation

     iteration #  1     ecut=    40.00 Ry     beta=0.60
     Davidson diagonalization with overlap
     c_bands:  1 eigenvalues not converged
     ethr =  1.00E-06,  avg # of iterations =  4.8

     total cpu time spent up to now is    13022.5 secs

     total energy              =    -704.94117431 Ry
     Harris-Foulkes estimate   =    -704.81951441 Ry
     estimated scf accuracy    <       0.00050522 Ry

     iteration #  2     ecut=    40.00 Ry     beta=0.60
     Davidson diagonalization with overlap
     c_bands:  1 eigenvalues not converged
     ethr =  6.65E-07,  avg # of iterations =  5.7

     total cpu time spent up to now is    13277.5 secs

     total energy              =    -704.94069148 Ry
     Harris-Foulkes estimate   =    -704.94308303 Ry
     estimated scf accuracy    <       0.01872255 Ry

     iteration #  3     ecut=    40.00 Ry     beta=0.60
     Davidson diagonalization with overlap
     ethr =  6.65E-07,  avg # of iterations =  4.9

     total cpu time spent up to now is    13470.4 secs

     total energy              =    -704.94154567 Ry
     Harris-Foulkes estimate   =    -704.94189416 Ry
     estimated scf accuracy    <       0.00178820 Ry

     iteration #  4     ecut=    40.00 Ry     beta=0.60
     Davidson diagonalization with overlap
     ethr =  6.65E-07,  avg # of iterations =  4.1

     total cpu time spent up to now is    13618.1 secs

     total energy              =    -704.94164738 Ry
     Harris-Foulkes estimate   =    -704.94185433 Ry
     estimated scf accuracy    <       0.00183503 Ry

     iteration #  5     ecut=    40.00 Ry     beta=0.60
     Davidson diagonalization with overlap
     ethr =  6.65E-07,  avg # of iterations =  3.0

     total cpu time spent up to now is    13737.9 secs

     total energy              =    -704.94170774 Ry
     Harris-Foulkes estimate   =    -704.94173800 Ry
     estimated scf accuracy    <       0.00015926 Ry

     iteration #  6     ecut=    40.00 Ry     beta=0.60
     Davidson diagonalization with overlap
     ethr =  2.10E-07,  avg # of iterations =  3.8

     total cpu time spent up to now is    13869.4 secs

     total energy              =    -704.94169156 Ry
     Harris-Foulkes estimate   =    -704.94174617 Ry
     estimated scf accuracy    <       0.00065964 Ry

     iteration #  7     ecut=    40.00 Ry     beta=0.60
     Davidson diagonalization with overlap
     ethr =  2.10E-07,  avg # of iterations =  2.8

     total cpu time spent up to now is    13981.3 secs

     total energy              =    -704.94171462 Ry
     Harris-Foulkes estimate   =    -704.94171651 Ry
     estimated scf accuracy    <       0.00001927 Ry

     iteration #  8     ecut=    40.00 Ry     beta=0.60
     Davidson diagonalization with overlap
     ethr =  2.54E-08,  avg # of iterations =  4.1

     total cpu time spent up to now is    14122.0 secs

     total energy              =    -704.94171795 Ry
     Harris-Foulkes estimate   =    -704.94171833 Ry
     estimated scf accuracy    <       0.00000657 Ry

     iteration #  9     ecut=    40.00 Ry     beta=0.60
     Davidson diagonalization with overlap
     ethr =  8.64E-09,  avg # of iterations =  1.1

     total cpu time spent up to now is    14226.6 secs

     total energy              =    -704.94171794 Ry
     Harris-Foulkes estimate   =    -704.94171815 Ry
     estimated scf accuracy    <       0.00000304 Ry

     iteration # 10     ecut=    40.00 Ry     beta=0.60
     Davidson diagonalization with overlap
     ethr =  4.00E-09,  avg # of iterations =  1.0

     total cpu time spent up to now is    14331.0 secs

     total energy              =    -704.94171789 Ry
     Harris-Foulkes estimate   =    -704.94171805 Ry
     estimated scf accuracy    <       0.00000118 Ry

     iteration # 11     ecut=    40.00 Ry     beta=0.60
     Davidson diagonalization with overlap
     ethr =  1.56E-09,  avg # of iterations =  3.4

     total cpu time spent up to now is    14453.0 secs

     total energy              =    -704.94171800 Ry
     Harris-Foulkes estimate   =    -704.94171802 Ry
     estimated scf accuracy    <       0.00000017 Ry

     iteration # 12     ecut=    40.00 Ry     beta=0.60
     Davidson diagonalization with overlap
     ethr =  2.28E-10,  avg # of iterations =  3.0

     total cpu time spent up to now is    14574.6 secs

     total energy              =    -704.94171802 Ry
     Harris-Foulkes estimate   =    -704.94171802 Ry
     estimated scf accuracy    <       0.00000003 Ry

     iteration # 13     ecut=    40.00 Ry     beta=0.60
     Davidson diagonalization with overlap
     ethr =  4.12E-11,  avg # of iterations =  2.8

     total cpu time spent up to now is    14697.1 secs

     total energy              =    -704.94171802 Ry
     Harris-Foulkes estimate   =    -704.94171802 Ry
     estimated scf accuracy    <          4.8E-09 Ry

     iteration # 14     ecut=    40.00 Ry     beta=0.60
     Davidson diagonalization with overlap
     ethr =  6.27E-12,  avg # of iterations =  4.0

     total cpu time spent up to now is    14836.8 secs

     total energy              =    -704.94171802 Ry
     Harris-Foulkes estimate   =    -704.94171802 Ry
     estimated scf accuracy    <          2.8E-09 Ry

     iteration # 15     ecut=    40.00 Ry     beta=0.60
     Davidson diagonalization with overlap
     ethr =  3.74E-12,  avg # of iterations =  1.2

     total cpu time spent up to now is    14941.7 secs

     total energy              =    -704.94171802 Ry
     Harris-Foulkes estimate   =    -704.94171802 Ry
     estimated scf accuracy    <          2.7E-10 Ry

     iteration # 16     ecut=    40.00 Ry     beta=0.60
     Davidson diagonalization with overlap
     ethr =  3.49E-13,  avg # of iterations =  4.2

     total cpu time spent up to now is    15086.6 secs

     total energy              =    -704.94171802 Ry
     Harris-Foulkes estimate   =    -704.94171802 Ry
     estimated scf accuracy    <          2.1E-10 Ry

     iteration # 17     ecut=    40.00 Ry     beta=0.60
     Davidson diagonalization with overlap
     ethr =  2.71E-13,  avg # of iterations =  1.0

     total cpu time spent up to now is    15191.0 secs

     End of self-consistent calculation

     Number of k-points >= 100: set verbosity='high' to print the bands.

     the Fermi energy is    16.5449 ev

!    total energy              =    -704.94171802 Ry
     Harris-Foulkes estimate   =    -704.94171802 Ry
     estimated scf accuracy    <          1.1E-11 Ry

     The total energy is the sum of the following terms:

     one-electron contribution =    -149.79093701 Ry
     hartree contribution      =     109.54810178 Ry
     xc contribution           =    -102.76078850 Ry
     ewald contribution        =    -561.93578105 Ry
     smearing contrib. (-TS)   =      -0.00231324 Ry

     convergence has been achieved in  17 iterations

     Forces acting on atoms (Ry/au):

     atom    1 type  1   force =     0.00075785    0.00043754    0.00000000
     atom    2 type  2   force =    -0.00104311   -0.00060224    0.00000000
     atom    3 type  2   force =     0.00104572    0.00060375    0.00000000
     atom    4 type  1   force =    -0.00075969   -0.00043861    0.00000000
     atom    5 type  1   force =     0.00248582    0.00143519    0.00000000
     atom    6 type  1   force =    -0.00248659   -0.00143563    0.00000000

     Total force =     0.004575     Total SCF correction =     0.000014


     entering subroutine stress ...

          total   stress  (Ry/bohr**3)                   (kbar)     P=   10.79
  -0.00000667   0.00003760   0.00000000         -0.98      5.53      0.00
   0.00003760  -0.00005009   0.00000000          5.53     -7.37      0.00
   0.00000000   0.00000000   0.00027680          0.00      0.00     40.72


     number of scf cycles    =   4
     number of bfgs steps    =   3

     enthalpy old            =    -704.9401681453 Ry
     enthalpy new            =    -704.9417180191 Ry

     CASE: enthalpy_new < enthalpy_old


     WARNING: bfgs curvature condition failed, Theta= 0.892
     new trust radius        =       0.0511254851 bohr
     new conv_thr            =            1.0E-10 Ry

     new unit-cell volume =    728.20604 a.u.^3 (   107.90900 Ang^3 )

CELL_PARAMETERS (alat=  1.88972599)
   5.832786649   5.031095452   0.000000000
  -7.273449465  -2.535794066   0.000000000
   0.000000000   0.000000000   4.949348499

ATOMIC_POSITIONS (angstrom)
Nb      -1.441333011   2.494914449   4.949348499
Ti      -1.448162218   0.827435684   2.474674249
Ti       1.463756843   2.508634728   4.949348499
Nb      -5.816534191  -1.694645241   2.474674249
Nb      -2.897772701  -0.009495718   4.949348499
Nb       2.913357081   3.345560215   2.474674249


     NEW-OLD atomic charge density approx. for the potential

     Check: negative/imaginary core charge=   -0.000001    0.000000
     extrapolated charge   76.03683, renormalised to   76.00000

     total cpu time spent up to now is    15237.6 secs

     per-process dynamical memory:   260.9 Mb

     Self-consistent Calculation

     iteration #  1     ecut=    40.00 Ry     beta=0.60
     Davidson diagonalization with overlap
     c_bands:  1 eigenvalues not converged
     c_bands:  1 eigenvalues not converged
     ethr =  1.00E-06,  avg # of iterations =  5.9

     total cpu time spent up to now is    15532.6 secs

     total energy              =    -704.94362343 Ry
     Harris-Foulkes estimate   =    -704.89216687 Ry
     estimated scf accuracy    <       0.00028039 Ry

     iteration #  2     ecut=    40.00 Ry     beta=0.60
     Davidson diagonalization with overlap
     ethr =  3.69E-07,  avg # of iterations =  5.1

     total cpu time spent up to now is    15733.7 secs

     total energy              =    -704.94313703 Ry
     Harris-Foulkes estimate   =    -704.94435282 Ry
     estimated scf accuracy    <       0.01163006 Ry

     iteration #  3     ecut=    40.00 Ry     beta=0.60
     Davidson diagonalization with overlap
     ethr =  3.69E-07,  avg # of iterations =  4.6

     total cpu time spent up to now is    15902.6 secs

     total energy              =    -704.94371286 Ry
     Harris-Foulkes estimate   =    -704.94379112 Ry
     estimated scf accuracy    <       0.00027461 Ry

     iteration #  4     ecut=    40.00 Ry     beta=0.60
     Davidson diagonalization with overlap
     ethr =  3.61E-07,  avg # of iterations =  3.9

     total cpu time spent up to now is    16045.0 secs

     total energy              =    -704.94369148 Ry
     Harris-Foulkes estimate   =    -704.94382010 Ry
     estimated scf accuracy    <       0.00073734 Ry

     iteration #  5     ecut=    40.00 Ry     beta=0.60
     Davidson diagonalization with overlap
     ethr =  3.61E-07,  avg # of iterations =  3.7

     total cpu time spent up to now is    16180.3 secs

     total energy              =    -704.94375747 Ry
     Harris-Foulkes estimate   =    -704.94376402 Ry
     estimated scf accuracy    <       0.00002729 Ry

     iteration #  6     ecut=    40.00 Ry     beta=0.60
     Davidson diagonalization with overlap
     ethr =  3.59E-08,  avg # of iterations =  4.5

     total cpu time spent up to now is    16335.4 secs

     total energy              =    -704.94373903 Ry
     Harris-Foulkes estimate   =    -704.94378732 Ry
     estimated scf accuracy    <       0.00061930 Ry

     iteration #  7     ecut=    40.00 Ry     beta=0.60
     Davidson diagonalization with overlap
     ethr =  3.59E-08,  avg # of iterations =  4.1

     total cpu time spent up to now is    16480.9 secs

     total energy              =    -704.94376304 Ry
     Harris-Foulkes estimate   =    -704.94376314 Ry
     estimated scf accuracy    <       0.00000049 Ry

     iteration #  8     ecut=    40.00 Ry     beta=0.60
     Davidson diagonalization with overlap
     ethr =  6.41E-10,  avg # of iterations =  3.6

     total cpu time spent up to now is    16621.7 secs

     total energy              =    -704.94376304 Ry
     Harris-Foulkes estimate   =    -704.94376321 Ry
     estimated scf accuracy    <       0.00000051 Ry

     iteration #  9     ecut=    40.00 Ry     beta=0.60
     Davidson diagonalization with overlap
     ethr =  6.41E-10,  avg # of iterations =  3.8

     total cpu time spent up to now is    16762.1 secs

     total energy              =    -704.94376307 Ry
     Harris-Foulkes estimate   =    -704.94376327 Ry
     estimated scf accuracy    <       0.00000141 Ry

     iteration # 10     ecut=    40.00 Ry     beta=0.60
     Davidson diagonalization with overlap
     ethr =  6.41E-10,  avg # of iterations =  3.0

     total cpu time spent up to now is    16883.1 secs

     total energy              =    -704.94376316 Ry
     Harris-Foulkes estimate   =    -704.94376317 Ry
     estimated scf accuracy    <       0.00000003 Ry

     iteration # 11     ecut=    40.00 Ry     beta=0.60
     Davidson diagonalization with overlap
     ethr =  3.60E-11,  avg # of iterations =  3.9

     total cpu time spent up to now is    17030.9 secs

     total energy              =    -704.94376317 Ry
     Harris-Foulkes estimate   =    -704.94376317 Ry
     estimated scf accuracy    <       0.00000002 Ry

     iteration # 12     ecut=    40.00 Ry     beta=0.60
     Davidson diagonalization with overlap
     ethr =  2.37E-11,  avg # of iterations =  2.5

     total cpu time spent up to now is    17147.5 secs

     total energy              =    -704.94376317 Ry
     Harris-Foulkes estimate   =    -704.94376317 Ry
     estimated scf accuracy    <          2.3E-09 Ry

     iteration # 13     ecut=    40.00 Ry     beta=0.60
     Davidson diagonalization with overlap
     ethr =  2.97E-12,  avg # of iterations =  3.2

     total cpu time spent up to now is    17279.3 secs

     total energy              =    -704.94376317 Ry
     Harris-Foulkes estimate   =    -704.94376317 Ry
     estimated scf accuracy    <          4.9E-10 Ry

     iteration # 14     ecut=    40.00 Ry     beta=0.60
     Davidson diagonalization with overlap
     ethr =  6.48E-13,  avg # of iterations =  2.0

     total cpu time spent up to now is    17390.5 secs

     End of self-consistent calculation

     Number of k-points >= 100: set verbosity='high' to print the bands.

     the Fermi energy is    16.5252 ev

!    total energy              =    -704.94376317 Ry
     Harris-Foulkes estimate   =    -704.94376317 Ry
     estimated scf accuracy    <          6.9E-11 Ry

     The total energy is the sum of the following terms:

     one-electron contribution =    -150.11561120 Ry
     hartree contribution      =     109.68664152 Ry
     xc contribution           =    -102.76414420 Ry
     ewald contribution        =    -561.74860814 Ry
     smearing contrib. (-TS)   =      -0.00204115 Ry

     convergence has been achieved in  14 iterations

     Forces acting on atoms (Ry/au):

     atom    1 type  1   force =     0.00197716    0.00114151    0.00000000
     atom    2 type  2   force =    -0.00188337   -0.00108737    0.00000000
     atom    3 type  2   force =     0.00188499    0.00108830    0.00000000
     atom    4 type  1   force =    -0.00197773   -0.00114184    0.00000000
     atom    5 type  1   force =     0.00259458    0.00149798    0.00000000
     atom    6 type  1   force =    -0.00259562   -0.00149858    0.00000000

     Total force =     0.006153     Total SCF correction =     0.000025


     entering subroutine stress ...

          total   stress  (Ry/bohr**3)                   (kbar)     P=    9.09
   0.00000395   0.00004012   0.00000000          0.58      5.90      0.00
   0.00004012  -0.00004238   0.00000000          5.90     -6.23      0.00
   0.00000000   0.00000000   0.00022381          0.00      0.00     32.92


     number of scf cycles    =   5
     number of bfgs steps    =   4

     enthalpy old            =    -704.9417180191 Ry
     enthalpy new            =    -704.9437631721 Ry

     CASE: enthalpy_new < enthalpy_old

     new trust radius        =       0.0759873245 bohr
     new conv_thr            =            1.0E-10 Ry

     new unit-cell volume =    728.86379 a.u.^3 (   108.00647 Ang^3 )

CELL_PARAMETERS (alat=  1.88972599)
   5.819978956   5.007110580   0.000000000
  -7.246274108  -2.536694716   0.000000000
   0.000000000   0.000000000   5.019032336

ATOMIC_POSITIONS (angstrom)
Nb      -1.425129692   2.471088744   5.019032336
Ti      -1.440656033   0.815179050   2.509516168
Ti       1.466178798   2.493442696   5.019032336
Nb      -5.795638921  -1.699171683   2.509516168
Nb      -2.880093864  -0.015879186   5.019032336
Nb       2.905602153   3.324492575   2.509516168


     NEW-OLD atomic charge density approx. for the potential

     Check: negative/imaginary core charge=   -0.000001    0.000000
     extrapolated charge   76.06677, renormalised to   76.00000

     total cpu time spent up to now is    17437.4 secs

     per-process dynamical memory:   263.2 Mb

     Self-consistent Calculation

     iteration #  1     ecut=    40.00 Ry     beta=0.60
     Davidson diagonalization with overlap
     c_bands:  1 eigenvalues not converged
     c_bands:  1 eigenvalues not converged
     ethr =  1.00E-06,  avg # of iterations =  8.0

     total cpu time spent up to now is    17758.8 secs

     total energy              =    -704.94552506 Ry
     Harris-Foulkes estimate   =    -704.85205805 Ry
     estimated scf accuracy    <       0.00087610 Ry

     iteration #  2     ecut=    40.00 Ry     beta=0.60
     Davidson diagonalization with overlap
     ethr =  1.15E-06,  avg # of iterations =  5.5

     total cpu time spent up to now is    17984.0 secs

     total energy              =    -704.94361490 Ry
     Harris-Foulkes estimate   =    -704.94843289 Ry
     estimated scf accuracy    <       0.04748859 Ry

     iteration #  3     ecut=    40.00 Ry     beta=0.60
     Davidson diagonalization with overlap
     ethr =  1.15E-06,  avg # of iterations =  5.2

     total cpu time spent up to now is    18176.6 secs

     total energy              =    -704.94591562 Ry
     Harris-Foulkes estimate   =    -704.94609942 Ry
     estimated scf accuracy    <       0.00052063 Ry

     iteration #  4     ecut=    40.00 Ry     beta=0.60
     Davidson diagonalization with overlap
     ethr =  6.85E-07,  avg # of iterations =  4.0

     total cpu time spent up to now is    18323.9 secs

     total energy              =    -704.94585094 Ry
     Harris-Foulkes estimate   =    -704.94615306 Ry
     estimated scf accuracy    <       0.00164530 Ry

     iteration #  5     ecut=    40.00 Ry     beta=0.60
     Davidson diagonalization with overlap
     ethr =  6.85E-07,  avg # of iterations =  3.8

     total cpu time spent up to now is    18466.6 secs

     total energy              =    -704.94601479 Ry
     Harris-Foulkes estimate   =    -704.94603133 Ry
     estimated scf accuracy    <       0.00010264 Ry

     iteration #  6     ecut=    40.00 Ry     beta=0.60
     Davidson diagonalization with overlap
     ethr =  1.35E-07,  avg # of iterations =  1.8

     total cpu time spent up to now is    18574.8 secs

     total energy              =    -704.94602059 Ry
     Harris-Foulkes estimate   =    -704.94602272 Ry
     estimated scf accuracy    <       0.00000864 Ry

     iteration #  7     ecut=    40.00 Ry     beta=0.60
     Davidson diagonalization with overlap
     ethr =  1.14E-08,  avg # of iterations =  4.2

     total cpu time spent up to now is    18729.3 secs

     total energy              =    -704.94602039 Ry
     Harris-Foulkes estimate   =    -704.94602876 Ry
     estimated scf accuracy    <       0.00010593 Ry

     iteration #  8     ecut=    40.00 Ry     beta=0.60
     Davidson diagonalization with overlap
     ethr =  1.14E-08,  avg # of iterations =  3.9

     total cpu time spent up to now is    18867.5 secs

     total energy              =    -704.94602434 Ry
     Harris-Foulkes estimate   =    -704.94602489 Ry
     estimated scf accuracy    <       0.00000462 Ry

     iteration #  9     ecut=    40.00 Ry     beta=0.60
     Davidson diagonalization with overlap
     ethr =  6.08E-09,  avg # of iterations =  2.6

     total cpu time spent up to now is    18984.0 secs

     total energy              =    -704.94602418 Ry
     Harris-Foulkes estimate   =    -704.94602495 Ry
     estimated scf accuracy    <       0.00000527 Ry

     iteration # 10     ecut=    40.00 Ry     beta=0.60
     Davidson diagonalization with overlap
     ethr =  6.08E-09,  avg # of iterations =  1.3

     total cpu time spent up to now is    19090.2 secs

     total energy              =    -704.94602448 Ry
     Harris-Foulkes estimate   =    -704.94602453 Ry
     estimated scf accuracy    <       0.00000035 Ry

     iteration # 11     ecut=    40.00 Ry     beta=0.60
     Davidson diagonalization with overlap
     ethr =  4.59E-10,  avg # of iterations =  4.0

     total cpu time spent up to now is    19240.1 secs

     total energy              =    -704.94602457 Ry
     Harris-Foulkes estimate   =    -704.94602458 Ry
     estimated scf accuracy    <       0.00000002 Ry

     iteration # 12     ecut=    40.00 Ry     beta=0.60
     Davidson diagonalization with overlap
     ethr =  2.03E-11,  avg # of iterations =  3.1

     total cpu time spent up to now is    19370.0 secs

     total energy              =    -704.94602457 Ry
     Harris-Foulkes estimate   =    -704.94602458 Ry
     estimated scf accuracy    <          6.3E-09 Ry

     iteration # 13     ecut=    40.00 Ry     beta=0.60
     Davidson diagonalization with overlap
     ethr =  8.27E-12,  avg # of iterations =  2.0

     total cpu time spent up to now is    19481.9 secs

     total energy              =    -704.94602458 Ry
     Harris-Foulkes estimate   =    -704.94602458 Ry
     estimated scf accuracy    <          6.6E-10 Ry

     iteration # 14     ecut=    40.00 Ry     beta=0.60
     Davidson diagonalization with overlap
     ethr =  8.64E-13,  avg # of iterations =  4.1

     total cpu time spent up to now is    19636.3 secs

     total energy              =    -704.94602458 Ry
     Harris-Foulkes estimate   =    -704.94602458 Ry
     estimated scf accuracy    <          3.1E-09 Ry

     iteration # 15     ecut=    40.00 Ry     beta=0.60
     Davidson diagonalization with overlap
     ethr =  8.64E-13,  avg # of iterations =  3.3

     total cpu time spent up to now is    19765.2 secs

     total energy              =    -704.94602458 Ry
     Harris-Foulkes estimate   =    -704.94602458 Ry
     estimated scf accuracy    <          5.1E-10 Ry

     iteration # 16     ecut=    40.00 Ry     beta=0.60
     Davidson diagonalization with overlap
     ethr =  6.65E-13,  avg # of iterations =  1.0

     total cpu time spent up to now is    19870.4 secs

     total energy              =    -704.94602458 Ry
     Harris-Foulkes estimate   =    -704.94602458 Ry
     estimated scf accuracy    <          1.2E-10 Ry

     iteration # 17     ecut=    40.00 Ry     beta=0.60
     Davidson diagonalization with overlap
     ethr =  1.60E-13,  avg # of iterations =  3.3

     total cpu time spent up to now is    20006.2 secs

     total energy              =    -704.94602458 Ry
     Harris-Foulkes estimate   =    -704.94602458 Ry
     estimated scf accuracy    <          2.5E-10 Ry

     iteration # 18     ecut=    40.00 Ry     beta=0.60
     Davidson diagonalization with overlap
     ethr =  1.60E-13,  avg # of iterations =  1.0

     total cpu time spent up to now is    20111.5 secs

     End of self-consistent calculation

     Number of k-points >= 100: set verbosity='high' to print the bands.

     the Fermi energy is    16.4932 ev

!    total energy              =    -704.94602458 Ry
     Harris-Foulkes estimate   =    -704.94602458 Ry
     estimated scf accuracy    <          4.9E-12 Ry

     The total energy is the sum of the following terms:

     one-electron contribution =    -150.77207657 Ry
     hartree contribution      =     109.97125622 Ry
     xc contribution           =    -102.77144130 Ry
     ewald contribution        =    -561.37204100 Ry
     smearing contrib. (-TS)   =      -0.00172193 Ry

     convergence has been achieved in  18 iterations

     Forces acting on atoms (Ry/au):

     atom    1 type  1   force =     0.00441540    0.00254923    0.00000000
     atom    2 type  2   force =    -0.00312648   -0.00180507    0.00000000
     atom    3 type  2   force =     0.00312510    0.00180428    0.00000000
     atom    4 type  1   force =    -0.00441399   -0.00254842    0.00000000
     atom    5 type  1   force =     0.00236391    0.00136480    0.00000000
     atom    6 type  1   force =    -0.00236393   -0.00136482    0.00000000

     Total force =     0.009640     Total SCF correction =     0.000010


     entering subroutine stress ...

          total   stress  (Ry/bohr**3)                   (kbar)     P=    6.71
   0.00002451   0.00003942   0.00000000          3.61      5.80      0.00
   0.00003942  -0.00002101   0.00000000          5.80     -3.09      0.00
   0.00000000   0.00000000   0.00013329          0.00      0.00     19.61


     number of scf cycles    =   6
     number of bfgs steps    =   5

     enthalpy old            =    -704.9437631721 Ry
     enthalpy new            =    -704.9460245757 Ry

     CASE: enthalpy_new < enthalpy_old

     new trust radius        =       0.1124492340 bohr
     new conv_thr            =            1.0E-10 Ry

     new unit-cell volume =    731.27892 a.u.^3 (   108.36435 Ang^3 )

CELL_PARAMETERS (alat=  1.88972599)
   5.815152663   4.979896284   0.000000000
  -7.220292688  -2.546122172   0.000000000
   0.000000000   0.000000000   5.123558092

ATOMIC_POSITIONS (angstrom)
Nb      -1.397651378   2.438097684   5.123558092
Ti      -1.433407192   0.794936359   2.561779046
Ti       1.476663881   2.475068426   5.123558092
Nb      -5.779404617  -1.714226615   2.561779046
Nb      -2.857820939  -0.027447743   5.123558092
Nb       2.901060213   3.297442474   2.561779046


     NEW-OLD atomic charge density approx. for the potential
     extrapolated charge   76.24436, renormalised to   76.00000

     total cpu time spent up to now is    20158.6 secs

     per-process dynamical memory:   263.2 Mb

     Self-consistent Calculation

     iteration #  1     ecut=    40.00 Ry     beta=0.60
     Davidson diagonalization with overlap
     c_bands:  1 eigenvalues not converged
     c_bands:  1 eigenvalues not converged
     c_bands:  1 eigenvalues not converged
     ethr =  1.00E-06,  avg # of iterations =  9.4

     total cpu time spent up to now is    20515.7 secs

     total energy              =    -704.94250777 Ry
     Harris-Foulkes estimate   =    -704.59920868 Ry
     estimated scf accuracy    <       0.00521210 Ry

     iteration #  2     ecut=    40.00 Ry     beta=0.60
     Davidson diagonalization with overlap
     c_bands:  1 eigenvalues not converged
     c_bands:  1 eigenvalues not converged
     ethr =  6.86E-06,  avg # of iterations =  6.3

     total cpu time spent up to now is    20779.8 secs

     total energy              =    -704.93099379 Ry
     Harris-Foulkes estimate   =    -704.96615636 Ry
     estimated scf accuracy    <       0.34462932 Ry

     iteration #  3     ecut=    40.00 Ry     beta=0.60
     Davidson diagonalization with overlap
     ethr =  6.86E-06,  avg # of iterations =  5.4

     total cpu time spent up to now is    20980.3 secs

     total energy              =    -704.94655245 Ry
     Harris-Foulkes estimate   =    -704.94846593 Ry
     estimated scf accuracy    <       0.00687912 Ry

     iteration #  4     ecut=    40.00 Ry     beta=0.60
     Davidson diagonalization with overlap
     ethr =  6.86E-06,  avg # of iterations =  4.2

     total cpu time spent up to now is    21122.4 secs

     total energy              =    -704.94667883 Ry
     Harris-Foulkes estimate   =    -704.94819673 Ry
     estimated scf accuracy    <       0.00932744 Ry

     iteration #  5     ecut=    40.00 Ry     beta=0.60
     Davidson diagonalization with overlap
     ethr =  6.86E-06,  avg # of iterations =  3.0

     total cpu time spent up to now is    21241.9 secs

     total energy              =    -704.94724702 Ry
     Harris-Foulkes estimate   =    -704.94746718 Ry
     estimated scf accuracy    <       0.00101879 Ry

     iteration #  6     ecut=    40.00 Ry     beta=0.60
     Davidson diagonalization with overlap
     ethr =  1.34E-06,  avg # of iterations =  3.6

     total cpu time spent up to now is    21372.9 secs

     total energy              =    -704.94729221 Ry
     Harris-Foulkes estimate   =    -704.94739473 Ry
     estimated scf accuracy    <       0.00099260 Ry

     iteration #  7     ecut=    40.00 Ry     beta=0.60
     Davidson diagonalization with overlap
     ethr =  1.31E-06,  avg # of iterations =  1.0

     total cpu time spent up to now is    21477.5 secs

     total energy              =    -704.94733491 Ry
     Harris-Foulkes estimate   =    -704.94736360 Ry
     estimated scf accuracy    <       0.00026268 Ry

     iteration #  8     ecut=    40.00 Ry     beta=0.60
     Davidson diagonalization with overlap
     ethr =  3.46E-07,  avg # of iterations =  2.5

     total cpu time spent up to now is    21589.2 secs

     total energy              =    -704.94734745 Ry
     Harris-Foulkes estimate   =    -704.94735009 Ry
     estimated scf accuracy    <       0.00003049 Ry

     iteration #  9     ecut=    40.00 Ry     beta=0.60
     Davidson diagonalization with overlap
     ethr =  4.01E-08,  avg # of iterations =  3.8

     total cpu time spent up to now is    21719.6 secs

     total energy              =    -704.94734912 Ry
     Harris-Foulkes estimate   =    -704.94735170 Ry
     estimated scf accuracy    <       0.00001620 Ry

     iteration # 10     ecut=    40.00 Ry     beta=0.60
     Davidson diagonalization with overlap
     ethr =  2.13E-08,  avg # of iterations =  2.6

[...]
         3           Ti  tau(   3) = (   1.8239899   2.6192531   4.8800763  )
         4           Nb  tau(   4) = (  -6.3564163  -2.1037083   2.4400382  )
         5           Nb  tau(   5) = (  -2.8627758  -0.0866524   4.8800763  )
         6           Nb  tau(   6) = (   3.0776517   3.3430536   2.4400382  )

     number of k points=   248  Marzari-Vanderbilt smearing, width (Ry)=  0.0200

     Number of k-points >= 100: set verbosity='high' to print them.

     Dense  grid:    98577 G-vectors     FFT dimensions: ( 100, 100,  60)

     Smooth grid:    24989 G-vectors     FFT dimensions: (  64,  64,  40)

     Estimated max dynamical RAM per process >     163.32Mb

     Estimated total allocated dynamical RAM >     653.29Mb

     Check: negative/imaginary core charge=   -0.000001    0.000000

     Initial potential from superposition of free atoms

     starting charge   73.98898, renormalised to   76.00000
     Starting wfc are   72 randomized atomic wfcs

     total cpu time spent up to now is   103322.7 secs

     per-process dynamical memory:   237.3 Mb

     Self-consistent Calculation

     iteration #  1     ecut=    40.00 Ry     beta=0.60
     Davidson diagonalization with overlap
     c_bands:  1 eigenvalues not converged
     c_bands:  1 eigenvalues not converged
     c_bands:  1 eigenvalues not converged
     c_bands:  1 eigenvalues not converged
     c_bands:  1 eigenvalues not converged
     c_bands:  1 eigenvalues not converged
     c_bands:  1 eigenvalues not converged
     c_bands:  1 eigenvalues not converged
     ethr =  1.00E-06,  avg # of iterations = 12.3

     total cpu time spent up to now is   103742.1 secs

     total energy              =    -681.99650129 Ry
     Harris-Foulkes estimate   =    -707.54727269 Ry
     estimated scf accuracy    <      32.15183939 Ry

     iteration #  2     ecut=    40.00 Ry     beta=0.60
     Davidson diagonalization with overlap
     c_bands:  4 eigenvalues not converged
     c_bands:  2 eigenvalues not converged
     ethr =  1.00E-02,  avg # of iterations =  7.5

     total cpu time spent up to now is   103996.8 secs

     total energy              =    -680.67928571 Ry
     Harris-Foulkes estimate   =    -738.58944268 Ry
     estimated scf accuracy    <     191.80118588 Ry

     iteration #  3     ecut=    40.00 Ry     beta=0.60
     Davidson diagonalization with overlap
     ethr =  1.00E-02,  avg # of iterations =  4.8

     total cpu time spent up to now is   104181.7 secs

     total energy              =    -704.00625732 Ry
     Harris-Foulkes estimate   =    -710.08267072 Ry
     estimated scf accuracy    <      59.83956481 Ry

     iteration #  4     ecut=    40.00 Ry     beta=0.60
     Davidson diagonalization with overlap
     ethr =  1.00E-02,  avg # of iterations =  2.3

     total cpu time spent up to now is   104292.9 secs

     total energy              =    -706.33139234 Ry
     Harris-Foulkes estimate   =    -706.92556632 Ry
     estimated scf accuracy    <       8.67104343 Ry

     iteration #  5     ecut=    40.00 Ry     beta=0.60
     Davidson diagonalization with overlap
     ethr =  1.00E-02,  avg # of iterations =  1.0

     total cpu time spent up to now is   104392.8 secs

     total energy              =    -704.41826896 Ry
     Harris-Foulkes estimate   =    -706.36916654 Ry
     estimated scf accuracy    <       7.30615076 Ry

     iteration #  6     ecut=    40.00 Ry     beta=0.60
     Davidson diagonalization with overlap
     ethr =  9.61E-03,  avg # of iterations =  2.6

     total cpu time spent up to now is   104501.2 secs

     total energy              =    -704.82885840 Ry
     Harris-Foulkes estimate   =    -704.84394165 Ry
     estimated scf accuracy    <       1.06716986 Ry

     iteration #  7     ecut=    40.00 Ry     beta=0.60
     Davidson diagonalization with overlap
     ethr =  1.40E-03,  avg # of iterations =  4.9

     total cpu time spent up to now is   104658.1 secs

     total energy              =    -704.97300808 Ry
     Harris-Foulkes estimate   =    -704.99832444 Ry
     estimated scf accuracy    <       0.12380019 Ry

     iteration #  8     ecut=    40.00 Ry     beta=0.60
     Davidson diagonalization with overlap
     ethr =  1.63E-04,  avg # of iterations =  3.4

     total cpu time spent up to now is   104776.9 secs

     total energy              =    -705.01229331 Ry
     Harris-Foulkes estimate   =    -704.98256754 Ry
     estimated scf accuracy    <       0.04578449 Ry

     iteration #  9     ecut=    40.00 Ry     beta=0.60
     Davidson diagonalization with overlap
     ethr =  6.02E-05,  avg # of iterations =  7.0

     total cpu time spent up to now is   105009.3 secs

     total energy              =    -705.34497116 Ry
     Harris-Foulkes estimate   =    -705.31223569 Ry
     estimated scf accuracy    <       2.68692289 Ry

     iteration # 10     ecut=    40.00 Ry     beta=0.60
     Davidson diagonalization with overlap
     ethr =  6.02E-05,  avg # of iterations =  4.0

     total cpu time spent up to now is   105132.7 secs

     total energy              =    -705.31017121 Ry
     Harris-Foulkes estimate   =    -705.35478744 Ry
     estimated scf accuracy    <       3.02426033 Ry

     iteration # 11     ecut=    40.00 Ry     beta=0.60
     Davidson diagonalization with overlap
     ethr =  6.02E-05,  avg # of iterations =  2.6

     total cpu time spent up to now is   105240.9 secs

     total energy              =    -705.19745439 Ry
     Harris-Foulkes estimate   =    -705.31588573 Ry
     estimated scf accuracy    <       2.85064272 Ry

     iteration # 12     ecut=    40.00 Ry     beta=0.60
     Davidson diagonalization with overlap
     ethr =  6.02E-05,  avg # of iterations =  4.0

     total cpu time spent up to now is   105374.2 secs

     total energy              =    -705.15969933 Ry
     Harris-Foulkes estimate   =    -705.20526302 Ry
     estimated scf accuracy    <       2.12498282 Ry

     iteration # 13     ecut=    40.00 Ry     beta=0.60
     Davidson diagonalization with overlap
     ethr =  6.02E-05,  avg # of iterations =  1.6

     total cpu time spent up to now is   105476.6 secs

     total energy              =    -705.16317837 Ry
     Harris-Foulkes estimate   =    -705.16149707 Ry
     estimated scf accuracy    <       1.89136414 Ry

     iteration # 14     ecut=    40.00 Ry     beta=0.60
     Davidson diagonalization with overlap
     ethr =  6.02E-05,  avg # of iterations =  1.0

     total cpu time spent up to now is   105576.7 secs

     total energy              =    -705.12001192 Ry
     Harris-Foulkes estimate   =    -705.16378655 Ry
     estimated scf accuracy    <       1.88397873 Ry

     iteration # 15     ecut=    40.00 Ry     beta=0.60
     Davidson diagonalization with overlap
     ethr =  6.02E-05,  avg # of iterations =  1.8

     total cpu time spent up to now is   105679.3 secs

     total energy              =    -704.66824411 Ry
     Harris-Foulkes estimate   =    -705.12146397 Ry
     estimated scf accuracy    <       1.64039534 Ry

     iteration # 16     ecut=    40.00 Ry     beta=0.60
     Davidson diagonalization with overlap
     ethr =  6.02E-05,  avg # of iterations =  5.6

     total cpu time spent up to now is   105904.8 secs

     total energy              =    -704.77514807 Ry
     Harris-Foulkes estimate   =    -705.08444080 Ry
     estimated scf accuracy    <       1.68985379 Ry

     iteration # 17     ecut=    40.00 Ry     beta=0.60
     Davidson diagonalization with overlap
     ethr =  6.02E-05,  avg # of iterations =  6.4

     total cpu time spent up to now is   106125.3 secs

     total energy              =    -704.97318166 Ry
     Harris-Foulkes estimate   =    -704.99204458 Ry
     estimated scf accuracy    <       0.23801966 Ry

     iteration # 18     ecut=    40.00 Ry     beta=0.60
     Davidson diagonalization with overlap
     ethr =  6.02E-05,  avg # of iterations =  1.5

     total cpu time spent up to now is   106226.7 secs

     total energy              =    -704.97251038 Ry
     Harris-Foulkes estimate   =    -704.97755871 Ry
     estimated scf accuracy    <       0.11021857 Ry

     iteration # 19     ecut=    40.00 Ry     beta=0.60
     Davidson diagonalization with overlap
     ethr =  6.02E-05,  avg # of iterations =  2.6

     total cpu time spent up to now is   106334.2 secs

     total energy              =    -704.97281506 Ry
     Harris-Foulkes estimate   =    -704.97470325 Ry
     estimated scf accuracy    <       0.04373863 Ry

     iteration # 20     ecut=    40.00 Ry     beta=0.60
     Davidson diagonalization with overlap
     ethr =  5.76E-05,  avg # of iterations =  1.0

     total cpu time spent up to now is   106434.2 secs

     total energy              =    -704.97354971 Ry
     Harris-Foulkes estimate   =    -704.97329064 Ry
     estimated scf accuracy    <       0.02833697 Ry

     iteration # 21     ecut=    40.00 Ry     beta=0.60
     Davidson diagonalization with overlap
     ethr =  3.73E-05,  avg # of iterations =  1.7

     total cpu time spent up to now is   106536.7 secs

     total energy              =    -704.97005515 Ry
     Harris-Foulkes estimate   =    -704.97378225 Ry
     estimated scf accuracy    <       0.02828094 Ry

     iteration # 22     ecut=    40.00 Ry     beta=0.60
     Davidson diagonalization with overlap
     ethr =  3.72E-05,  avg # of iterations =  2.1

     total cpu time spent up to now is   106640.8 secs

     total energy              =    -704.97126512 Ry
     Harris-Foulkes estimate   =    -704.97138690 Ry
     estimated scf accuracy    <       0.00274213 Ry

     iteration # 23     ecut=    40.00 Ry     beta=0.60
     Davidson diagonalization with overlap
     c_bands:  2 eigenvalues not converged
     c_bands:  1 eigenvalues not converged
     ethr =  3.61E-06,  avg # of iterations =  6.6

     total cpu time spent up to now is   106824.0 secs

     total energy              =    -704.97223579 Ry
     Harris-Foulkes estimate   =    -704.97228043 Ry
     estimated scf accuracy    <       0.00027739 Ry

     iteration # 24     ecut=    40.00 Ry     beta=0.60
     Davidson diagonalization with overlap
     ethr =  3.65E-07,  avg # of iterations =  2.3

     total cpu time spent up to now is   106929.6 secs

     total energy              =    -704.97225320 Ry
     Harris-Foulkes estimate   =    -704.97225806 Ry
     estimated scf accuracy    <       0.00011469 Ry

     iteration # 25     ecut=    40.00 Ry     beta=0.60
     Davidson diagonalization with overlap
     ethr =  1.51E-07,  avg # of iterations =  1.4

     total cpu time spent up to now is   107031.3 secs

     total energy              =    -704.97225275 Ry
     Harris-Foulkes estimate   =    -704.97225949 Ry
     estimated scf accuracy    <       0.00008470 Ry

     iteration # 26     ecut=    40.00 Ry     beta=0.60
     Davidson diagonalization with overlap
     ethr =  1.11E-07,  avg # of iterations =  1.0

     total cpu time spent up to now is   107131.0 secs

     total energy              =    -704.97225075 Ry
     Harris-Foulkes estimate   =    -704.97225458 Ry
     estimated scf accuracy    <       0.00003634 Ry

     iteration # 27     ecut=    40.00 Ry     beta=0.60
     Davidson diagonalization with overlap
     ethr =  4.78E-08,  avg # of iterations =  3.0

     total cpu time spent up to now is   107248.0 secs

     total energy              =    -704.97225422 Ry
     Harris-Foulkes estimate   =    -704.97225425 Ry
     estimated scf accuracy    <       0.00000049 Ry

     iteration # 28     ecut=    40.00 Ry     beta=0.60
     Davidson diagonalization with overlap
     ethr =  6.43E-10,  avg # of iterations =  4.4

     total cpu time spent up to now is   107399.4 secs

     total energy              =    -704.97225439 Ry
     Harris-Foulkes estimate   =    -704.97225448 Ry
     estimated scf accuracy    <       0.00000097 Ry

     iteration # 29     ecut=    40.00 Ry     beta=0.60
     Davidson diagonalization with overlap
     ethr =  6.43E-10,  avg # of iterations =  1.0

     total cpu time spent up to now is   107499.1 secs

     total energy              =    -704.97225440 Ry
     Harris-Foulkes estimate   =    -704.97225441 Ry
     estimated scf accuracy    <       0.00000041 Ry

     iteration # 30     ecut=    40.00 Ry     beta=0.60
     Davidson diagonalization with overlap
     ethr =  5.34E-10,  avg # of iterations =  1.4

     total cpu time spent up to now is   107600.6 secs

     total energy              =    -704.97225439 Ry
     Harris-Foulkes estimate   =    -704.97225441 Ry
     estimated scf accuracy    <       0.00000028 Ry

     iteration # 31     ecut=    40.00 Ry     beta=0.60
     Davidson diagonalization with overlap
     ethr =  3.63E-10,  avg # of iterations =  1.0

     total cpu time spent up to now is   107700.4 secs

     total energy              =    -704.97225438 Ry
     Harris-Foulkes estimate   =    -704.97225440 Ry
     estimated scf accuracy    <       0.00000011 Ry

     iteration # 32     ecut=    40.00 Ry     beta=0.60
     Davidson diagonalization with overlap
     ethr =  1.39E-10,  avg # of iterations =  3.6

     total cpu time spent up to now is   107824.7 secs

     total energy              =    -704.97225440 Ry
     Harris-Foulkes estimate   =    -704.97225440 Ry
     estimated scf accuracy    <       0.00000001 Ry

     iteration # 33     ecut=    40.00 Ry     beta=0.60
     Davidson diagonalization with overlap
     ethr =  1.42E-11,  avg # of iterations =  2.2

     total cpu time spent up to now is   107932.0 secs

     total energy              =    -704.97225440 Ry
     Harris-Foulkes estimate   =    -704.97225440 Ry
     estimated scf accuracy    <          1.5E-09 Ry

     iteration # 34     ecut=    40.00 Ry     beta=0.60
     Davidson diagonalization with overlap
     ethr =  1.96E-12,  avg # of iterations =  3.8

     total cpu time spent up to now is   108057.0 secs

     total energy              =    -704.97225440 Ry
     Harris-Foulkes estimate   =    -704.97225440 Ry
     estimated scf accuracy    <          7.7E-11 Ry

     iteration # 35     ecut=    40.00 Ry     beta=0.60
     Davidson diagonalization with overlap
     ethr =  1.01E-13,  avg # of iterations =  3.8

     total cpu time spent up to now is   108189.8 secs

     total energy              =    -704.97225440 Ry
     Harris-Foulkes estimate   =    -704.97225440 Ry
     estimated scf accuracy    <          1.6E-10 Ry

     iteration # 36     ecut=    40.00 Ry     beta=0.60
     Davidson diagonalization with overlap
     ethr =  1.01E-13,  avg # of iterations =  1.9

     total cpu time spent up to now is   108293.7 secs

     total energy              =    -704.97225440 Ry
     Harris-Foulkes estimate   =    -704.97225440 Ry
     estimated scf accuracy    <          3.3E-11 Ry

     iteration # 37     ecut=    40.00 Ry     beta=0.60
     Davidson diagonalization with overlap
     ethr =  1.00E-13,  avg # of iterations =  1.0

     total cpu time spent up to now is   108393.2 secs

     total energy              =    -704.97225440 Ry
     Harris-Foulkes estimate   =    -704.97225440 Ry
     estimated scf accuracy    <          4.8E-12 Ry

     iteration # 38     ecut=    40.00 Ry     beta=0.60
     Davidson diagonalization with overlap
     ethr =  1.00E-13,  avg # of iterations =  1.0

     total cpu time spent up to now is   108492.8 secs

     total energy              =    -704.97225440 Ry
     Harris-Foulkes estimate   =    -704.97225440 Ry
     estimated scf accuracy    <          1.1E-12 Ry

     iteration # 39     ecut=    40.00 Ry     beta=0.60
     Davidson diagonalization with overlap
     ethr =  1.00E-13,  avg # of iterations =  1.0

     total cpu time spent up to now is   108592.6 secs

     End of self-consistent calculation

     Number of k-points >= 100: set verbosity='high' to print the bands.

     the Fermi energy is    16.3714 ev

!    total energy              =    -704.97225440 Ry
     Harris-Foulkes estimate   =    -704.97225440 Ry
     estimated scf accuracy    <          1.0E-13 Ry

     The total energy is the sum of the following terms:

     one-electron contribution =    -151.81438591 Ry
     hartree contribution      =     110.34606213 Ry
     xc contribution           =    -102.78176472 Ry
     ewald contribution        =    -560.72120497 Ry
     smearing contrib. (-TS)   =      -0.00096094 Ry

     convergence has been achieved in  39 iterations

     Forces acting on atoms (Ry/au):

     atom    1 type  1   force =     0.00001256    0.00000725    0.00000000
     atom    2 type  2   force =    -0.00009397   -0.00005425    0.00000000
     atom    3 type  2   force =     0.00007934    0.00004581    0.00000000
     atom    4 type  1   force =    -0.00000786   -0.00000454    0.00000000
     atom    5 type  1   force =     0.00000683    0.00000394    0.00000000
     atom    6 type  1   force =     0.00000310    0.00000179    0.00000000

     Total force =     0.000143     Total SCF correction =     0.000001


     entering subroutine stress ...

          total   stress  (Ry/bohr**3)                   (kbar)     P=   -1.21
  -0.00000357   0.00000915   0.00000000         -0.53      1.35      0.00
   0.00000915  -0.00001414   0.00000000          1.35     -2.08      0.00
   0.00000000   0.00000000  -0.00000706          0.00      0.00     -1.04


     init_run     :    107.52s CPU    120.64s WALL (       2 calls)
     electrons    :  96381.88s CPU 106650.41s WALL (      39 calls)
     update_pot   :    123.10s CPU    129.64s WALL (      37 calls)
     forces       :    630.71s CPU    684.51s WALL (      39 calls)
     stress       :    922.92s CPU   1022.41s WALL (      39 calls)

     Called by init_run:
     wfcinit      :    102.54s CPU    115.15s WALL (       2 calls)
     potinit      :      1.63s CPU      1.78s WALL (       2 calls)

     Called by electrons:
     c_bands      :  80706.60s CPU  89222.60s WALL (     748 calls)
     sum_band     :  15227.03s CPU  16882.62s WALL (     748 calls)
     v_of_rho     :    149.00s CPU    165.99s WALL (     781 calls)
     newd         :    285.29s CPU    364.98s WALL (     781 calls)
     mix_rho      :     18.75s CPU     21.20s WALL (     748 calls)

     Called by c_bands:
     init_us_2    :    605.08s CPU    687.31s WALL (  390848 calls)
     cegterg      :  78942.95s CPU  87247.00s WALL (  185506 calls)

     Called by sum_band:
     sum_band:bec :     32.13s CPU     37.44s WALL (  185504 calls)
     addusdens    :    341.41s CPU    432.36s WALL (     748 calls)

     Called by *egterg:
     h_psi        :  49838.18s CPU  55393.95s WALL (  795568 calls)
     s_psi        :   4548.75s CPU   5095.00s WALL (  795568 calls)
     g_psi        :     88.06s CPU     96.36s WALL (  609566 calls)
     cdiaghg      :   5778.93s CPU   6239.26s WALL (  784408 calls)

     Called by h_psi:
     h_psi:pot    :  49597.53s CPU  55104.17s WALL (  795568 calls)
     h_psi:calbec :   6251.31s CPU   6928.72s WALL (  795568 calls)
     vloc_psi     :  38627.82s CPU  42800.89s WALL (  795568 calls)
     add_vuspsi   :   4709.99s CPU   5368.55s WALL (  795568 calls)

     General routines
     calbec       :   9233.42s CPU  10174.13s WALL ( 1029432 calls)
     fft          :    186.49s CPU    199.66s WALL (   13376 calls)
     ffts         :      1.46s CPU      1.59s WALL (    1529 calls)
     fftw         :  28739.17s CPU  31229.84s WALL (51830156 calls)
     interpolate  :     17.03s CPU     19.31s WALL (    1529 calls)

     Parallel routines
     fft_scatter  :  15035.47s CPU  15849.29s WALL (51845061 calls)

     PWSCF        :     1d    3h16m CPU        1d    6h10m WALL


   This run was terminated on:  23:52:33   2May2018            

=------------------------------------------------------------------------------=
   JOB DONE.
=------------------------------------------------------------------------------=
