
     Program PWSCF v.6.3MaX starts on 31Mar2020 at 16:57:24 

     This program is part of the open-source Quantum ESPRESSO suite
     for quantum simulation of materials; please cite
         "P. Giannozzi et al., J. Phys.:Condens. Matter 21 395502 (2009);
         "P. Giannozzi et al., J. Phys.:Condens. Matter 29 465901 (2017);
          URL http://www.quantum-espresso.org", 
     in publications or presentations arising from this work. More details at
     http://www.quantum-espresso.org/quote

     Parallel version (MPI), running on     4 processors

     MPI processes distributed on     1 nodes
     R & G space division:  proc/nbgrp/npool/nimage =       4
     Waiting for input...
     Reading input from standard input

     Current dimensions of program PWSCF are:
     Max number of different atomic species (ntypx) = 10
     Max number of k-points (npk) =  40000
     Max angular momentum in pseudopotentials (lmaxx) =  3
     Message from routine iosys:
     minimal I/O required, wf_collect reset to FALSE

     Subspace diagonalization in iterative solution of the eigenvalue problem:
     a serial algorithm will be used

 
     Parallelization info
     --------------------
     sticks:   dense  smooth     PW     G-vecs:    dense   smooth      PW
     Min         861     343    104                36404     9203    1522
     Max         862     344    105                36405     9204    1524
     Sum        3447    1375    417               145617    36815    6091
 


     bravais-lattice index     =            0
     lattice parameter (alat)  =       1.8897  a.u.
     unit-cell volume          =    1077.7903 (a.u.)^3
     number of atoms/cell      =            8
     number of atomic types    =            2
     number of electrons       =       100.00
     number of Kohn-Sham states=           60
     kinetic-energy cutoff     =      40.0000  Ry
     charge density cutoff     =     400.0000  Ry
     convergence threshold     =      1.0E-10
     mixing beta               =       0.6000
     number of iterations used =            8  plain     mixing
     Exchange-correlation      = SLA PW PBE PBE ( 1  4  3  4 0 0)
     nstep                     =           50


     celldm(1)=   1.889726  celldm(2)=   0.000000  celldm(3)=   0.000000
     celldm(4)=   0.000000  celldm(5)=   0.000000  celldm(6)=   0.000000

     crystal axes: (cart. coord. in units of alat)
               a(1) = (  -1.522502   2.637051   4.972461 )  
               a(2) = (  -1.522502   2.637051  -4.972461 )  
               a(3) = (  -4.567506  -2.637051   0.000000 )  

     reciprocal axes: (cart. coord. in units 2 pi/alat)
               b(1) = ( -0.082102  0.142204  0.100554 )  
               b(2) = ( -0.082102  0.142204 -0.100554 )  
               b(3) = ( -0.164203 -0.094803  0.000000 )  


     PseudoPot. # 1 for Nb read from file:
     ./Nb.pbe-nsp-van.UPF
     MD5 check sum: 0a22fc7fb0ba19a08ca5db297a5d2854
     Pseudo is Ultrasoft + core correction, Zval = 13.0
     Generated by new atomic code, or converted to UPF format
     Using radial grid of  887 points,  6 beta functions with: 
                l(1) =   0
                l(2) =   0
                l(3) =   1
                l(4) =   1
                l(5) =   2
                l(6) =   2
     Q(r) pseudized with  6 coefficients,  rinner =    1.000   1.000   1.000
                                                       1.000   1.000

     PseudoPot. # 2 for Ti read from file:
     ./Ti.pbe-sp-van_ak.UPF
     MD5 check sum: f98fea3e8887528921fefa5636a534ca
     Pseudo is Ultrasoft, Zval = 12.0
     Generated by new atomic code, or converted to UPF format
     Using radial grid of  851 points,  6 beta functions with: 
                l(1) =   0
                l(2) =   0
                l(3) =   1
                l(4) =   1
                l(5) =   2
                l(6) =   2
     Q(r) pseudized with  8 coefficients,  rinner =    1.000   1.000   1.000
                                                       1.000   1.000

     atomic species   valence    mass     pseudopotential
        Nb            13.00    92.90638     Nb( 1.00)
        Ti            12.00    47.86700     Ti( 1.00)

      2 Sym. Ops. (no inversion) found ( 1 have fractional translation)
          (note:  2 additional sym.ops. were found but ignored
           their fractional translations are incommensurate with FFT grid)


   Cartesian axes

     site n.     atom                  positions (alat units)
         1           Nb  tau(   1) = (  -7.6125106   2.6370512   0.0000000  )
         2           Ti  tau(   2) = (  -3.0450027   3.5160674  -2.4862307  )
         3           Ti  tau(   3) = (  -4.5675063   2.6370512   0.0000000  )
         4           Ti  tau(   4) = (  -4.5675048   0.8790162  -2.4862307  )
         5           Ti  tau(   5) = (  -6.0900085   0.0000000   0.0000000  )
         6           Nb  tau(   6) = (  -3.0450027   3.5160674   2.4862307  )
         7           Nb  tau(   7) = (  -3.0450042   0.0000000   0.0000000  )
         8           Nb  tau(   8) = (  -4.5675048   0.8790162   2.4862307  )

     number of k points=   306  Marzari-Vanderbilt smearing, width (Ry)=  0.0200

     Number of k-points >= 100: set verbosity='high' to print them.

     Dense  grid:   145617 G-vectors     FFT dimensions: (  72,  72,  64)

     Smooth grid:    36815 G-vectors     FFT dimensions: (  45,  45,  45)

     Estimated max dynamical RAM per process >     465.57 MB

     Estimated total dynamical RAM >       1.82 GB

     Initial potential from superposition of free atoms

     starting charge   95.98889, renormalised to  100.00000
     Starting wfcs are   92 randomized atomic wfcs

     total cpu time spent up to now is       28.6 secs

     Self-consistent Calculation

     iteration #  1     ecut=    40.00 Ry     beta= 0.60
     Davidson diagonalization with overlap
     ethr =  1.00E-02,  avg # of iterations =  3.1

     total cpu time spent up to now is       92.6 secs

     total energy              =    -918.19770576 Ry
     Harris-Foulkes estimate   =    -941.87961412 Ry
     estimated scf accuracy    <      29.89237056 Ry

     iteration #  2     ecut=    40.00 Ry     beta= 0.60
     Davidson diagonalization with overlap
     ethr =  1.00E-02,  avg # of iterations =  5.1

     total cpu time spent up to now is      197.8 secs

     total energy              =    -935.25970546 Ry
     Harris-Foulkes estimate   =    -971.41549501 Ry
     estimated scf accuracy    <     101.49954675 Ry

     iteration #  3     ecut=    40.00 Ry     beta= 0.60
     Davidson diagonalization with overlap
     ethr =  1.00E-02,  avg # of iterations =  3.5

     total cpu time spent up to now is      272.1 secs

     total energy              =    -939.75722025 Ry
     Harris-Foulkes estimate   =    -941.61315704 Ry
     estimated scf accuracy    <      19.60467219 Ry

     iteration #  4     ecut=    40.00 Ry     beta= 0.60
     Davidson diagonalization with overlap
     ethr =  1.00E-02,  avg # of iterations =  1.0

     total cpu time spent up to now is      317.8 secs

     total energy              =    -938.94824310 Ry
     Harris-Foulkes estimate   =    -939.88667486 Ry
     estimated scf accuracy    <      14.28220299 Ry

     iteration #  5     ecut=    40.00 Ry     beta= 0.60
     Davidson diagonalization with overlap
     ethr =  1.00E-02,  avg # of iterations =  1.0

     total cpu time spent up to now is      363.5 secs

     total energy              =    -937.60177851 Ry
     Harris-Foulkes estimate   =    -939.05482214 Ry
     estimated scf accuracy    <      10.53867916 Ry

     iteration #  6     ecut=    40.00 Ry     beta= 0.60
     Davidson diagonalization with overlap
     ethr =  1.00E-02,  avg # of iterations =  2.7

     total cpu time spent up to now is      414.5 secs

     total energy              =    -937.15213468 Ry
     Harris-Foulkes estimate   =    -937.94946002 Ry
     estimated scf accuracy    <       3.52067167 Ry

     iteration #  7     ecut=    40.00 Ry     beta= 0.60
     Davidson diagonalization with overlap
     ethr =  3.52E-03,  avg # of iterations =  4.9

     total cpu time spent up to now is      499.1 secs

     total energy              =    -938.39122115 Ry
     Harris-Foulkes estimate   =    -938.63765550 Ry
     estimated scf accuracy    <       6.87908945 Ry

     iteration #  8     ecut=    40.00 Ry     beta= 0.60
     Davidson diagonalization with overlap
     ethr =  3.52E-03,  avg # of iterations =  1.0

     total cpu time spent up to now is      544.9 secs

     total energy              =    -938.30867609 Ry
     Harris-Foulkes estimate   =    -938.44048202 Ry
     estimated scf accuracy    <       5.23643661 Ry

     iteration #  9     ecut=    40.00 Ry     beta= 0.60
     Davidson diagonalization with overlap
     ethr =  3.52E-03,  avg # of iterations =  1.0

     total cpu time spent up to now is      590.8 secs

     total energy              =    -937.98929336 Ry
     Harris-Foulkes estimate   =    -938.35465555 Ry
     estimated scf accuracy    <       3.77666617 Ry

     iteration # 10     ecut=    40.00 Ry     beta= 0.60
     Davidson diagonalization with overlap
     ethr =  3.52E-03,  avg # of iterations =  1.0

     total cpu time spent up to now is      636.6 secs

     total energy              =    -937.94982654 Ry
     Harris-Foulkes estimate   =    -938.09222700 Ry
     estimated scf accuracy    <       0.95669032 Ry

     iteration # 11     ecut=    40.00 Ry     beta= 0.60
     Davidson diagonalization with overlap
     ethr =  9.57E-04,  avg # of iterations =  5.0

     total cpu time spent up to now is      716.1 secs

     total energy              =    -938.16315270 Ry
     Harris-Foulkes estimate   =    -938.25602627 Ry
     estimated scf accuracy    <       0.73319078 Ry

     iteration # 12     ecut=    40.00 Ry     beta= 0.60
     Davidson diagonalization with overlap
     ethr =  7.33E-04,  avg # of iterations =  1.0

     total cpu time spent up to now is      762.0 secs

     total energy              =    -938.16991145 Ry
     Harris-Foulkes estimate   =    -938.18575621 Ry
     estimated scf accuracy    <       0.19389686 Ry

     iteration # 13     ecut=    40.00 Ry     beta= 0.60
     Davidson diagonalization with overlap
     ethr =  1.94E-04,  avg # of iterations =  4.1

     total cpu time spent up to now is      824.7 secs

     total energy              =    -938.18542467 Ry
     Harris-Foulkes estimate   =    -938.18915633 Ry
     estimated scf accuracy    <       0.00918076 Ry

     iteration # 14     ecut=    40.00 Ry     beta= 0.60
     Davidson diagonalization with overlap
     ethr =  9.18E-06,  avg # of iterations =  6.1

     total cpu time spent up to now is      924.5 secs

     total energy              =    -938.18726220 Ry
     Harris-Foulkes estimate   =    -938.19540709 Ry
     estimated scf accuracy    <       0.07913473 Ry

     iteration # 15     ecut=    40.00 Ry     beta= 0.60
     Davidson diagonalization with overlap
     ethr =  9.18E-06,  avg # of iterations =  5.0

     total cpu time spent up to now is      996.3 secs

     total energy              =    -938.18955878 Ry
     Harris-Foulkes estimate   =    -938.19018116 Ry
     estimated scf accuracy    <       0.00600663 Ry

     iteration # 16     ecut=    40.00 Ry     beta= 0.60
     Davidson diagonalization with overlap
     ethr =  6.01E-06,  avg # of iterations =  2.3

     total cpu time spent up to now is     1046.0 secs

     total energy              =    -938.18960973 Ry
     Harris-Foulkes estimate   =    -938.18973325 Ry
     estimated scf accuracy    <       0.00195317 Ry

     iteration # 17     ecut=    40.00 Ry     beta= 0.60
     Davidson diagonalization with overlap
     ethr =  1.95E-06,  avg # of iterations =  4.7

     total cpu time spent up to now is     1108.2 secs

     total energy              =    -938.18971299 Ry
     Harris-Foulkes estimate   =    -938.18972846 Ry
     estimated scf accuracy    <       0.00036369 Ry

     iteration # 18     ecut=    40.00 Ry     beta= 0.60
     Davidson diagonalization with overlap
     c_bands:  1 eigenvalues not converged
     ethr =  3.64E-07,  avg # of iterations =  4.2

     total cpu time spent up to now is     1170.8 secs

     total energy              =    -938.18975332 Ry
     Harris-Foulkes estimate   =    -938.18975361 Ry
     estimated scf accuracy    <       0.00007824 Ry

     iteration # 19     ecut=    40.00 Ry     beta= 0.60
     Davidson diagonalization with overlap
     ethr =  7.82E-08,  avg # of iterations =  2.8

     total cpu time spent up to now is     1223.4 secs

     total energy              =    -938.18975179 Ry
     Harris-Foulkes estimate   =    -938.18975826 Ry
     estimated scf accuracy    <       0.00009807 Ry

     iteration # 20     ecut=    40.00 Ry     beta= 0.60
     Davidson diagonalization with overlap
     ethr =  7.82E-08,  avg # of iterations =  1.0

     total cpu time spent up to now is     1269.1 secs

     total energy              =    -938.18974986 Ry
     Harris-Foulkes estimate   =    -938.18975453 Ry
     estimated scf accuracy    <       0.00004864 Ry

     iteration # 21     ecut=    40.00 Ry     beta= 0.60
     Davidson diagonalization with overlap
     ethr =  4.86E-08,  avg # of iterations =  3.6

     total cpu time spent up to now is     1323.3 secs

     total energy              =    -938.18975048 Ry
     Harris-Foulkes estimate   =    -938.18975185 Ry
     estimated scf accuracy    <       0.00001019 Ry

     iteration # 22     ecut=    40.00 Ry     beta= 0.60
     Davidson diagonalization with overlap
     ethr =  1.02E-08,  avg # of iterations =  4.9

     total cpu time spent up to now is     1395.6 secs

     total energy              =    -938.18975274 Ry
     Harris-Foulkes estimate   =    -938.18975289 Ry
     estimated scf accuracy    <       0.00000242 Ry

     iteration # 23     ecut=    40.00 Ry     beta= 0.60
     Davidson diagonalization with overlap
     ethr =  2.42E-09,  avg # of iterations =  1.6

     total cpu time spent up to now is     1442.8 secs

     total energy              =    -938.18975265 Ry
     Harris-Foulkes estimate   =    -938.18975278 Ry
     estimated scf accuracy    <       0.00000134 Ry

     iteration # 24     ecut=    40.00 Ry     beta= 0.60
     Davidson diagonalization with overlap
     ethr =  1.34E-09,  avg # of iterations =  2.6

     total cpu time spent up to now is     1494.2 secs

     total energy              =    -938.18975268 Ry
     Harris-Foulkes estimate   =    -938.18975271 Ry
     estimated scf accuracy    <       0.00000021 Ry

     iteration # 25     ecut=    40.00 Ry     beta= 0.60
     Davidson diagonalization with overlap
     ethr =  2.13E-10,  avg # of iterations =  4.6

     total cpu time spent up to now is     1563.0 secs

     total energy              =    -938.18975272 Ry
     Harris-Foulkes estimate   =    -938.18975272 Ry
     estimated scf accuracy    <          7.0E-09 Ry

     iteration # 26     ecut=    40.00 Ry     beta= 0.60
     Davidson diagonalization with overlap
     ethr =  7.01E-12,  avg # of iterations =  4.3

     total cpu time spent up to now is     1628.6 secs

     total energy              =    -938.18975272 Ry
     Harris-Foulkes estimate   =    -938.18975272 Ry
     estimated scf accuracy    <          6.3E-10 Ry

     iteration # 27     ecut=    40.00 Ry     beta= 0.60
     Davidson diagonalization with overlap
     ethr =  6.27E-13,  avg # of iterations =  5.1

     total cpu time spent up to now is     1707.3 secs

     total energy              =    -938.18975272 Ry
     Harris-Foulkes estimate   =    -938.18975272 Ry
     estimated scf accuracy    <          2.3E-09 Ry

     iteration # 28     ecut=    40.00 Ry     beta= 0.60
     Davidson diagonalization with overlap
     ethr =  6.27E-13,  avg # of iterations =  4.1

     total cpu time spent up to now is     1768.3 secs

     total energy              =    -938.18975272 Ry
     Harris-Foulkes estimate   =    -938.18975272 Ry
     estimated scf accuracy    <          1.1E-10 Ry

     iteration # 29     ecut=    40.00 Ry     beta= 0.60
     Davidson diagonalization with overlap
     ethr =  1.14E-13,  avg # of iterations =  4.4

     total cpu time spent up to now is     1834.9 secs

     End of self-consistent calculation

     Number of k-points >= 100: set verbosity='high' to print the bands.

     the Fermi energy is    13.8325 ev

!    total energy              =    -938.18975272 Ry
     Harris-Foulkes estimate   =    -938.18975272 Ry
     estimated scf accuracy    <          1.8E-12 Ry

     The total energy is the sum of the following terms:

     one-electron contribution =    -272.61239509 Ry
     hartree contribution      =     170.14559326 Ry
     xc contribution           =    -130.99423385 Ry
     ewald contribution        =    -704.72082665 Ry
     smearing contrib. (-TS)   =      -0.00789038 Ry

     convergence has been achieved in  29 iterations

     Forces acting on atoms (cartesian axes, Ry/au):

     atom    1 type  1   force =    -0.00115251   -0.00180210    0.00644705
     atom    2 type  2   force =    -0.00009409   -0.00110701    0.00348201
     atom    3 type  2   force =     0.00102551   -0.00045664   -0.00348082
     atom    4 type  2   force =    -0.00100574    0.00047202    0.00348201
     atom    5 type  2   force =     0.00011729    0.00111644   -0.00348082
     atom    6 type  1   force =     0.00113085    0.00178999   -0.00644824
     atom    7 type  1   force =    -0.00213692   -0.00009705    0.00644705
     atom    8 type  1   force =     0.00211560    0.00008435   -0.00644824

     Total force =     0.015423     Total SCF correction =     0.000004


     Computing stress (Cartesian axis) and pressure

          total   stress  (Ry/bohr**3)                   (kbar)     P= -125.53
  -0.00092399  -0.00002166   0.00000620       -135.92     -3.19      0.91
  -0.00002166  -0.00089897   0.00000358         -3.19   -132.24      0.53
   0.00000620   0.00000358  -0.00073701          0.91      0.53   -108.42


     BFGS Geometry Optimization

     number of scf cycles    =   1
     number of bfgs steps    =   0

     enthalpy new            =    -938.1897527213 Ry

     new trust radius        =       0.1517159643 bohr
     new conv_thr            =            1.0E-10 Ry

     new unit-cell volume =   1010.26671 a.u.^3 (   149.70608 Ang^3 )
     density =      6.24583 g/cm^3

CELL_PARAMETERS (alat=  1.88972599)
  -1.487990506   2.579054782   4.880842608
  -1.489531546   2.578165063  -4.880842608
  -4.460570037  -2.575311497  -0.000943692

ATOMIC_POSITIONS (angstrom)
Nb      -7.438686835   2.580976784   0.002404902
Ti      -2.977001688   3.437900564  -2.438769998
Ti      -4.462896569   2.580022462  -0.002279813
Ti      -4.463377928   0.861756922  -2.439241844
Ti      -5.949271034   0.003875745  -0.002751659
Nb      -2.975599576   3.439843177   2.436914808
Nb      -2.975769662   0.001599929   0.002876748
Nb      -4.460994520   0.861999880   2.436442962


     NEW-OLD atomic charge density approx. for the potential

     Check: negative/imaginary core charge=   -0.000001    0.000000
     extrapolated charge   93.58435, renormalised to  100.00000

     total cpu time spent up to now is     1863.2 secs

     Self-consistent Calculation

     iteration #  1     ecut=    40.00 Ry     beta= 0.60
     Davidson diagonalization with overlap
     c_bands:  1 eigenvalues not converged
     c_bands:  1 eigenvalues not converged
     c_bands:  1 eigenvalues not converged
     c_bands:  1 eigenvalues not converged
     c_bands:  3 eigenvalues not converged
     c_bands:  2 eigenvalues not converged
     c_bands:  1 eigenvalues not converged
     c_bands:  1 eigenvalues not converged
     c_bands:  1 eigenvalues not converged
     c_bands:  1 eigenvalues not converged
     c_bands:  2 eigenvalues not converged
     c_bands:  1 eigenvalues not converged
     c_bands:  1 eigenvalues not converged
     c_bands:  1 eigenvalues not converged
     c_bands:  1 eigenvalues not converged
     c_bands:  2 eigenvalues not converged
     c_bands:  1 eigenvalues not converged
     c_bands:  1 eigenvalues not converged
     c_bands:  1 eigenvalues not converged
     c_bands:  1 eigenvalues not converged
     c_bands:  1 eigenvalues not converged
     c_bands:  3 eigenvalues not converged
     c_bands:  3 eigenvalues not converged
     c_bands:  3 eigenvalues not converged
     c_bands:  3 eigenvalues not converged
     c_bands:  2 eigenvalues not converged
     c_bands:  1 eigenvalues not converged
     c_bands:  1 eigenvalues not converged
     c_bands:  2 eigenvalues not converged
     c_bands:  1 eigenvalues not converged
     c_bands:  1 eigenvalues not converged
     c_bands:  1 eigenvalues not converged
     c_bands:  1 eigenvalues not converged
     c_bands:  1 eigenvalues not converged
     c_bands:  2 eigenvalues not converged
     c_bands:  1 eigenvalues not converged
     c_bands:  1 eigenvalues not converged
     c_bands:  2 eigenvalues not converged
     c_bands:  2 eigenvalues not converged
     c_bands:  1 eigenvalues not converged
     c_bands:  1 eigenvalues not converged
     c_bands:  1 eigenvalues not converged
     c_bands:  1 eigenvalues not converged
     c_bands:  3 eigenvalues not converged
     c_bands:  1 eigenvalues not converged
     c_bands:  1 eigenvalues not converged
     c_bands:  3 eigenvalues not converged
     c_bands:  2 eigenvalues not converged
     c_bands:  1 eigenvalues not converged
     c_bands:  1 eigenvalues not converged
     c_bands:  2 eigenvalues not converged
     c_bands:  1 eigenvalues not converged
     c_bands:  1 eigenvalues not converged
     c_bands:  1 eigenvalues not converged
     c_bands:  2 eigenvalues not converged
     c_bands:  2 eigenvalues not converged
     c_bands:  1 eigenvalues not converged
     c_bands:  1 eigenvalues not converged
     c_bands:  1 eigenvalues not converged
     c_bands:  1 eigenvalues not converged
     c_bands:  1 eigenvalues not converged
     c_bands:  1 eigenvalues not converged
     c_bands:  1 eigenvalues not converged
     c_bands:  1 eigenvalues not converged
     c_bands:  1 eigenvalues not converged
     c_bands:  2 eigenvalues not converged
     c_bands:  2 eigenvalues not converged
     c_bands:  2 eigenvalues not converged
     c_bands:  1 eigenvalues not converged
     c_bands:  1 eigenvalues not converged
     c_bands:  1 eigenvalues not converged
     c_bands:  1 eigenvalues not converged
     c_bands:  1 eigenvalues not converged
     c_bands:  1 eigenvalues not converged
     c_bands:  2 eigenvalues not converged
     c_bands:  1 eigenvalues not converged
     c_bands:  1 eigenvalues not converged
     c_bands:  2 eigenvalues not converged
     c_bands:  1 eigenvalues not converged
     c_bands:  1 eigenvalues not converged
     c_bands:  1 eigenvalues not converged
     c_bands:  1 eigenvalues not converged
     c_bands:  2 eigenvalues not converged
     c_bands:  2 eigenvalues not converged
     c_bands:  1 eigenvalues not converged
     c_bands:  1 eigenvalues not converged
     c_bands:  1 eigenvalues not converged
     c_bands:  1 eigenvalues not converged
     c_bands:  1 eigenvalues not converged
     c_bands:  2 eigenvalues not converged
     c_bands:  2 eigenvalues not converged
     c_bands:  1 eigenvalues not converged
     c_bands:  1 eigenvalues not converged
     c_bands:  1 eigenvalues not converged
     c_bands:  1 eigenvalues not converged
     c_bands:  1 eigenvalues not converged
     c_bands:  1 eigenvalues not converged
     c_bands:  1 eigenvalues not converged
     c_bands:  1 eigenvalues not converged
     c_bands:  1 eigenvalues not converged
     c_bands:  1 eigenvalues not converged
     c_bands:  1 eigenvalues not converged
     c_bands:  4 eigenvalues not converged
     c_bands:  1 eigenvalues not converged
     c_bands:  2 eigenvalues not converged
     c_bands:  3 eigenvalues not converged
     c_bands:  2 eigenvalues not converged
     c_bands:  1 eigenvalues not converged
     c_bands:  1 eigenvalues not converged
     c_bands:  1 eigenvalues not converged
     c_bands:  1 eigenvalues not converged
     c_bands:  1 eigenvalues not converged
     c_bands:  1 eigenvalues not converged
     c_bands:  1 eigenvalues not converged
     c_bands:  1 eigenvalues not converged
     c_bands:  1 eigenvalues not converged
     c_bands:  1 eigenvalues not converged
     c_bands:  2 eigenvalues not converged
     c_bands:  1 eigenvalues not converged
     c_bands:  1 eigenvalues not converged
     c_bands:  3 eigenvalues not converged
     c_bands:  1 eigenvalues not converged
     c_bands:  1 eigenvalues not converged
     c_bands:  1 eigenvalues not converged
     c_bands:  1 eigenvalues not converged
     c_bands:  2 eigenvalues not converged
     c_bands:  1 eigenvalues not converged
     c_bands:  2 eigenvalues not converged
     c_bands:  1 eigenvalues not converged
     c_bands:  1 eigenvalues not converged
     c_bands:  1 eigenvalues not converged
     c_bands:  1 eigenvalues not converged
     c_bands:  1 eigenvalues not converged
     c_bands:  1 eigenvalues not converged
     c_bands:  1 eigenvalues not converged
     c_bands:  1 eigenvalues not converged
     c_bands:  1 eigenvalues not converged
     c_bands:  1 eigenvalues not converged
     c_bands:  1 eigenvalues not converged
     c_bands:  1 eigenvalues not converged
     c_bands:  2 eigenvalues not converged
     c_bands:  2 eigenvalues not converged
     c_bands:  2 eigenvalues not converged
     c_bands:  1 eigenvalues not converged
     c_bands:  1 eigenvalues not converged
     c_bands:  2 eigenvalues not converged
     c_bands:  1 eigenvalues not converged
     c_bands:  1 eigenvalues not converged
     c_bands:  1 eigenvalues not converged
     c_bands:  1 eigenvalues not converged
     c_bands:  1 eigenvalues not converged
     c_bands:  1 eigenvalues not converged
     c_bands:  1 eigenvalues not converged
     c_bands:  2 eigenvalues not converged
     c_bands:  1 eigenvalues not converged
     c_bands:  1 eigenvalues not converged
     c_bands:  1 eigenvalues not converged
     c_bands:  1 eigenvalues not converged
     c_bands:  1 eigenvalues not converged
     ethr =  1.00E-06,  avg # of iterations = 18.9

     total cpu time spent up to now is     2088.4 secs

     total energy              =    -928.70653982 Ry
     Harris-Foulkes estimate   =    -950.32122772 Ry
     estimated scf accuracy    <      10.08448685 Ry

     iteration #  2     ecut=    40.00 Ry     beta= 0.60
     Davidson diagonalization with overlap
     ethr =  1.00E-02,  avg # of iterations =  5.1

     total cpu time spent up to now is     2190.1 secs

     total energy              =    -937.26818066 Ry
     Harris-Foulkes estimate   =    -953.27680516 Ry
     estimated scf accuracy    <      53.00880761 Ry

     iteration #  3     ecut=    40.00 Ry     beta= 0.60
     Davidson diagonalization with overlap
     ethr =  1.00E-02,  avg # of iterations =  3.6

     total cpu time spent up to now is     2255.1 secs

     total energy              =    -938.39647252 Ry
     Harris-Foulkes estimate   =    -940.49168633 Ry
     estimated scf accuracy    <      10.78609800 Ry

     iteration #  4     ecut=    40.00 Ry     beta= 0.60
     Davidson diagonalization with overlap
     ethr =  1.00E-02,  avg # of iterations =  1.5

     total cpu time spent up to now is     2302.3 secs

     total energy              =    -937.72481911 Ry
     Harris-Foulkes estimate   =    -938.71576586 Ry
     estimated scf accuracy    <       6.27081584 Ry

     iteration #  5     ecut=    40.00 Ry     beta= 0.60
     Davidson diagonalization with overlap
     ethr =  6.27E-03,  avg # of iterations =  3.8

     total cpu time spent up to now is     2360.7 secs

     total energy              =    -938.28357231 Ry
     Harris-Foulkes estimate   =    -938.23334717 Ry
     estimated scf accuracy    <       0.81264840 Ry

     iteration #  6     ecut=    40.00 Ry     beta= 0.60
     Davidson diagonalization with overlap
     ethr =  8.13E-04,  avg # of iterations =  5.8

     total cpu time spent up to now is     2437.3 secs

     total energy              =    -938.36670192 Ry
     Harris-Foulkes estimate   =    -938.39120497 Ry
     estimated scf accuracy    <       0.87241008 Ry

     iteration #  7     ecut=    40.00 Ry     beta= 0.60
     Davidson diagonalization with overlap
     ethr =  8.13E-04,  avg # of iterations =  1.1

     total cpu time spent up to now is     2483.5 secs

     total energy              =    -938.27407957 Ry
     Harris-Foulkes estimate   =    -938.37126328 Ry
     estimated scf accuracy    <       0.90806871 Ry

     iteration #  8     ecut=    40.00 Ry     beta= 0.60
     Davidson diagonalization with overlap
     ethr =  8.13E-04,  avg # of iterations =  1.1

     total cpu time spent up to now is     2529.6 secs

     total energy              =    -938.28869451 Ry
     Harris-Foulkes estimate   =    -938.28356927 Ry
     estimated scf accuracy    <       0.51129316 Ry

     iteration #  9     ecut=    40.00 Ry     beta= 0.60
     Davidson diagonalization with overlap
     ethr =  5.11E-04,  avg # of iterations =  1.0

     total cpu time spent up to now is     2575.5 secs

     total energy              =    -938.22268237 Ry
     Harris-Foulkes estimate   =    -938.29047540 Ry
     estimated scf accuracy    <       0.52970944 Ry

     iteration # 10     ecut=    40.00 Ry     beta= 0.60
     Davidson diagonalization with overlap
     ethr =  5.11E-04,  avg # of iterations =  1.1

     total cpu time spent up to now is     2621.6 secs

     total energy              =    -938.16081243 Ry
     Harris-Foulkes estimate   =    -938.23359423 Ry
     estimated scf accuracy    <       0.21314989 Ry

     iteration # 11     ecut=    40.00 Ry     beta= 0.60
     Davidson diagonalization with overlap
     ethr =  2.13E-04,  avg # of iterations =  5.0

     total cpu time spent up to now is     2710.8 secs

     total energy              =    -938.20099928 Ry
     Harris-Foulkes estimate   =    -938.26858265 Ry
     estimated scf accuracy    <       0.39788100 Ry

     iteration # 12     ecut=    40.00 Ry     beta= 0.60
     Davidson diagonalization with overlap
     ethr =  2.13E-04,  avg # of iterations =  4.0

     total cpu time spent up to now is     2767.9 secs

     total energy              =    -938.22465137 Ry
     Harris-Foulkes estimate   =    -938.22464912 Ry
     estimated scf accuracy    <       0.02112141 Ry

     iteration # 13     ecut=    40.00 Ry     beta= 0.60
     Davidson diagonalization with overlap
     ethr =  2.11E-05,  avg # of iterations =  5.9

     total cpu time spent up to now is     2854.0 secs

     total energy              =    -938.23318829 Ry
     Harris-Foulkes estimate   =    -938.23374960 Ry
     estimated scf accuracy    <       0.00427890 Ry

     iteration # 14     ecut=    40.00 Ry     beta= 0.60
     Davidson diagonalization with overlap
     ethr =  4.28E-06,  avg # of iterations =  2.0

     total cpu time spent up to now is     2902.9 secs

     total energy              =    -938.23339482 Ry
     Harris-Foulkes estimate   =    -938.23349484 Ry
     estimated scf accuracy    <       0.00107582 Ry

     iteration # 15     ecut=    40.00 Ry     beta= 0.60
     Davidson diagonalization with overlap
     ethr =  1.08E-06,  avg # of iterations =  4.9

     total cpu time spent up to now is     2971.3 secs

     total energy              =    -938.23348990 Ry
     Harris-Foulkes estimate   =    -938.23354573 Ry
     estimated scf accuracy    <       0.00090356 Ry

     iteration # 16     ecut=    40.00 Ry     beta= 0.60
     Davidson diagonalization with overlap
     ethr =  9.04E-07,  avg # of iterations =  1.0

     total cpu time spent up to now is     3017.2 secs

     total energy              =    -938.23346523 Ry
     Harris-Foulkes estimate   =    -938.23349942 Ry
     estimated scf accuracy    <       0.00050312 Ry

     iteration # 17     ecut=    40.00 Ry     beta= 0.60
     Davidson diagonalization with overlap
     ethr =  5.03E-07,  avg # of iterations =  1.7

     total cpu time spent up to now is     3065.1 secs

     total energy              =    -938.23341184 Ry
     Harris-Foulkes estimate   =    -938.23347729 Ry
     estimated scf accuracy    <       0.00018616 Ry

     iteration # 18     ecut=    40.00 Ry     beta= 0.60
     Davidson diagonalization with overlap
     ethr =  1.86E-07,  avg # of iterations =  4.6

     total cpu time spent up to now is     3137.5 secs

     total energy              =    -938.23341965 Ry
     Harris-Foulkes estimate   =    -938.23349520 Ry
     estimated scf accuracy    <       0.00035547 Ry

     iteration # 19     ecut=    40.00 Ry     beta= 0.60
     Davidson diagonalization with overlap
     ethr =  1.86E-07,  avg # of iterations =  4.1

     total cpu time spent up to now is     3203.2 secs

     total energy              =    -938.23345896 Ry
     Harris-Foulkes estimate   =    -938.23346868 Ry
     estimated scf accuracy    <       0.00004865 Ry

     iteration # 20     ecut=    40.00 Ry     beta= 0.60
     Davidson diagonalization with overlap
     ethr =  4.86E-08,  avg # of iterations =  3.9

     total cpu time spent up to now is     3261.7 secs

     total energy              =    -938.23346490 Ry
     Harris-Foulkes estimate   =    -938.23346552 Ry
     estimated scf accuracy    <       0.00001012 Ry

     iteration # 21     ecut=    40.00 Ry     beta= 0.60
     Davidson diagonalization with overlap
     ethr =  1.01E-08,  avg # of iterations =  4.2

     total cpu time spent up to now is     3327.4 secs

     total energy              =    -938.23346294 Ry
     Harris-Foulkes estimate   =    -938.23346700 Ry
     estimated scf accuracy    <       0.00001996 Ry

     iteration # 22     ecut=    40.00 Ry     beta= 0.60
     Davidson diagonalization with overlap
     ethr =  1.01E-08,  avg # of iterations =  4.1

     total cpu time spent up to now is     3393.1 secs

     total energy              =    -938.23346509 Ry
     Harris-Foulkes estimate   =    -938.23346534 Ry
     estimated scf accuracy    <       0.00000163 Ry

     iteration # 23     ecut=    40.00 Ry     beta= 0.60
     Davidson diagonalization with overlap
     ethr =  1.63E-09,  avg # of iterations =  2.4

     total cpu time spent up to now is     3444.6 secs

     total energy              =    -938.23346516 Ry
     Harris-Foulkes estimate   =    -938.23346521 Ry
     estimated scf accuracy    <       0.00000031 Ry

     iteration # 24     ecut=    40.00 Ry     beta= 0.60
     Davidson diagonalization with overlap
     ethr =  3.08E-10,  avg # of iterations =  4.3

     total cpu time spent up to now is     3513.7 secs

     total energy              =    -938.23346523 Ry
     Harris-Foulkes estimate   =    -938.23346524 Ry
     estimated scf accuracy    <       0.00000010 Ry

     iteration # 25     ecut=    40.00 Ry     beta= 0.60
     Davidson diagonalization with overlap
     ethr =  1.04E-10,  avg # of iterations =  1.0

     total cpu time spent up to now is     3559.7 secs

     total energy              =    -938.23346523 Ry
     Harris-Foulkes estimate   =    -938.23346523 Ry
     estimated scf accuracy    <       0.00000003 Ry

     iteration # 26     ecut=    40.00 Ry     beta= 0.60
     Davidson diagonalization with overlap
     ethr =  3.27E-11,  avg # of iterations =  4.1

     total cpu time spent up to now is     3626.6 secs

     total energy              =    -938.23346523 Ry
     Harris-Foulkes estimate   =    -938.23346523 Ry
     estimated scf accuracy    <       0.00000001 Ry

     iteration # 27     ecut=    40.00 Ry     beta= 0.60
     Davidson diagonalization with overlap
     ethr =  1.35E-11,  avg # of iterations =  1.6

     total cpu time spent up to now is     3674.3 secs

     total energy              =    -938.23346523 Ry
     Harris-Foulkes estimate   =    -938.23346523 Ry
     estimated scf accuracy    <          8.7E-10 Ry

     iteration # 28     ecut=    40.00 Ry     beta= 0.60
     Davidson diagonalization with overlap
     ethr =  8.68E-13,  avg # of iterations =  5.0

     total cpu time spent up to now is     3751.8 secs

     total energy              =    -938.23346523 Ry
     Harris-Foulkes estimate   =    -938.23346523 Ry
     estimated scf accuracy    <          1.3E-09 Ry

     iteration # 29     ecut=    40.00 Ry     beta= 0.60
     Davidson diagonalization with overlap
     ethr =  8.68E-13,  avg # of iterations =  1.0

     total cpu time spent up to now is     3797.7 secs

     total energy              =    -938.23346523 Ry
     Harris-Foulkes estimate   =    -938.23346523 Ry
     estimated scf accuracy    <          3.8E-10 Ry

     iteration # 30     ecut=    40.00 Ry     beta= 0.60
     Davidson diagonalization with overlap
     ethr =  3.84E-13,  avg # of iterations =  3.9

     total cpu time spent up to now is     3857.8 secs

     End of self-consistent calculation

     Number of k-points >= 100: set verbosity='high' to print the bands.

     the Fermi energy is    14.9302 ev

!    total energy              =    -938.23346523 Ry
     Harris-Foulkes estimate   =    -938.23346523 Ry
     estimated scf accuracy    <          2.9E-12 Ry

     The total energy is the sum of the following terms:

     one-electron contribution =    -250.10525470 Ry
     hartree contribution      =     163.41680316 Ry
     xc contribution           =    -131.44050401 Ry
     ewald contribution        =    -720.09775745 Ry
     smearing contrib. (-TS)   =      -0.00675223 Ry

     convergence has been achieved in  30 iterations

     Forces acting on atoms (cartesian axes, Ry/au):

     atom    1 type  1   force =    -0.00016886   -0.00374477    0.00768132
     atom    2 type  2   force =     0.00102895   -0.00201869    0.00564875
     atom    3 type  2   force =     0.00126219   -0.00188260   -0.00564851
     atom    4 type  2   force =    -0.00123376    0.00190044    0.00564875
     atom    5 type  2   force =    -0.00099928    0.00203439   -0.00564851
     atom    6 type  1   force =     0.00014008    0.00372753   -0.00768157
     atom    7 type  1   force =    -0.00332750    0.00172615    0.00768132
     atom    8 type  1   force =     0.00329818   -0.00174245   -0.00768157

     Total force =     0.020979     Total SCF correction =     0.000003


     Computing stress (Cartesian axis) and pressure

          total   stress  (Ry/bohr**3)                   (kbar)     P=  -57.51
  -0.00047155  -0.00002134   0.00000195        -69.37     -3.14      0.29
  -0.00002134  -0.00044690   0.00000113         -3.14    -65.74      0.17
   0.00000195   0.00000113  -0.00025432          0.29      0.17    -37.41


     number of scf cycles    =   2
     number of bfgs steps    =   1

     enthalpy old            =    -938.1897527213 Ry
     enthalpy new            =    -938.2334652319 Ry

     CASE: enthalpy_new < enthalpy_old

     new trust radius        =       0.1376191988 bohr
     new conv_thr            =            1.0E-10 Ry

     new unit-cell volume =    956.83259 a.u.^3 (   141.78796 Ang^3 )
     density =      6.59463 g/cm^3

CELL_PARAMETERS (alat=  1.88972599)
  -1.457884756   2.527965929   4.823688373
  -1.460340173   2.526548294  -4.823688373
  -4.361562356  -2.518149390  -0.001496653

ATOMIC_POSITIONS (angstrom)
Nb      -7.280524296   2.532065084   0.008922133
Ti      -2.915326872   3.368448311  -2.405094035
Ti      -4.367784539   2.529876451  -0.007747049
Ti      -4.369062725   0.850094079  -2.405842362
Ti      -5.821517497   0.011517204  -0.008495376
Nb      -2.914280432   3.375825693   2.401175089
Nb      -2.914429608   0.006065464   0.009670459
Nb      -4.362150505   0.847311632   2.400426763


     NEW-OLD atomic charge density approx. for the potential

     Check: negative/imaginary core charge=   -0.000001    0.000000
     extrapolated charge   94.63952, renormalised to  100.00000

     total cpu time spent up to now is     3886.7 secs

     Self-consistent Calculation

     iteration #  1     ecut=    40.00 Ry     beta= 0.60
     Davidson diagonalization with overlap
     c_bands:  2 eigenvalues not converged
     c_bands:  2 eigenvalues not converged
     c_bands:  2 eigenvalues not converged
     c_bands:  1 eigenvalues not converged
     c_bands:  1 eigenvalues not converged
     c_bands:  1 eigenvalues not converged
     c_bands:  1 eigenvalues not converged
     c_bands:  4 eigenvalues not converged
     c_bands:  1 eigenvalues not converged
     c_bands:  3 eigenvalues not converged
     c_bands:  2 eigenvalues not converged
     c_bands:  2 eigenvalues not converged
     c_bands:  2 eigenvalues not converged
     c_bands:  1 eigenvalues not converged
     c_bands:  1 eigenvalues not converged
     c_bands:  1 eigenvalues not converged
     c_bands:  1 eigenvalues not converged
     c_bands:  1 eigenvalues not converged
     c_bands:  1 eigenvalues not converged
     c_bands:  1 eigenvalues not converged
     c_bands:  1 eigenvalues not converged
     c_bands:  1 eigenvalues not converged
     c_bands:  1 eigenvalues not converged
     c_bands:  2 eigenvalues not converged
     c_bands:  1 eigenvalues not converged
     c_bands:  2 eigenvalues not converged
     c_bands:  2 eigenvalues not converged
     c_bands:  2 eigenvalues not converged
     c_bands:  1 eigenvalues not converged
     c_bands:  1 eigenvalues not converged
     c_bands:  3 eigenvalues not converged
     c_bands:  1 eigenvalues not converged
     c_bands:  1 eigenvalues not converged
     c_bands:  2 eigenvalues not converged
     c_bands:  1 eigenvalues not converged
     c_bands:  1 eigenvalues not converged
     c_bands:  1 eigenvalues not converged
     c_bands:  2 eigenvalues not converged
     c_bands:  1 eigenvalues not converged
     c_bands:  1 eigenvalues not converged
     c_bands:  1 eigenvalues not converged
     c_bands:  1 eigenvalues not converged
     c_bands:  1 eigenvalues not converged
     c_bands:  1 eigenvalues not converged
     c_bands:  2 eigenvalues not converged
     c_bands:  1 eigenvalues not converged
     c_bands:  2 eigenvalues not converged
     c_bands:  1 eigenvalues not converged
     c_bands:  1 eigenvalues not converged
     c_bands:  1 eigenvalues not converged
     c_bands:  1 eigenvalues not converged
     c_bands:  1 eigenvalues not converged
     c_bands:  1 eigenvalues not converged
     c_bands:  2 eigenvalues not converged
     c_bands:  1 eigenvalues not converged
     c_bands:  1 eigenvalues not converged
     c_bands:  1 eigenvalues not converged
     c_bands:  1 eigenvalues not converged
     c_bands:  1 eigenvalues not converged
     c_bands:  2 eigenvalues not converged
     c_bands:  1 eigenvalues not converged
     c_bands:  1 eigenvalues not converged
     c_bands:  1 eigenvalues not converged
     c_bands:  2 eigenvalues not converged
     c_bands:  1 eigenvalues not converged
     c_bands:  3 eigenvalues not converged
     c_bands:  2 eigenvalues not converged
     c_bands:  1 eigenvalues not converged
     c_bands:  1 eigenvalues not converged
     c_bands:  1 eigenvalues not converged
     c_bands:  2 eigenvalues not converged
     c_bands:  1 eigenvalues not converged
     c_bands:  1 eigenvalues not converged
     c_bands:  1 eigenvalues not converged
     c_bands:  2 eigenvalues not converged
     c_bands:  1 eigenvalues not converged
     c_bands:  1 eigenvalues not converged
     c_bands:  1 eigenvalues not converged
     c_bands:  2 eigenvalues not converged
     c_bands:  1 eigenvalues not converged
     c_bands:  1 eigenvalues not converged
     c_bands:  2 eigenvalues not converged
     c_bands:  2 eigenvalues not converged
     c_bands:  1 eigenvalues not converged
     c_bands:  1 eigenvalues not converged
     c_bands:  1 eigenvalues not converged
     c_bands:  1 eigenvalues not converged
     c_bands:  1 eigenvalues not converged
     c_bands:  1 eigenvalues not converged
     c_bands:  1 eigenvalues not converged
     c_bands:  1 eigenvalues not converged
     c_bands:  2 eigenvalues not converged
     c_bands:  1 eigenvalues not converged
     c_bands:  1 eigenvalues not converged
     c_bands:  2 eigenvalues not converged
     c_bands:  1 eigenvalues not converged
     c_bands:  2 eigenvalues not converged
     c_bands:  2 eigenvalues not converged
     c_bands:  1 eigenvalues not converged
     c_bands:  1 eigenvalues not converged
     c_bands:  1 eigenvalues not converged
     c_bands:  1 eigenvalues not converged
     c_bands:  1 eigenvalues not converged
     c_bands:  2 eigenvalues not converged
     c_bands:  2 eigenvalues not converged
     c_bands:  2 eigenvalues not converged
     c_bands:  2 eigenvalues not converged
     c_bands:  1 eigenvalues not converged
     c_bands:  1 eigenvalues not converged
     c_bands:  1 eigenvalues not converged
     c_bands:  2 eigenvalues not converged
     c_bands:  2 eigenvalues not converged
     c_bands:  1 eigenvalues not converged
     c_bands:  1 eigenvalues not converged
     c_bands:  2 eigenvalues not converged
     c_bands:  1 eigenvalues not converged
     c_bands:  1 eigenvalues not converged
     c_bands:  1 eigenvalues not converged
     c_bands:  2 eigenvalues not converged
     c_bands:  1 eigenvalues not converged
     c_bands:  1 eigenvalues not converged
     c_bands:  1 eigenvalues not converged
     c_bands:  1 eigenvalues not converged
     c_bands:  1 eigenvalues not converged
     c_bands:  1 eigenvalues not converged
     c_bands:  1 eigenvalues not converged
     c_bands:  1 eigenvalues not converged
     c_bands:  1 eigenvalues not converged
     c_bands:  2 eigenvalues not converged
     c_bands:  2 eigenvalues not converged
     c_bands:  2 eigenvalues not converged
     c_bands:  1 eigenvalues not converged
     c_bands:  2 eigenvalues not converged
     c_bands:  1 eigenvalues not converged
     c_bands:  1 eigenvalues not converged
     c_bands:  1 eigenvalues not converged
     c_bands:  2 eigenvalues not converged
     c_bands:  1 eigenvalues not converged
     c_bands:  2 eigenvalues not converged
     c_bands:  1 eigenvalues not converged
     c_bands:  1 eigenvalues not converged
     c_bands:  1 eigenvalues not converged
     ethr =  1.00E-06,  avg # of iterations = 18.2

     total cpu time spent up to now is     4096.4 secs

     total energy              =    -933.52252555 Ry
     Harris-Foulkes estimate   =    -947.51567240 Ry
     estimated scf accuracy    <       4.83045316 Ry

     iteration #  2     ecut=    40.00 Ry     beta= 0.60
     Davidson diagonalization with overlap
     ethr =  4.83E-03,  avg # of iterations =  5.3

     total cpu time spent up to now is     4199.8 secs

     total energy              =    -937.08843439 Ry
     Harris-Foulkes estimate   =    -946.35495728 Ry
     estimated scf accuracy    <      34.40716998 Ry

     iteration #  3     ecut=    40.00 Ry     beta= 0.60
     Davidson diagonalization with overlap
     ethr =  4.83E-03,  avg # of iterations =  4.9

     total cpu time spent up to now is     4278.6 secs

     total energy              =    -938.42414729 Ry
     Harris-Foulkes estimate   =    -939.33208449 Ry
     estimated scf accuracy    <       4.58137380 Ry

     iteration #  4     ecut=    40.00 Ry     beta= 0.60
     Davidson diagonalization with overlap
     ethr =  4.58E-03,  avg # of iterations =  1.3

     total cpu time spent up to now is     4325.2 secs

     total energy              =    -938.12502057 Ry
     Harris-Foulkes estimate   =    -938.54676060 Ry
     estimated scf accuracy    <       2.83354396 Ry

     iteration #  5     ecut=    40.00 Ry     beta= 0.60
     Davidson diagonalization with overlap
     ethr =  2.83E-03,  avg # of iterations =  2.6

     total cpu time spent up to now is     4378.1 secs

     total energy              =    -938.24655800 Ry
     Harris-Foulkes estimate   =    -938.27721333 Ry
     estimated scf accuracy    <       0.66577009 Ry

     iteration #  6     ecut=    40.00 Ry     beta= 0.60
     Davidson diagonalization with overlap
     ethr =  6.66E-04,  avg # of iterations =  4.2

     total cpu time spent up to now is     4435.6 secs

     total energy              =    -938.24894537 Ry
     Harris-Foulkes estimate   =    -938.27514991 Ry
     estimated scf accuracy    <       0.40215898 Ry

     iteration #  7     ecut=    40.00 Ry     beta= 0.60
     Davidson diagonalization with overlap
     ethr =  4.02E-04,  avg # of iterations =  3.5

     total cpu time spent up to now is     4489.3 secs

     total energy              =    -938.21246242 Ry
     Harris-Foulkes estimate   =    -938.26048322 Ry
     estimated scf accuracy    <       0.26855638 Ry

     iteration #  8     ecut=    40.00 Ry     beta= 0.60
     Davidson diagonalization with overlap
     ethr =  2.69E-04,  avg # of iterations =  5.4

     total cpu time spent up to now is     4559.3 secs

     total energy              =    -938.24586031 Ry
     Harris-Foulkes estimate   =    -938.24332885 Ry
     estimated scf accuracy    <       0.00478208 Ry

     iteration #  9     ecut=    40.00 Ry     beta= 0.60
     Davidson diagonalization with overlap
     ethr =  4.78E-06,  avg # of iterations =  6.5

     total cpu time spent up to now is     4663.0 secs

     total energy              =    -938.25127615 Ry
     Harris-Foulkes estimate   =    -938.24944770 Ry
     estimated scf accuracy    <       0.02663408 Ry

     iteration # 10     ecut=    40.00 Ry     beta= 0.60
     Davidson diagonalization with overlap
     ethr =  4.78E-06,  avg # of iterations =  1.0

     total cpu time spent up to now is     4708.8 secs

     total energy              =    -938.23746594 Ry
     Harris-Foulkes estimate   =    -938.25144772 Ry
     estimated scf accuracy    <       0.03723138 Ry

     iteration # 11     ecut=    40.00 Ry     beta= 0.60
     Davidson diagonalization with overlap
     c_bands:  1 eigenvalues not converged
     ethr =  4.78E-06,  avg # of iterations =  5.3

     total cpu time spent up to now is     4812.8 secs

     total energy              =    -938.24369777 Ry
     Harris-Foulkes estimate   =    -938.24487172 Ry
     estimated scf accuracy    <       0.00624146 Ry

     iteration # 12     ecut=    40.00 Ry     beta= 0.60
     Davidson diagonalization with overlap
     ethr =  4.78E-06,  avg # of iterations =  2.8

     total cpu time spent up to now is     4864.1 secs

     total energy              =    -938.24391101 Ry
     Harris-Foulkes estimate   =    -938.24411383 Ry
     estimated scf accuracy    <       0.00083085 Ry

     iteration # 13     ecut=    40.00 Ry     beta= 0.60
     Davidson diagonalization with overlap
     ethr =  8.31E-07,  avg # of iterations =  4.9

     total cpu time spent up to now is     4942.2 secs

     total energy              =    -938.24424283 Ry
     Harris-Foulkes estimate   =    -938.24433311 Ry
     estimated scf accuracy    <       0.00116701 Ry

     iteration # 14     ecut=    40.00 Ry     beta= 0.60
     Davidson diagonalization with overlap
     ethr =  8.31E-07,  avg # of iterations =  1.0

     total cpu time spent up to now is     4988.1 secs

     total energy              =    -938.24419540 Ry
     Harris-Foulkes estimate   =    -938.24425703 Ry
     estimated scf accuracy    <       0.00055359 Ry

     iteration # 15     ecut=    40.00 Ry     beta= 0.60
     Davidson diagonalization with overlap
     ethr =  5.54E-07,  avg # of iterations =  3.0

     total cpu time spent up to now is     5043.4 secs

     total energy              =    -938.24423078 Ry
     Harris-Foulkes estimate   =    -938.24423212 Ry
     estimated scf accuracy    <       0.00002260 Ry

     iteration # 16     ecut=    40.00 Ry     beta= 0.60
     Davidson diagonalization with overlap
     ethr =  2.26E-08,  avg # of iterations =  4.4

     total cpu time spent up to now is     5111.8 secs

     total energy              =    -938.24423606 Ry
     Harris-Foulkes estimate   =    -938.24423608 Ry
     estimated scf accuracy    <       0.00000378 Ry

     iteration # 17     ecut=    40.00 Ry     beta= 0.60
     Davidson diagonalization with overlap
     ethr =  3.78E-09,  avg # of iterations =  2.5

     total cpu time spent up to now is     5163.5 secs

     total energy              =    -938.24423570 Ry
     Harris-Foulkes estimate   =    -938.24423629 Ry
     estimated scf accuracy    <       0.00000434 Ry

     iteration # 18     ecut=    40.00 Ry     beta= 0.60
     Davidson diagonalization with overlap
     ethr =  3.78E-09,  avg # of iterations =  3.0

     total cpu time spent up to now is     5215.9 secs

     total energy              =    -938.24423581 Ry
     Harris-Foulkes estimate   =    -938.24423591 Ry
     estimated scf accuracy    <       0.00000062 Ry

     iteration # 19     ecut=    40.00 Ry     beta= 0.60
     Davidson diagonalization with overlap
     ethr =  6.15E-10,  avg # of iterations =  4.7

     total cpu time spent up to now is     5288.0 secs

     total energy              =    -938.24423600 Ry
     Harris-Foulkes estimate   =    -938.24423600 Ry
     estimated scf accuracy    <       0.00000029 Ry

     iteration # 20     ecut=    40.00 Ry     beta= 0.60
     Davidson diagonalization with overlap
     ethr =  2.86E-10,  avg # of iterations =  1.0

     total cpu time spent up to now is     5333.9 secs

     total energy              =    -938.24423597 Ry
     Harris-Foulkes estimate   =    -938.24423601 Ry
     estimated scf accuracy    <       0.00000031 Ry

     iteration # 21     ecut=    40.00 Ry     beta= 0.60
     Davidson diagonalization with overlap
     ethr =  2.86E-10,  avg # of iterations =  1.0

     total cpu time spent up to now is     5379.8 secs

     total energy              =    -938.24423597 Ry
     Harris-Foulkes estimate   =    -938.24423598 Ry
     estimated scf accuracy    <       0.00000008 Ry

     iteration # 22     ecut=    40.00 Ry     beta= 0.60
     Davidson diagonalization with overlap
     ethr =  8.33E-11,  avg # of iterations =  4.0

     total cpu time spent up to now is     5443.0 secs

     total energy              =    -938.24423598 Ry
     Harris-Foulkes estimate   =    -938.24423598 Ry
     estimated scf accuracy    <          3.9E-09 Ry

     iteration # 23     ecut=    40.00 Ry     beta= 0.60
     Davidson diagonalization with overlap
     ethr =  3.87E-12,  avg # of iterations =  3.3

     total cpu time spent up to now is     5502.4 secs

     total energy              =    -938.24423598 Ry
     Harris-Foulkes estimate   =    -938.24423598 Ry
     estimated scf accuracy    <          6.8E-10 Ry

     iteration # 24     ecut=    40.00 Ry     beta= 0.60
     Davidson diagonalization with overlap
     ethr =  6.82E-13,  avg # of iterations =  3.6

     total cpu time spent up to now is     5559.3 secs

     total energy              =    -938.24423598 Ry
     Harris-Foulkes estimate   =    -938.24423598 Ry
     estimated scf accuracy    <          2.6E-10 Ry

     iteration # 25     ecut=    40.00 Ry     beta= 0.60
     Davidson diagonalization with overlap
     ethr =  2.57E-13,  avg # of iterations =  4.3

     total cpu time spent up to now is     5628.5 secs

     total energy              =    -938.24423598 Ry
     Harris-Foulkes estimate   =    -938.24423598 Ry
     estimated scf accuracy    <          1.7E-10 Ry

     iteration # 26     ecut=    40.00 Ry     beta= 0.60
     Davidson diagonalization with overlap
     ethr =  1.73E-13,  avg # of iterations =  1.0

     total cpu time spent up to now is     5674.4 secs

     End of self-consistent calculation

     Number of k-points >= 100: set verbosity='high' to print the bands.

     the Fermi energy is    15.8965 ev

!    total energy              =    -938.24423598 Ry
     Harris-Foulkes estimate   =    -938.24423598 Ry
     estimated scf accuracy    <          4.4E-11 Ry

     The total energy is the sum of the following terms:

     one-electron contribution =    -230.96301681 Ry
     hartree contribution      =     157.84256068 Ry
     xc contribution           =    -131.84340470 Ry
     ewald contribution        =    -733.27479470 Ry
     smearing contrib. (-TS)   =      -0.00558045 Ry

     convergence has been achieved in  26 iterations

     Forces acting on atoms (cartesian axes, Ry/au):

     atom    1 type  1   force =     0.00063316   -0.00473917    0.00675428
     atom    2 type  2   force =     0.00235989   -0.00196992    0.00788699
     atom    3 type  2   force =     0.00055082   -0.00301514   -0.00788976
     atom    4 type  2   force =    -0.00052606    0.00302869    0.00788699
     atom    5 type  2   force =    -0.00233577    0.00198459   -0.00788976
     atom    6 type  1   force =    -0.00065711    0.00472421   -0.00675152
     atom    7 type  1   force =    -0.00378766    0.00291791    0.00675428
     atom    8 type  1   force =     0.00376273   -0.00293118   -0.00675152

     Total force =     0.023669     Total SCF correction =     0.000012


     Computing stress (Cartesian axis) and pressure

          total   stress  (Ry/bohr**3)                   (kbar)     P=   13.04
   0.00000683  -0.00002015  -0.00000330          1.00     -2.96     -0.49
  -0.00002015   0.00003009  -0.00000191         -2.96      4.43     -0.28
  -0.00000330  -0.00000191   0.00022904         -0.49     -0.28     33.69


     number of scf cycles    =   3
     number of bfgs steps    =   2

     enthalpy old            =    -938.2334652319 Ry
     enthalpy new            =    -938.2442359815 Ry

     CASE: enthalpy_new < enthalpy_old

     new trust radius        =       0.0288019078 bohr
     new conv_thr            =            1.0E-10 Ry

     new unit-cell volume =    961.70473 a.u.^3 (   142.50994 Ang^3 )
     density =      6.56122 g/cm^3

CELL_PARAMETERS (alat=  1.88972599)
  -1.459269635   2.529602944   4.846141605
  -1.461065429   2.528566142  -4.846141605
  -4.360307175  -2.517424712  -0.001078598

ATOMIC_POSITIONS (angstrom)
Nb      -7.281102808   2.534394862   0.012405812
Ti      -2.915513973   3.370552471  -2.412691817
Ti      -4.368500943   2.531674716  -0.011098415
Ti      -4.369344099   0.853810880  -2.413231116
Ti      -5.822328435   0.014928565  -0.011637714
Nb      -2.916105456   3.380635761   2.409406991
Nb      -2.915966477   0.008605807   0.012945111
Nb      -4.360907454   0.848256997   2.408867692


     NEW-OLD atomic charge density approx. for the potential

     Check: negative/imaginary core charge=   -0.000001    0.000000
     extrapolated charge  100.48629, renormalised to  100.00000

     total cpu time spent up to now is     5703.1 secs

     Self-consistent Calculation

     iteration #  1     ecut=    40.00 Ry     beta= 0.60
     Davidson diagonalization with overlap
     c_bands:  1 eigenvalues not converged
     c_bands:  1 eigenvalues not converged
     c_bands:  1 eigenvalues not converged
     c_bands:  1 eigenvalues not converged
     ethr =  1.00E-06,  avg # of iterations =  6.6

     total cpu time spent up to now is     5820.8 secs

     total energy              =    -938.23136616 Ry
     Harris-Foulkes estimate   =    -937.43968834 Ry
     estimated scf accuracy    <       0.01205679 Ry

     iteration #  2     ecut=    40.00 Ry     beta= 0.60
     Davidson diagonalization with overlap
     c_bands:  1 eigenvalues not converged
     c_bands:  1 eigenvalues not converged
     c_bands:  1 eigenvalues not converged
     c_bands:  1 eigenvalues not converged
     c_bands:  1 eigenvalues not converged
     c_bands:  1 eigenvalues not converged
     c_bands:  1 eigenvalues not converged
     c_bands:  1 eigenvalues not converged
     ethr =  1.21E-05,  avg # of iterations =  7.5

     total cpu time spent up to now is     5929.8 secs

     total energy              =    -938.22794021 Ry
     Harris-Foulkes estimate   =    -938.27020958 Ry
     estimated scf accuracy    <       0.26503495 Ry

     iteration #  3     ecut=    40.00 Ry     beta= 0.60
     Davidson diagonalization with overlap
     ethr =  1.21E-05,  avg # of iterations =  5.2

     total cpu time spent up to now is     6018.8 secs

     total energy              =    -938.24502621 Ry
     Harris-Foulkes estimate   =    -938.24875199 Ry
     estimated scf accuracy    <       0.01078370 Ry

     iteration #  4     ecut=    40.00 Ry     beta= 0.60
     Davidson diagonalization with overlap
     ethr =  1.08E-05,  avg # of iterations =  2.1

     total cpu time spent up to now is     6070.9 secs

     total energy              =    -938.24600961 Ry
     Harris-Foulkes estimate   =    -938.24629454 Ry
     estimated scf accuracy    <       0.00338966 Ry

     iteration #  5     ecut=    40.00 Ry     beta= 0.60
     Davidson diagonalization with overlap
     ethr =  3.39E-06,  avg # of iterations =  2.3

     total cpu time spent up to now is     6120.6 secs

     total energy              =    -938.24542843 Ry
     Harris-Foulkes estimate   =    -938.24611027 Ry
     estimated scf accuracy    <       0.00282326 Ry

     iteration #  6     ecut=    40.00 Ry     beta= 0.60
     Davidson diagonalization with overlap
     ethr =  2.82E-06,  avg # of iterations =  2.3

     total cpu time spent up to now is     6170.7 secs

     total energy              =    -938.24548736 Ry
     Harris-Foulkes estimate   =    -938.24560008 Ry
     estimated scf accuracy    <       0.00080717 Ry

     iteration #  7     ecut=    40.00 Ry     beta= 0.60
     Davidson diagonalization with overlap
     ethr =  8.07E-07,  avg # of iterations =  3.2

     total cpu time spent up to now is     6228.0 secs

     total energy              =    -938.24554478 Ry
     Harris-Foulkes estimate   =    -938.24557677 Ry
     estimated scf accuracy    <       0.00029455 Ry

     iteration #  8     ecut=    40.00 Ry     beta= 0.60
     Davidson diagonalization with overlap
     ethr =  2.95E-07,  avg # of iterations =  2.8

     total cpu time spent up to now is     6280.2 secs

     total energy              =    -938.24555438 Ry
     Harris-Foulkes estimate   =    -938.24556222 Ry
     estimated scf accuracy    <       0.00008623 Ry

     iteration #  9     ecut=    40.00 Ry     beta= 0.60
     Davidson diagonalization with overlap
     ethr =  8.62E-08,  avg # of iterations =  4.0

     total cpu time spent up to now is     6340.7 secs

     total energy              =    -938.24556117 Ry
     Harris-Foulkes estimate   =    -938.24556252 Ry
     estimated scf accuracy    <       0.00001533 Ry

     iteration # 10     ecut=    40.00 Ry     beta= 0.60
     Davidson diagonalization with overlap
     ethr =  1.53E-08,  avg # of iterations =  4.0

     total cpu time spent up to now is     6401.1 secs

     total energy              =    -938.24556194 Ry
     Harris-Foulkes estimate   =    -938.24556285 Ry
     estimated scf accuracy    <       0.00000396 Ry

     iteration # 11     ecut=    40.00 Ry     beta= 0.60
     Davidson diagonalization with overlap
     ethr =  3.96E-09,  avg # of iterations =  3.1

     total cpu time spent up to now is     6458.7 secs

     total energy              =    -938.24556203 Ry
     Harris-Foulkes estimate   =    -938.24556241 Ry
     estimated scf accuracy    <       0.00000307 Ry

     iteration # 12     ecut=    40.00 Ry     beta= 0.60
     Davidson diagonalization with overlap
     ethr =  3.07E-09,  avg # of iterations =  1.3

     total cpu time spent up to now is     6505.5 secs

     total energy              =    -938.24556203 Ry
     Harris-Foulkes estimate   =    -938.24556216 Ry
     estimated scf accuracy    <       0.00000123 Ry

     iteration # 13     ecut=    40.00 Ry     beta= 0.60
     Davidson diagonalization with overlap
     ethr =  1.23E-09,  avg # of iterations =  3.8

     total cpu time spent up to now is     6564.0 secs

     total energy              =    -938.24556211 Ry
     Harris-Foulkes estimate   =    -938.24556214 Ry
     estimated scf accuracy    <       0.00000010 Ry

     iteration # 14     ecut=    40.00 Ry     beta= 0.60
     Davidson diagonalization with overlap
     ethr =  1.01E-10,  avg # of iterations =  4.8

     total cpu time spent up to now is     6638.6 secs

     total energy              =    -938.24556214 Ry
     Harris-Foulkes estimate   =    -938.24556215 Ry
     estimated scf accuracy    <       0.00000006 Ry

     iteration # 15     ecut=    40.00 Ry     beta= 0.60
     Davidson diagonalization with overlap
     ethr =  6.15E-11,  avg # of iterations =  1.8

     total cpu time spent up to now is     6686.9 secs

     total energy              =    -938.24556214 Ry
     Harris-Foulkes estimate   =    -938.24556215 Ry
     estimated scf accuracy    <       0.00000005 Ry

     iteration # 16     ecut=    40.00 Ry     beta= 0.60
     Davidson diagonalization with overlap
     ethr =  4.97E-11,  avg # of iterations =  1.0

     total cpu time spent up to now is     6732.8 secs

     total energy              =    -938.24556214 Ry
     Harris-Foulkes estimate   =    -938.24556214 Ry
     estimated scf accuracy    <          9.1E-09 Ry

     iteration # 17     ecut=    40.00 Ry     beta= 0.60
     Davidson diagonalization with overlap
     ethr =  9.14E-12,  avg # of iterations =  4.1

     total cpu time spent up to now is     6800.3 secs

     total energy              =    -938.24556214 Ry
     Harris-Foulkes estimate   =    -938.24556214 Ry
     estimated scf accuracy    <          4.9E-10 Ry

     iteration # 18     ecut=    40.00 Ry     beta= 0.60
     Davidson diagonalization with overlap
     ethr =  4.93E-13,  avg # of iterations =  4.3

     total cpu time spent up to now is     6870.5 secs

     total energy              =    -938.24556214 Ry
     Harris-Foulkes estimate   =    -938.24556214 Ry
     estimated scf accuracy    <          4.7E-10 Ry

     iteration # 19     ecut=    40.00 Ry     beta= 0.60
     Davidson diagonalization with overlap
     ethr =  4.69E-13,  avg # of iterations =  1.5

     total cpu time spent up to now is     6917.6 secs

     End of self-consistent calculation

     Number of k-points >= 100: set verbosity='high' to print the bands.

     the Fermi energy is    15.7995 ev

!    total energy              =    -938.24556214 Ry
     Harris-Foulkes estimate   =    -938.24556214 Ry
     estimated scf accuracy    <          3.1E-11 Ry

     The total energy is the sum of the following terms:

     one-electron contribution =    -232.77238765 Ry
     hartree contribution      =     158.36808808 Ry
     xc contribution           =    -131.80512649 Ry
     ewald contribution        =    -732.03066299 Ry
     smearing contrib. (-TS)   =      -0.00547309 Ry

     convergence has been achieved in  19 iterations

     Forces acting on atoms (cartesian axes, Ry/au):

     atom    1 type  1   force =     0.00033346   -0.00401578    0.00571031
     atom    2 type  2   force =     0.00243429   -0.00124293    0.00753920
     atom    3 type  2   force =    -0.00011855   -0.00271775   -0.00754256
     atom    4 type  2   force =     0.00014073    0.00272962    0.00753920
     atom    5 type  2   force =    -0.00241291    0.00125621   -0.00754256
     atom    6 type  1   force =    -0.00035456    0.00400203   -0.00570695
     atom    7 type  1   force =    -0.00331104    0.00229668    0.00571031
     atom    8 type  1   force =     0.00328858   -0.00230807   -0.00570695

     Total force =     0.021268     Total SCF correction =     0.000015


     Computing stress (Cartesian axis) and pressure

          total   stress  (Ry/bohr**3)                   (kbar)     P=    5.11
  -0.00003819  -0.00001968  -0.00000311         -5.62     -2.89     -0.46
  -0.00001968  -0.00001547  -0.00000179         -2.89     -2.28     -0.26
  -0.00000311  -0.00000179   0.00015788         -0.46     -0.26     23.23


     number of scf cycles    =   4
     number of bfgs steps    =   3

     enthalpy old            =    -938.2442359815 Ry
     enthalpy new            =    -938.2455621435 Ry

     CASE: enthalpy_new < enthalpy_old

     new trust radius        =       0.0431119799 bohr
     new conv_thr            =            1.0E-10 Ry

     new unit-cell volume =    964.21984 a.u.^3 (   142.88264 Ang^3 )
     density =      6.54410 g/cm^3

CELL_PARAMETERS (alat=  1.88972599)
  -1.458409754   2.526630924   4.879817650
  -1.458921525   2.526335453  -4.879817650
  -4.346010978  -2.509170799  -0.000263753

ATOMIC_POSITIONS (angstrom)
Nb      -7.263415110   2.533415303   0.019444347
Ti      -2.908312296   3.366782819  -2.421740183
Ti      -4.358963396   2.529252977  -0.018347883
Ti      -4.358105047   0.859556117  -2.421872060
Ti      -5.808754120   0.022022764  -0.018479760
Nb      -2.912199727   3.381941301   2.420160173
Nb      -2.911364319   0.013783241   0.019576223
Nb      -4.346921131   0.848610261   2.420028297


     NEW-OLD atomic charge density approx. for the potential

     Check: negative/imaginary core charge=   -0.000001    0.000000
     extrapolated charge  100.25038, renormalised to  100.00000

     total cpu time spent up to now is     6946.9 secs

     Self-consistent Calculation

     iteration #  1     ecut=    40.00 Ry     beta= 0.60
     Davidson diagonalization with overlap
     c_bands:  1 eigenvalues not converged
     c_bands:  1 eigenvalues not converged
     c_bands:  1 eigenvalues not converged
     ethr =  1.00E-06,  avg # of iterations =  6.4

     total cpu time spent up to now is     7067.3 secs

     total energy              =    -938.24386826 Ry
     Harris-Foulkes estimate   =    -937.83052157 Ry
     estimated scf accuracy    <       0.00356875 Ry

     iteration #  2     ecut=    40.00 Ry     beta= 0.60
     Davidson diagonalization with overlap
     c_bands:  1 eigenvalues not converged
     ethr =  3.57E-06,  avg # of iterations =  5.2

     total cpu time spent up to now is     7167.4 secs

     total energy              =    -938.24552816 Ry
     Harris-Foulkes estimate   =    -938.24997508 Ry
     estimated scf accuracy    <       0.01503605 Ry

     iteration #  3     ecut=    40.00 Ry     beta= 0.60
     Davidson diagonalization with overlap
     ethr =  3.57E-06,  avg # of iterations =  4.8

     total cpu time spent up to now is     7250.3 secs

     total energy              =    -938.24610712 Ry
     Harris-Foulkes estimate   =    -938.24880079 Ry
     estimated scf accuracy    <       0.01307387 Ry

     iteration #  4     ecut=    40.00 Ry     beta= 0.60
     Davidson diagonalization with overlap
     ethr =  3.57E-06,  avg # of iterations =  5.1

     total cpu time spent up to now is     7325.0 secs

     total energy              =    -938.24753109 Ry
     Harris-Foulkes estimate   =    -938.24761710 Ry
     estimated scf accuracy    <       0.00148699 Ry

     iteration #  5     ecut=    40.00 Ry     beta= 0.60
     Davidson diagonalization with overlap
     ethr =  1.49E-06,  avg # of iterations =  1.5

     total cpu time spent up to now is     7372.2 secs

     total energy              =    -938.24724875 Ry
     Harris-Foulkes estimate   =    -938.24754432 Ry
     estimated scf accuracy    <       0.00110204 Ry

     iteration #  6     ecut=    40.00 Ry     beta= 0.60
     Davidson diagonalization with overlap
     ethr =  1.10E-06,  avg # of iterations =  3.8

     total cpu time spent up to now is     7431.6 secs

     total energy              =    -938.24734954 Ry
     Harris-Foulkes estimate   =    -938.24739396 Ry
     estimated scf accuracy    <       0.00034010 Ry

     iteration #  7     ecut=    40.00 Ry     beta= 0.60
     Davidson diagonalization with overlap
     ethr =  3.40E-07,  avg # of iterations =  3.3

     total cpu time spent up to now is     7488.6 secs

     total energy              =    -938.24738948 Ry
     Harris-Foulkes estimate   =    -938.24739459 Ry
     estimated scf accuracy    <       0.00005389 Ry

     iteration #  8     ecut=    40.00 Ry     beta= 0.60
     Davidson diagonalization with overlap
     ethr =  5.39E-08,  avg # of iterations =  3.3

     total cpu time spent up to now is     7546.3 secs

     total energy              =    -938.24739215 Ry
     Harris-Foulkes estimate   =    -938.24739421 Ry
     estimated scf accuracy    <       0.00003417 Ry

     iteration #  9     ecut=    40.00 Ry     beta= 0.60
     Davidson diagonalization with overlap
     ethr =  3.42E-08,  avg # of iterations =  1.0

     total cpu time spent up to now is     7592.2 secs

     total energy              =    -938.24738979 Ry
     Harris-Foulkes estimate   =    -938.24739285 Ry
     estimated scf accuracy    <       0.00002215 Ry

     iteration # 10     ecut=    40.00 Ry     beta= 0.60
     Davidson diagonalization with overlap
     ethr =  2.21E-08,  avg # of iterations =  2.7

     total cpu time spent up to now is     7643.9 secs

     total energy              =    -938.24739009 Ry
     Harris-Foulkes estimate   =    -938.24739088 Ry
     estimated scf accuracy    <       0.00000290 Ry

     iteration # 11     ecut=    40.00 Ry     beta= 0.60
     Davidson diagonalization with overlap
     ethr =  2.90E-09,  avg # of iterations =  4.7

     total cpu time spent up to now is     7717.6 secs

     total energy              =    -938.24739110 Ry
     Harris-Foulkes estimate   =    -938.24739133 Ry
     estimated scf accuracy    <       0.00000325 Ry

     iteration # 12     ecut=    40.00 Ry     beta= 0.60
     Davidson diagonalization with overlap
     ethr =  2.90E-09,  avg # of iterations =  1.0

     total cpu time spent up to now is     7763.4 secs

     total energy              =    -938.24739089 Ry
     Harris-Foulkes estimate   =    -938.24739114 Ry
     estimated scf accuracy    <       0.00000162 Ry

     iteration # 13     ecut=    40.00 Ry     beta= 0.60
     Davidson diagonalization with overlap
     ethr =  1.62E-09,  avg # of iterations =  3.1

     total cpu time spent up to now is     7820.4 secs

     total energy              =    -938.24739106 Ry
     Harris-Foulkes estimate   =    -938.24739106 Ry
     estimated scf accuracy    <       0.00000002 Ry

     iteration # 14     ecut=    40.00 Ry     beta= 0.60
     Davidson diagonalization with overlap
     ethr =  2.24E-11,  avg # of iterations =  5.7

     total cpu time spent up to now is     7902.8 secs

     total energy              =    -938.24739106 Ry
     Harris-Foulkes estimate   =    -938.24739108 Ry
     estimated scf accuracy    <       0.00000009 Ry

     iteration # 15     ecut=    40.00 Ry     beta= 0.60
     Davidson diagonalization with overlap
     ethr =  2.24E-11,  avg # of iterations =  4.0

     total cpu time spent up to now is     7966.3 secs

     total energy              =    -938.24739107 Ry
     Harris-Foulkes estimate   =    -938.24739107 Ry
     estimated scf accuracy    <          3.1E-09 Ry

     iteration # 16     ecut=    40.00 Ry     beta= 0.60
     Davidson diagonalization with overlap
     ethr =  3.08E-12,  avg # of iterations =  3.4

     total cpu time spent up to now is     8022.4 secs

     total energy              =    -938.24739107 Ry
     Harris-Foulkes estimate   =    -938.24739107 Ry
     estimated scf accuracy    <          1.3E-09 Ry

     iteration # 17     ecut=    40.00 Ry     beta= 0.60
     Davidson diagonalization with overlap
     ethr =  1.29E-12,  avg # of iterations =  4.1

     total cpu time spent up to now is     8086.6 secs

     total energy              =    -938.24739107 Ry
     Harris-Foulkes estimate   =    -938.24739107 Ry
     estimated scf accuracy    <          1.1E-10 Ry

     iteration # 18     ecut=    40.00 Ry     beta= 0.60
     Davidson diagonalization with overlap
     ethr =  1.08E-13,  avg # of iterations =  4.2

     total cpu time spent up to now is     8154.3 secs

     End of self-consistent calculation

     Number of k-points >= 100: set verbosity='high' to print the bands.

     the Fermi energy is    15.7432 ev

!    total energy              =    -938.24739107 Ry
     Harris-Foulkes estimate   =    -938.24739107 Ry
     estimated scf accuracy    <          6.7E-11 Ry

     The total energy is the sum of the following terms:

     one-electron contribution =    -233.78229029 Ry
     hartree contribution      =     158.68187320 Ry
     xc contribution           =    -131.78735399 Ry
     ewald contribution        =    -731.35449821 Ry
     smearing contrib. (-TS)   =      -0.00512178 Ry

     convergence has been achieved in  18 iterations

     Forces acting on atoms (cartesian axes, Ry/au):

     atom    1 type  1   force =    -0.00008635   -0.00282639    0.00390217
     atom    2 type  2   force =     0.00273891    0.00004344    0.00692531
     atom    3 type  2   force =    -0.00139169   -0.00234356   -0.00693006
     atom    4 type  2   force =     0.00140707    0.00235025    0.00692531
     atom    5 type  2   force =    -0.00272543   -0.00003346   -0.00693006
     atom    6 type  1   force =     0.00007268    0.00281676   -0.00389741
     atom    7 type  1   force =    -0.00249090    0.00133841    0.00390217
     atom    8 type  1   force =     0.00247572   -0.00134544   -0.00389741

     Total force =     0.017735     Total SCF correction =     0.000013


     Computing stress (Cartesian axis) and pressure

          total   stress  (Ry/bohr**3)                   (kbar)     P=    0.32
  -0.00005457  -0.00001808  -0.00000377         -8.03     -2.66     -0.55
  -0.00001808  -0.00003369  -0.00000217         -2.66     -4.96     -0.32
  -0.00000377  -0.00000217   0.00009480         -0.55     -0.32     13.95


     number of scf cycles    =   5
     number of bfgs steps    =   4

     enthalpy old            =    -938.2455621435 Ry
     enthalpy new            =    -938.2473910685 Ry

     CASE: enthalpy_new < enthalpy_old

     new trust radius        =       0.0643054996 bohr
     new conv_thr            =            1.0E-10 Ry

     new unit-cell volume =    964.92224 a.u.^3 (   142.98672 Ang^3 )
     density =      6.53934 g/cm^3

CELL_PARAMETERS (alat=  1.88972599)
  -1.455765246   2.518969439   4.930318817
  -1.453608738   2.520214499  -4.930318817
  -4.316402039  -2.492076071   0.001429402

ATOMIC_POSITIONS (angstrom)
Nb      -7.225466590   2.530234614   0.031366303
Ti      -2.892344669   3.358079258  -2.432728639
Ti      -4.338968475   2.522872156  -0.031488296
Ti      -4.332907652   0.869055587  -2.432013938
Ti      -5.779531523   0.033848597  -0.030773594
Nb      -2.902379003   3.380539974   2.435471202
Nb      -2.900002465   0.022462552   0.030651602
Nb      -4.318473268   0.849135241   2.436185903


     NEW-OLD atomic charge density approx. for the potential

     Check: negative/imaginary core charge=   -0.000001    0.000000
     extrapolated charge  100.06987, renormalised to  100.00000

     total cpu time spent up to now is     8183.5 secs

     Self-consistent Calculation

     iteration #  1     ecut=    40.00 Ry     beta= 0.60
     Davidson diagonalization with overlap
     c_bands:  1 eigenvalues not converged
     c_bands:  1 eigenvalues not converged
     c_bands:  1 eigenvalues not converged
     c_bands:  1 eigenvalues not converged
     c_bands:  1 eigenvalues not converged
     c_bands:  1 eigenvalues not converged
     c_bands:  1 eigenvalues not converged
     c_bands:  1 eigenvalues not converged
     c_bands:  1 eigenvalues not converged
     c_bands:  1 eigenvalues not converged
     c_bands:  1 eigenvalues not converged
     c_bands:  1 eigenvalues not converged
     c_bands:  1 eigenvalues not converged
     c_bands:  1 eigenvalues not converged
     c_bands:  1 eigenvalues not converged
     c_bands:  1 eigenvalues not converged
     ethr =  1.00E-06,  avg # of iterations = 10.5

     total cpu time spent up to now is     8333.8 secs

     total energy              =    -938.24602728 Ry
[...]

     new unit-cell volume =    946.26941 a.u.^3 (   140.22266 Ang^3 )
     density =      6.66824 g/cm^3

CELL_PARAMETERS (alat=  1.88972599)
  -1.676547435   2.833813102   4.651952875
  -1.615880322   2.868839328  -4.651952897
  -3.964084673  -2.288665522  -0.034188153

ATOMIC_POSITIONS (angstrom)
Nb      -7.614821128   3.271080815   0.032740257
Ti      -2.818430661   4.152081288  -2.262392323
Ti      -4.814457751   2.999691347  -0.086329212
Ti      -3.910982989   1.467106577  -2.279486394
Ti      -5.906997117   0.314694185  -0.103423283
Nb      -2.786555938   4.029868348   2.253302936
Nb      -3.108063946   0.042478986   0.049834351
Nb      -4.000885121   1.555817326   2.236208864


     NEW-OLD atomic charge density approx. for the potential
     extrapolated charge  100.00389, renormalised to  100.00000

     total cpu time spent up to now is    55782.4 secs

     Self-consistent Calculation

     iteration #  1     ecut=    40.00 Ry     beta= 0.60
     Davidson diagonalization with overlap
     ethr =  1.00E-06,  avg # of iterations =  2.0

     Threshold (ethr) on eigenvalues was too large:
     Diagonalizing with lowered threshold

     Davidson diagonalization with overlap
     ethr =  5.69E-10,  avg # of iterations =  2.1

     total cpu time spent up to now is    55901.3 secs

     total energy              =    -938.32427636 Ry
     Harris-Foulkes estimate   =    -938.31792246 Ry
     estimated scf accuracy    <       0.00000068 Ry

     iteration #  2     ecut=    40.00 Ry     beta= 0.60
     Davidson diagonalization with overlap
     ethr =  6.84E-10,  avg # of iterations =  5.0

     total cpu time spent up to now is    56002.1 secs

     total energy              =    -938.32427634 Ry
     Harris-Foulkes estimate   =    -938.32427821 Ry
     estimated scf accuracy    <       0.00001059 Ry

     iteration #  3     ecut=    40.00 Ry     beta= 0.60
     Davidson diagonalization with overlap
     ethr =  6.84E-10,  avg # of iterations =  4.6

     total cpu time spent up to now is    56077.2 secs

     total energy              =    -938.32427705 Ry
     Harris-Foulkes estimate   =    -938.32427745 Ry
     estimated scf accuracy    <       0.00000165 Ry

     iteration #  4     ecut=    40.00 Ry     beta= 0.60
     Davidson diagonalization with overlap
     ethr =  6.84E-10,  avg # of iterations =  3.2

     total cpu time spent up to now is    56136.6 secs

     total energy              =    -938.32427720 Ry
     Harris-Foulkes estimate   =    -938.32427723 Ry
     estimated scf accuracy    <       0.00000024 Ry

     iteration #  5     ecut=    40.00 Ry     beta= 0.60
     Davidson diagonalization with overlap
     ethr =  2.40E-10,  avg # of iterations =  1.4

     total cpu time spent up to now is    56183.5 secs

     total energy              =    -938.32427720 Ry
     Harris-Foulkes estimate   =    -938.32427722 Ry
     estimated scf accuracy    <       0.00000020 Ry

     iteration #  6     ecut=    40.00 Ry     beta= 0.60
     Davidson diagonalization with overlap
     ethr =  2.04E-10,  avg # of iterations =  1.0

     total cpu time spent up to now is    56229.3 secs

     total energy              =    -938.32427717 Ry
     Harris-Foulkes estimate   =    -938.32427720 Ry
     estimated scf accuracy    <       0.00000015 Ry

     iteration #  7     ecut=    40.00 Ry     beta= 0.60
     Davidson diagonalization with overlap
     ethr =  1.50E-10,  avg # of iterations =  2.1

     total cpu time spent up to now is    56278.3 secs

     total energy              =    -938.32427717 Ry
     Harris-Foulkes estimate   =    -938.32427718 Ry
     estimated scf accuracy    <       0.00000004 Ry

     iteration #  8     ecut=    40.00 Ry     beta= 0.60
     Davidson diagonalization with overlap
     ethr =  4.31E-11,  avg # of iterations =  3.3

     total cpu time spent up to now is    56337.1 secs

     total energy              =    -938.32427718 Ry
     Harris-Foulkes estimate   =    -938.32427718 Ry
     estimated scf accuracy    <          4.2E-09 Ry

     iteration #  9     ecut=    40.00 Ry     beta= 0.60
     Davidson diagonalization with overlap
     ethr =  4.18E-12,  avg # of iterations =  4.1

     total cpu time spent up to now is    56404.8 secs

     total energy              =    -938.32427718 Ry
     Harris-Foulkes estimate   =    -938.32427718 Ry
     estimated scf accuracy    <          6.4E-10 Ry

     iteration # 10     ecut=    40.00 Ry     beta= 0.60
     Davidson diagonalization with overlap
     ethr =  6.39E-13,  avg # of iterations =  2.2

     total cpu time spent up to now is    56455.7 secs

     total energy              =    -938.32427718 Ry
     Harris-Foulkes estimate   =    -938.32427718 Ry
     estimated scf accuracy    <          2.0E-10 Ry

     iteration # 11     ecut=    40.00 Ry     beta= 0.60
     Davidson diagonalization with overlap
     ethr =  2.01E-13,  avg # of iterations =  4.0

     total cpu time spent up to now is    56520.2 secs

     total energy              =    -938.32427718 Ry
     Harris-Foulkes estimate   =    -938.32427718 Ry
     estimated scf accuracy    <          2.0E-11 Ry

     iteration # 12     ecut=    40.00 Ry     beta= 0.60
     Davidson diagonalization with overlap
     ethr =  1.00E-13,  avg # of iterations =  1.0

     total cpu time spent up to now is    56566.0 secs

     total energy              =    -938.32427718 Ry
     Harris-Foulkes estimate   =    -938.32427718 Ry
     estimated scf accuracy    <          9.5E-12 Ry

     iteration # 13     ecut=    40.00 Ry     beta= 0.60
     Davidson diagonalization with overlap
     ethr =  1.00E-13,  avg # of iterations =  1.0

     total cpu time spent up to now is    56611.8 secs

     total energy              =    -938.32427718 Ry
     Harris-Foulkes estimate   =    -938.32427718 Ry
     estimated scf accuracy    <          5.2E-12 Ry

     iteration # 14     ecut=    40.00 Ry     beta= 0.60
     Davidson diagonalization with overlap
     ethr =  1.00E-13,  avg # of iterations =  1.0

     total cpu time spent up to now is    56657.6 secs

     End of self-consistent calculation

     Number of k-points >= 100: set verbosity='high' to print the bands.

     the Fermi energy is    15.7523 ev

!    total energy              =    -938.32427718 Ry
     Harris-Foulkes estimate   =    -938.32427718 Ry
     estimated scf accuracy    <          1.2E-12 Ry

     The total energy is the sum of the following terms:

     one-electron contribution =    -227.90429487 Ry
     hartree contribution      =     157.07271118 Ry
     xc contribution           =    -131.95946560 Ry
     ewald contribution        =    -735.53331155 Ry
     smearing contrib. (-TS)   =       0.00008366 Ry

     convergence has been achieved in  14 iterations

     Forces acting on atoms (cartesian axes, Ry/au):

     atom    1 type  1   force =    -0.00001234   -0.00002414   -0.00000630
     atom    2 type  2   force =     0.00003157    0.00002775   -0.00000315
     atom    3 type  2   force =     0.00000122    0.00001242   -0.00000508
     atom    4 type  2   force =     0.00003982    0.00001347   -0.00000315
     atom    5 type  2   force =     0.00001136   -0.00000515   -0.00000508
     atom    6 type  1   force =    -0.00003297    0.00000566    0.00001453
     atom    7 type  1   force =    -0.00002708    0.00000138   -0.00000630
     atom    8 type  1   force =    -0.00001158   -0.00003139    0.00001453

     Total force =     0.000090     Total SCF correction =     0.000003


     Computing stress (Cartesian axis) and pressure

          total   stress  (Ry/bohr**3)                   (kbar)     P=    0.01
   0.00000012   0.00000015   0.00000015          0.02      0.02      0.02
   0.00000015  -0.00000006   0.00000009          0.02     -0.01      0.01
   0.00000015   0.00000009   0.00000010          0.02      0.01      0.02


     number of scf cycles    =  49
     number of bfgs steps    =  47

     enthalpy old            =    -938.3242771473 Ry
     enthalpy new            =    -938.3242771766 Ry

     CASE: enthalpy_new < enthalpy_old

     new trust radius        =       0.0001221005 bohr
     new conv_thr            =            4.0E-12 Ry

     new unit-cell volume =    946.29457 a.u.^3 (   140.22639 Ang^3 )
     density =      6.66807 g/cm^3

CELL_PARAMETERS (alat=  1.88972599)
  -1.676530838   2.833847269   4.652009452
  -1.615918209   2.868842038  -4.652009474
  -3.964116138  -2.288683689  -0.034232099

ATOMIC_POSITIONS (angstrom)
Nb      -7.614903080   3.271054244   0.032714545
Ti      -2.818410042   4.152137439  -2.262426997
Ti      -4.814512715   2.999706379  -0.086361321
Ti      -3.910966398   1.467133370  -2.279543041
Ti      -5.907053927   0.314676081  -0.103477365
Nb      -2.786578516   4.029931053   2.253314863
Nb      -3.108138813   0.042476478   0.049830612
Nb      -4.000884453   1.555803432   2.236198819


     NEW-OLD atomic charge density approx. for the potential
     extrapolated charge  100.00255, renormalised to  100.00000

     total cpu time spent up to now is    56686.5 secs

     Self-consistent Calculation

     iteration #  1     ecut=    40.00 Ry     beta= 0.60
     Davidson diagonalization with overlap
     ethr =  1.00E-06,  avg # of iterations =  2.0

     Threshold (ethr) on eigenvalues was too large:
     Diagonalizing with lowered threshold

     Davidson diagonalization with overlap
     ethr =  2.82E-10,  avg # of iterations =  2.1

     total cpu time spent up to now is    56805.1 secs

     total energy              =    -938.32427681 Ry
     Harris-Foulkes estimate   =    -938.32010811 Ry
     estimated scf accuracy    <       0.00000032 Ry

     iteration #  2     ecut=    40.00 Ry     beta= 0.60
     Davidson diagonalization with overlap
     ethr =  3.25E-10,  avg # of iterations =  5.0

     total cpu time spent up to now is    56905.9 secs

     total energy              =    -938.32427671 Ry
     Harris-Foulkes estimate   =    -938.32427779 Ry
     estimated scf accuracy    <       0.00000679 Ry

     iteration #  3     ecut=    40.00 Ry     beta= 0.60
     Davidson diagonalization with overlap
     ethr =  3.25E-10,  avg # of iterations =  4.8

     total cpu time spent up to now is    56982.1 secs

     total energy              =    -938.32427716 Ry
     Harris-Foulkes estimate   =    -938.32427730 Ry
     estimated scf accuracy    <       0.00000051 Ry

     iteration #  4     ecut=    40.00 Ry     beta= 0.60
     Davidson diagonalization with overlap
     ethr =  3.25E-10,  avg # of iterations =  2.4

     total cpu time spent up to now is    57036.6 secs

     total energy              =    -938.32427720 Ry
     Harris-Foulkes estimate   =    -938.32427721 Ry
     estimated scf accuracy    <       0.00000011 Ry

     iteration #  5     ecut=    40.00 Ry     beta= 0.60
     Davidson diagonalization with overlap
     ethr =  1.10E-10,  avg # of iterations =  1.8

     total cpu time spent up to now is    57085.1 secs

     total energy              =    -938.32427720 Ry
     Harris-Foulkes estimate   =    -938.32427721 Ry
     estimated scf accuracy    <       0.00000010 Ry

     iteration #  6     ecut=    40.00 Ry     beta= 0.60
     Davidson diagonalization with overlap
     ethr =  9.84E-11,  avg # of iterations =  1.0

     total cpu time spent up to now is    57130.9 secs

     total energy              =    -938.32427719 Ry
     Harris-Foulkes estimate   =    -938.32427720 Ry
     estimated scf accuracy    <       0.00000006 Ry

     iteration #  7     ecut=    40.00 Ry     beta= 0.60
     Davidson diagonalization with overlap
     ethr =  6.15E-11,  avg # of iterations =  1.5

     total cpu time spent up to now is    57178.2 secs

     total energy              =    -938.32427719 Ry
     Harris-Foulkes estimate   =    -938.32427719 Ry
     estimated scf accuracy    <       0.00000002 Ry

     iteration #  8     ecut=    40.00 Ry     beta= 0.60
     Davidson diagonalization with overlap
     ethr =  2.39E-11,  avg # of iterations =  3.0

     total cpu time spent up to now is    57236.3 secs

     total energy              =    -938.32427719 Ry
     Harris-Foulkes estimate   =    -938.32427719 Ry
     estimated scf accuracy    <          1.9E-09 Ry

     iteration #  9     ecut=    40.00 Ry     beta= 0.60
     Davidson diagonalization with overlap
     ethr =  1.91E-12,  avg # of iterations =  4.1

     total cpu time spent up to now is    57303.6 secs

     total energy              =    -938.32427719 Ry
     Harris-Foulkes estimate   =    -938.32427719 Ry
     estimated scf accuracy    <          2.3E-10 Ry

     iteration # 10     ecut=    40.00 Ry     beta= 0.60
     Davidson diagonalization with overlap
     ethr =  2.26E-13,  avg # of iterations =  2.2

     total cpu time spent up to now is    57354.2 secs

     total energy              =    -938.32427719 Ry
     Harris-Foulkes estimate   =    -938.32427719 Ry
     estimated scf accuracy    <          1.1E-10 Ry

     iteration # 11     ecut=    40.00 Ry     beta= 0.60
     Davidson diagonalization with overlap
     ethr =  1.11E-13,  avg # of iterations =  3.9

     total cpu time spent up to now is    57418.5 secs

     total energy              =    -938.32427719 Ry
     Harris-Foulkes estimate   =    -938.32427719 Ry
     estimated scf accuracy    <          2.0E-11 Ry

     iteration # 12     ecut=    40.00 Ry     beta= 0.60
     Davidson diagonalization with overlap
     ethr =  1.00E-13,  avg # of iterations =  1.0

     total cpu time spent up to now is    57464.3 secs

     total energy              =    -938.32427719 Ry
     Harris-Foulkes estimate   =    -938.32427719 Ry
     estimated scf accuracy    <          9.7E-12 Ry

     iteration # 13     ecut=    40.00 Ry     beta= 0.60
     Davidson diagonalization with overlap
     ethr =  1.00E-13,  avg # of iterations =  1.0

     total cpu time spent up to now is    57510.1 secs

     total energy              =    -938.32427719 Ry
     Harris-Foulkes estimate   =    -938.32427719 Ry
     estimated scf accuracy    <          4.4E-12 Ry

     iteration # 14     ecut=    40.00 Ry     beta= 0.60
     Davidson diagonalization with overlap
     ethr =  1.00E-13,  avg # of iterations =  1.0

     total cpu time spent up to now is    57555.9 secs

     End of self-consistent calculation

     Number of k-points >= 100: set verbosity='high' to print the bands.

     the Fermi energy is    15.7518 ev

!    total energy              =    -938.32427719 Ry
     Harris-Foulkes estimate   =    -938.32427719 Ry
     estimated scf accuracy    <          5.8E-13 Ry

     The total energy is the sum of the following terms:

     one-electron contribution =    -227.91339675 Ry
     hartree contribution      =     157.07525296 Ry
     xc contribution           =    -131.95925532 Ry
     ewald contribution        =    -735.52696215 Ry
     smearing contrib. (-TS)   =       0.00008406 Ry

     convergence has been achieved in  14 iterations

     Forces acting on atoms (cartesian axes, Ry/au):

     atom    1 type  1   force =    -0.00001417   -0.00001109   -0.00001300
     atom    2 type  2   force =     0.00002735    0.00002295   -0.00000426
     atom    3 type  2   force =     0.00000349    0.00000982   -0.00000148
     atom    4 type  2   force =     0.00003355    0.00001221   -0.00000426
     atom    5 type  2   force =     0.00001025   -0.00000189   -0.00000148
     atom    6 type  1   force =    -0.00002450   -0.00000811    0.00001874
     atom    7 type  1   force =    -0.00001669   -0.00000673   -0.00001300
     atom    8 type  1   force =    -0.00001927   -0.00001716    0.00001874

     Total force =     0.000076     Total SCF correction =     0.000002


     Computing stress (Cartesian axis) and pressure

          total   stress  (Ry/bohr**3)                   (kbar)     P=   -0.03
  -0.00000016   0.00000014   0.00000012         -0.02      0.02      0.02
   0.00000014  -0.00000033   0.00000007          0.02     -0.05      0.01
   0.00000012   0.00000007  -0.00000017          0.02      0.01     -0.03


     number of scf cycles    =  50
     number of bfgs steps    =  48

     enthalpy old            =    -938.3242771766 Ry
     enthalpy new            =    -938.3242771906 Ry

     CASE: enthalpy_new < enthalpy_old

     new trust radius        =       0.0001291517 bohr
     new conv_thr            =            3.4E-12 Ry

     new unit-cell volume =    946.30018 a.u.^3 (   140.22722 Ang^3 )
     density =      6.66803 g/cm^3

CELL_PARAMETERS (alat=  1.88972599)
  -1.676500703   2.833843818   4.652032852
  -1.615930288   2.868814215  -4.652032875
  -3.964141378  -2.288698261  -0.034262743

ATOMIC_POSITIONS (angstrom)
Nb      -7.614942530   3.270967180   0.032686981
Ti      -2.818355720   4.152149439  -2.262445999
Ti      -4.814528558   2.999680217  -0.086384778
Ti      -3.910918893   1.467128036  -2.279577365
Ti      -5.907074554   0.314629063  -0.103516143
Nb      -2.786580815   4.029931078   2.253328705
Nb      -3.108198748   0.042454039   0.049818370
Nb      -4.000875630   1.555755050   2.236197339


     NEW-OLD atomic charge density approx. for the potential
     extrapolated charge  100.00057, renormalised to  100.00000
 
     init_run     :     27.55s CPU     28.14s WALL (       1 calls)
     electrons    :  55420.82s CPU  56113.32s WALL (      50 calls)
     update_pot   :     90.77s CPU     90.93s WALL (      50 calls)
     forces       :    333.58s CPU    341.09s WALL (      50 calls)
     stress       :    971.43s CPU    990.42s WALL (      50 calls)

     Called by init_run:
     wfcinit      :     25.81s CPU     26.24s WALL (       1 calls)
     potinit      :      0.54s CPU      0.55s WALL (       1 calls)
     hinit0       :      0.95s CPU      0.98s WALL (       1 calls)

     Called by electrons:
     c_bands      :  48631.78s CPU  49065.19s WALL (     825 calls)
     sum_band     :   6531.97s CPU   6695.12s WALL (     825 calls)
     v_of_rho     :     36.52s CPU     36.66s WALL (     868 calls)
     newd         :    228.67s CPU    330.14s WALL (     868 calls)
     mix_rho      :      4.70s CPU      4.73s WALL (     825 calls)

     Called by c_bands:
     init_us_2    :    470.56s CPU    470.79s WALL (  535806 calls)
     cegterg      :  45095.67s CPU  45514.49s WALL (  252450 calls)

     Called by sum_band:
     sum_band:bec :     16.45s CPU     17.31s WALL (  252450 calls)
     addusdens    :    251.15s CPU    340.36s WALL (     825 calls)

     Called by *egterg:
     h_psi        :  28176.70s CPU  28548.98s WALL ( 1176741 calls)
     s_psi        :   1657.35s CPU   1658.77s WALL ( 1176741 calls)
     g_psi        :    242.59s CPU    242.88s WALL (  923985 calls)
     cdiaghg      :   8768.69s CPU   8778.10s WALL ( 1158993 calls)

     Called by h_psi:
     h_psi:pot    :  28079.93s CPU  28451.66s WALL ( 1176741 calls)
     h_psi:calbec :   1946.07s CPU   1957.95s WALL ( 1176741 calls)
     vloc_psi     :  24466.37s CPU  24819.54s WALL ( 1176741 calls)
     add_vuspsi   :   1662.95s CPU   1667.84s WALL ( 1176741 calls)

     General routines
     calbec       :   2852.07s CPU   2867.65s WALL ( 1505691 calls)
     fft          :     25.96s CPU     26.34s WALL (   12543 calls)
     ffts         :      0.95s CPU      0.98s WALL (    1693 calls)
     fftw         :  26885.75s CPU  27006.80s WALL (97206370 calls)
     interpolate  :      2.26s CPU      2.27s WALL (     868 calls)
     davcio       :      0.00s CPU      0.18s WALL (     306 calls)
 
     Parallel routines
     fft_scatt_xy :   5047.40s CPU   4916.54s WALL (97220606 calls)
     fft_scatt_yz :   5281.78s CPU   5215.72s WALL (97220606 calls)
 
     PWSCF        :    15h47m CPU       47h15m WALL

      59h
 
   This run was terminated on:   8:57:10   1Apr2020            

=------------------------------------------------------------------------------=
   JOB DONE.
=------------------------------------------------------------------------------=
