
     Program PWSCF v.6.0 (svn rev. 13079) starts on 10May2018 at 16:23: 0 

     This program is part of the open-source Quantum ESPRESSO suite
     for quantum simulation of materials; please cite
         "P. Giannozzi et al., J. Phys.:Condens. Matter 21 395502 (2009);
          URL http://www.quantum-espresso.org", 
     in publications or presentations arising from this work. More details at
     http://www.quantum-espresso.org/quote

     Parallel version (MPI), running on     4 processors
     R & G space division:  proc/nbgrp/npool/nimage =       4
     Waiting for input...
     Reading input from standard input

     Current dimensions of program PWSCF are:
     Max number of different atomic species (ntypx) = 10
     Max number of k-points (npk) =  40000
     Max angular momentum in pseudopotentials (lmaxx) =  3

     Subspace diagonalization in iterative solution of the eigenvalue problem:
     a serial algorithm will be used


     Parallelization info
     --------------------
     sticks:   dense  smooth     PW     G-vecs:    dense   smooth      PW
     Min         684     273     94                27323     6899    1409
     Max         686     274     95                27324     6902    1410
     Sum        2741    1095    377               109295    27603    5639



     bravais-lattice index     =            0
     lattice parameter (alat)  =       1.8897  a.u.
     unit-cell volume          =     808.3427 (a.u.)^3
     number of atoms/cell      =            6
     number of atomic types    =            2
     number of electrons       =        74.00
     number of Kohn-Sham states=           44
     kinetic-energy cutoff     =      40.0000  Ry
     charge density cutoff     =     400.0000  Ry
     convergence threshold     =      1.0E-10
     mixing beta               =       0.6000
     number of iterations used =            8  plain     mixing
     Exchange-correlation      = SLA  PW   PBE  PBE ( 1  4  3  4 0 0)
     nstep                     =           50


     celldm(1)=   1.889726  celldm(2)=   0.000000  celldm(3)=   0.000000
     celldm(4)=   0.000000  celldm(5)=   0.000000  celldm(6)=   0.000000

     crystal axes: (cart. coord. in units of alat)
               a(1) = (   6.090008   5.274102   0.000000 )  
               a(2) = (  -7.612510  -2.637051   0.000000 )  
               a(3) = (   0.000000   0.000000   4.972461 )  

     reciprocal axes: (cart. coord. in units 2 pi/alat)
               b(1) = ( -0.109469  0.316010  0.000000 )  
               b(2) = ( -0.218938  0.252808  0.000000 )  
               b(3) = (  0.000000 -0.000000  0.201108 )  


     PseudoPot. # 1 for Nb read from file:
     ./Nb.pbe-nsp-van.UPF
     MD5 check sum: 0a22fc7fb0ba19a08ca5db297a5d2854
     Pseudo is Ultrasoft + core correction, Zval = 13.0
     Generated by new atomic code, or converted to UPF format
     Using radial grid of  887 points,  6 beta functions with: 
                l(1) =   0
                l(2) =   0
                l(3) =   1
                l(4) =   1
                l(5) =   2
                l(6) =   2
     Q(r) pseudized with  6 coefficients,  rinner =    1.000   1.000   1.000
                                                       1.000   1.000

     PseudoPot. # 2 for Ti read from file:
     ./Ti.pbe-sp-van_ak.UPF
     MD5 check sum: f98fea3e8887528921fefa5636a534ca
     Pseudo is Ultrasoft, Zval = 12.0
     Generated by new atomic code, or converted to UPF format
     Using radial grid of  851 points,  6 beta functions with: 
                l(1) =   0
                l(2) =   0
                l(3) =   1
                l(4) =   1
                l(5) =   2
                l(6) =   2
     Q(r) pseudized with  8 coefficients,  rinner =    1.000   1.000   1.000
                                                       1.000   1.000

     atomic species   valence    mass     pseudopotential
        Nb            13.00    92.90638     Nb( 1.00)
        Ti            12.00    47.86700     Ti( 1.00)

      4 Sym. Ops. (no inversion) found



   Cartesian axes

     site n.     atom                  positions (alat units)
         1           Ti  tau(   1) = (  -1.5225021   2.6370512   4.9724614  )
         2           Ti  tau(   2) = (  -1.5225006   0.8790162   2.4862307  )
         3           Nb  tau(   3) = (   1.5225021   2.6370512   4.9724614  )
         4           Ti  tau(   4) = (  -6.0900069  -1.7580350   2.4862307  )
         5           Ti  tau(   5) = (  -3.0450042   0.0000000   4.9724614  )
         6           Nb  tau(   6) = (   3.0450058   3.5160674   2.4862307  )

     number of k points=   248  Marzari-Vanderbilt smearing, width (Ry)=  0.0200

     Number of k-points >= 100: set verbosity='high' to print them.

     Dense  grid:   109295 G-vectors     FFT dimensions: ( 100, 100,  60)

     Smooth grid:    27603 G-vectors     FFT dimensions: (  64,  64,  40)

     Estimated max dynamical RAM per process >     172.85Mb

     Estimated total allocated dynamical RAM >     691.41Mb

     Initial potential from superposition of free atoms

     starting charge   69.99436, renormalised to   74.00000
     Starting wfc are   66 randomized atomic wfcs

     total cpu time spent up to now is       43.0 secs

     per-process dynamical memory:   240.8 Mb

     Self-consistent Calculation

     iteration #  1     ecut=    40.00 Ry     beta=0.60
     Davidson diagonalization with overlap
     ethr =  1.00E-02,  avg # of iterations =  3.8

     total cpu time spent up to now is      154.9 secs

     total energy              =    -638.05757748 Ry
     Harris-Foulkes estimate   =    -708.65431316 Ry
     estimated scf accuracy    <      86.54778636 Ry

     iteration #  2     ecut=    40.00 Ry     beta=0.60
     Davidson diagonalization with overlap
     ethr =  1.00E-02,  avg # of iterations =  9.8

     total cpu time spent up to now is      443.9 secs

     total energy              =    -665.60308691 Ry
     Harris-Foulkes estimate   =    -861.02308076 Ry
     estimated scf accuracy    <     710.99663740 Ry

     iteration #  3     ecut=    40.00 Ry     beta=0.60
     Davidson diagonalization with overlap
     ethr =  1.00E-02,  avg # of iterations =  7.5

     total cpu time spent up to now is      679.9 secs

     total energy              =    -706.86433261 Ry
     Harris-Foulkes estimate   =    -717.19195848 Ry
     estimated scf accuracy    <      85.66589754 Ry

     iteration #  4     ecut=    40.00 Ry     beta=0.60
     Davidson diagonalization with overlap
     ethr =  1.00E-02,  avg # of iterations =  4.4

     total cpu time spent up to now is      771.1 secs

     total energy              =    -705.06481144 Ry
     Harris-Foulkes estimate   =    -710.49483655 Ry
     estimated scf accuracy    <      43.38087954 Ry

     iteration #  5     ecut=    40.00 Ry     beta=0.60
     Davidson diagonalization with overlap
     ethr =  1.00E-02,  avg # of iterations =  2.2

     total cpu time spent up to now is      849.2 secs

     total energy              =    -706.34253970 Ry
     Harris-Foulkes estimate   =    -705.70802486 Ry
     estimated scf accuracy    <      26.66353675 Ry

     iteration #  6     ecut=    40.00 Ry     beta=0.60
     Davidson diagonalization with overlap
     ethr =  1.00E-02,  avg # of iterations =  1.0

     total cpu time spent up to now is      921.7 secs

     total energy              =    -703.08218760 Ry
     Harris-Foulkes estimate   =    -706.38205305 Ry
     estimated scf accuracy    <      28.10385316 Ry

     iteration #  7     ecut=    40.00 Ry     beta=0.60
     Davidson diagonalization with overlap
     ethr =  1.00E-02,  avg # of iterations =  2.3

     total cpu time spent up to now is      999.0 secs

     total energy              =    -702.32733991 Ry
     Harris-Foulkes estimate   =    -703.59210314 Ry
     estimated scf accuracy    <      23.79054500 Ry

     iteration #  8     ecut=    40.00 Ry     beta=0.60
     Davidson diagonalization with overlap
     ethr =  1.00E-02,  avg # of iterations =  1.8

     total cpu time spent up to now is     1074.0 secs

     total energy              =    -702.64361624 Ry
     Harris-Foulkes estimate   =    -702.69244313 Ry
     estimated scf accuracy    <      11.19831890 Ry

     iteration #  9     ecut=    40.00 Ry     beta=0.60
     Davidson diagonalization with overlap
     ethr =  1.00E-02,  avg # of iterations =  1.1

     total cpu time spent up to now is     1146.9 secs

     total energy              =    -701.64906593 Ry
     Harris-Foulkes estimate   =    -702.71050826 Ry
     estimated scf accuracy    <      10.45842990 Ry

     iteration # 10     ecut=    40.00 Ry     beta=0.60
     Davidson diagonalization with overlap
     ethr =  1.00E-02,  avg # of iterations =  3.4

     total cpu time spent up to now is     1231.9 secs

     total energy              =    -701.99924160 Ry
     Harris-Foulkes estimate   =    -702.21909716 Ry
     estimated scf accuracy    <       0.63070927 Ry

     iteration # 11     ecut=    40.00 Ry     beta=0.60
     Davidson diagonalization with overlap
     ethr =  8.52E-04,  avg # of iterations =  6.5

     total cpu time spent up to now is     1414.7 secs

     total energy              =    -703.91446179 Ry
     Harris-Foulkes estimate   =    -706.48350400 Ry
     estimated scf accuracy    <     100.21126802 Ry

     iteration # 12     ecut=    40.00 Ry     beta=0.60
     Davidson diagonalization with overlap
     ethr =  8.52E-04,  avg # of iterations =  3.6

     total cpu time spent up to now is     1512.6 secs

     total energy              =    -703.32066894 Ry
     Harris-Foulkes estimate   =    -704.18035569 Ry
     estimated scf accuracy    <      57.87507339 Ry

     iteration # 13     ecut=    40.00 Ry     beta=0.60
     Davidson diagonalization with overlap
     ethr =  8.52E-04,  avg # of iterations =  1.8

     total cpu time spent up to now is     1587.4 secs

     total energy              =    -704.01645437 Ry
     Harris-Foulkes estimate   =    -703.42661215 Ry
     estimated scf accuracy    <      32.44878896 Ry

     iteration # 14     ecut=    40.00 Ry     beta=0.60
     Davidson diagonalization with overlap
     ethr =  8.52E-04,  avg # of iterations =  1.6

     total cpu time spent up to now is     1662.1 secs

     total energy              =    -698.27376166 Ry
     Harris-Foulkes estimate   =    -704.13778069 Ry
     estimated scf accuracy    <      56.38981642 Ry

     iteration # 15     ecut=    40.00 Ry     beta=0.60
     Davidson diagonalization with overlap
     ethr =  8.52E-04,  avg # of iterations =  7.5

     total cpu time spent up to now is     1847.0 secs

     total energy              =    -702.42199739 Ry
     Harris-Foulkes estimate   =    -703.00997155 Ry
     estimated scf accuracy    <      10.26133140 Ry

     iteration # 16     ecut=    40.00 Ry     beta=0.60
     Davidson diagonalization with overlap
     ethr =  8.52E-04,  avg # of iterations =  4.6

     total cpu time spent up to now is     1943.8 secs

     total energy              =    -702.49471624 Ry
     Harris-Foulkes estimate   =    -702.59760233 Ry
     estimated scf accuracy    <       3.14701754 Ry

     iteration # 17     ecut=    40.00 Ry     beta=0.60
     Davidson diagonalization with overlap
     ethr =  8.52E-04,  avg # of iterations =  1.6

     total cpu time spent up to now is     2017.9 secs

     total energy              =    -702.50356831 Ry
     Harris-Foulkes estimate   =    -702.52250890 Ry
     estimated scf accuracy    <       2.16577681 Ry

     iteration # 18     ecut=    40.00 Ry     beta=0.60
     Davidson diagonalization with overlap
     ethr =  8.52E-04,  avg # of iterations =  1.0

     total cpu time spent up to now is     2090.5 secs

     total energy              =    -702.27706185 Ry
     Harris-Foulkes estimate   =    -702.51257389 Ry
     estimated scf accuracy    <       1.97410148 Ry

     iteration # 19     ecut=    40.00 Ry     beta=0.60
     Davidson diagonalization with overlap
     ethr =  8.52E-04,  avg # of iterations =  5.5

     total cpu time spent up to now is     2197.4 secs

     total energy              =    -702.37619411 Ry
     Harris-Foulkes estimate   =    -702.39901739 Ry
     estimated scf accuracy    <       0.12052442 Ry

     iteration # 20     ecut=    40.00 Ry     beta=0.60
     Davidson diagonalization with overlap
     ethr =  1.63E-04,  avg # of iterations =  4.2

     total cpu time spent up to now is     2288.2 secs

     total energy              =    -702.37940397 Ry
     Harris-Foulkes estimate   =    -702.38675099 Ry
     estimated scf accuracy    <       0.03697342 Ry

     iteration # 21     ecut=    40.00 Ry     beta=0.60
     Davidson diagonalization with overlap
     ethr =  5.00E-05,  avg # of iterations =  4.7

     total cpu time spent up to now is     2389.7 secs

     total energy              =    -702.38248821 Ry
     Harris-Foulkes estimate   =    -702.38553138 Ry
     estimated scf accuracy    <       0.04386878 Ry

     iteration # 22     ecut=    40.00 Ry     beta=0.60
     Davidson diagonalization with overlap
     ethr =  5.00E-05,  avg # of iterations =  1.1

     total cpu time spent up to now is     2462.4 secs

     total energy              =    -702.38280541 Ry
     Harris-Foulkes estimate   =    -702.38420351 Ry
     estimated scf accuracy    <       0.02760752 Ry

     iteration # 23     ecut=    40.00 Ry     beta=0.60
     Davidson diagonalization with overlap
     ethr =  3.73E-05,  avg # of iterations =  1.2

     total cpu time spent up to now is     2535.4 secs

     total energy              =    -702.38169064 Ry
     Harris-Foulkes estimate   =    -702.38331325 Ry
     estimated scf accuracy    <       0.01273201 Ry

     iteration # 24     ecut=    40.00 Ry     beta=0.60
     Davidson diagonalization with overlap
     c_bands:  1 eigenvalues not converged
     c_bands:  1 eigenvalues not converged
     c_bands:  1 eigenvalues not converged
     ethr =  1.72E-05,  avg # of iterations =  5.8

     total cpu time spent up to now is     2633.0 secs

     total energy              =    -702.38267742 Ry
     Harris-Foulkes estimate   =    -702.38287491 Ry
     estimated scf accuracy    <       0.00165946 Ry

     iteration # 25     ecut=    40.00 Ry     beta=0.60
     Davidson diagonalization with overlap
     c_bands:  1 eigenvalues not converged
     c_bands:  1 eigenvalues not converged
     c_bands:  1 eigenvalues not converged
     c_bands:  1 eigenvalues not converged
     c_bands:  2 eigenvalues not converged
     ethr =  2.24E-06,  avg # of iterations =  8.8

     total cpu time spent up to now is     2773.7 secs

     total energy              =    -702.38286125 Ry
     Harris-Foulkes estimate   =    -702.38297498 Ry
     estimated scf accuracy    <       0.00137332 Ry

     iteration # 26     ecut=    40.00 Ry     beta=0.60
     Davidson diagonalization with overlap
     ethr =  1.86E-06,  avg # of iterations =  1.3

     total cpu time spent up to now is     2847.9 secs

     total energy              =    -702.38280462 Ry
     Harris-Foulkes estimate   =    -702.38290834 Ry
     estimated scf accuracy    <       0.00072305 Ry

     iteration # 27     ecut=    40.00 Ry     beta=0.60
     Davidson diagonalization with overlap
     ethr =  9.77E-07,  avg # of iterations =  3.9

     total cpu time spent up to now is     2943.8 secs

     total energy              =    -702.38282366 Ry
     Harris-Foulkes estimate   =    -702.38293254 Ry
     estimated scf accuracy    <       0.00084634 Ry

     iteration # 28     ecut=    40.00 Ry     beta=0.60
     Davidson diagonalization with overlap
     ethr =  9.77E-07,  avg # of iterations =  2.6

     total cpu time spent up to now is     3021.2 secs

     total energy              =    -702.38284693 Ry
     Harris-Foulkes estimate   =    -702.38290966 Ry
     estimated scf accuracy    <       0.00066208 Ry

     iteration # 29     ecut=    40.00 Ry     beta=0.60
     Davidson diagonalization with overlap
     ethr =  8.95E-07,  avg # of iterations =  1.0

     total cpu time spent up to now is     3094.4 secs

     total energy              =    -702.38286714 Ry
     Harris-Foulkes estimate   =    -702.38288263 Ry
     estimated scf accuracy    <       0.00011317 Ry

     iteration # 30     ecut=    40.00 Ry     beta=0.60
     Davidson diagonalization with overlap
     ethr =  1.53E-07,  avg # of iterations =  4.3

     total cpu time spent up to now is     3193.4 secs

     total energy              =    -702.38288100 Ry
     Harris-Foulkes estimate   =    -702.38288355 Ry
     estimated scf accuracy    <       0.00001889 Ry

     iteration # 31     ecut=    40.00 Ry     beta=0.60
     Davidson diagonalization with overlap
     ethr =  2.55E-08,  avg # of iterations =  3.5

     total cpu time spent up to now is     3278.7 secs

     total energy              =    -702.38288210 Ry
     Harris-Foulkes estimate   =    -702.38288251 Ry
     estimated scf accuracy    <       0.00000293 Ry

     iteration # 32     ecut=    40.00 Ry     beta=0.60
     Davidson diagonalization with overlap
     ethr =  3.96E-09,  avg # of iterations =  4.8

     total cpu time spent up to now is     3386.9 secs

     total energy              =    -702.38288266 Ry
     Harris-Foulkes estimate   =    -702.38288280 Ry
     estimated scf accuracy    <       0.00000121 Ry

     iteration # 33     ecut=    40.00 Ry     beta=0.60
     Davidson diagonalization with overlap
     ethr =  1.63E-09,  avg # of iterations =  2.3

     total cpu time spent up to now is     3463.5 secs

     total energy              =    -702.38288270 Ry
     Harris-Foulkes estimate   =    -702.38288275 Ry
     estimated scf accuracy    <       0.00000048 Ry

     iteration # 34     ecut=    40.00 Ry     beta=0.60
     Davidson diagonalization with overlap
     ethr =  6.48E-10,  avg # of iterations =  3.1

     total cpu time spent up to now is     3544.7 secs

     total energy              =    -702.38288273 Ry
     Harris-Foulkes estimate   =    -702.38288273 Ry
     estimated scf accuracy    <       0.00000007 Ry

     iteration # 35     ecut=    40.00 Ry     beta=0.60
     Davidson diagonalization with overlap
     ethr =  9.31E-11,  avg # of iterations =  5.2

     total cpu time spent up to now is     3659.7 secs

     total energy              =    -702.38288274 Ry
     Harris-Foulkes estimate   =    -702.38288274 Ry
     estimated scf accuracy    <       0.00000002 Ry

     iteration # 36     ecut=    40.00 Ry     beta=0.60
     Davidson diagonalization with overlap
     ethr =  2.33E-11,  avg # of iterations =  4.2

     total cpu time spent up to now is     3758.1 secs

     total energy              =    -702.38288274 Ry
     Harris-Foulkes estimate   =    -702.38288274 Ry
     estimated scf accuracy    <       0.00000001 Ry

     iteration # 37     ecut=    40.00 Ry     beta=0.60
     Davidson diagonalization with overlap
     ethr =  1.81E-11,  avg # of iterations =  1.1

     total cpu time spent up to now is     3830.8 secs

     total energy              =    -702.38288274 Ry
     Harris-Foulkes estimate   =    -702.38288274 Ry
     estimated scf accuracy    <          1.5E-09 Ry

     iteration # 38     ecut=    40.00 Ry     beta=0.60
     Davidson diagonalization with overlap
     ethr =  2.00E-12,  avg # of iterations =  5.5

     total cpu time spent up to now is     3952.6 secs

     total energy              =    -702.38288274 Ry
     Harris-Foulkes estimate   =    -702.38288274 Ry
     estimated scf accuracy    <          5.4E-09 Ry

     iteration # 39     ecut=    40.00 Ry     beta=0.60
     Davidson diagonalization with overlap
     ethr =  2.00E-12,  avg # of iterations =  2.9

     total cpu time spent up to now is     4030.9 secs

     total energy              =    -702.38288274 Ry
     Harris-Foulkes estimate   =    -702.38288274 Ry
     estimated scf accuracy    <          3.6E-09 Ry

     iteration # 40     ecut=    40.00 Ry     beta=0.60
     Davidson diagonalization with overlap
     ethr =  2.00E-12,  avg # of iterations =  2.1

     total cpu time spent up to now is     4107.0 secs

     total energy              =    -702.38288274 Ry
     Harris-Foulkes estimate   =    -702.38288274 Ry
     estimated scf accuracy    <          1.1E-09 Ry

     iteration # 41     ecut=    40.00 Ry     beta=0.60
     Davidson diagonalization with overlap
     ethr =  1.46E-12,  avg # of iterations =  3.5

     total cpu time spent up to now is     4190.4 secs

     total energy              =    -702.38288274 Ry
     Harris-Foulkes estimate   =    -702.38288274 Ry
     estimated scf accuracy    <          1.2E-10 Ry

     iteration # 42     ecut=    40.00 Ry     beta=0.60
     Davidson diagonalization with overlap
     ethr =  1.67E-13,  avg # of iterations =  4.8

     total cpu time spent up to now is     4295.2 secs

     total energy              =    -702.38288274 Ry
     Harris-Foulkes estimate   =    -702.38288274 Ry
     estimated scf accuracy    <          1.1E-10 Ry

     iteration # 43     ecut=    40.00 Ry     beta=0.60
     Davidson diagonalization with overlap
     ethr =  1.43E-13,  avg # of iterations =  1.1

     total cpu time spent up to now is     4371.5 secs

     End of self-consistent calculation

     Number of k-points >= 100: set verbosity='high' to print the bands.

     the Fermi energy is    12.9910 ev

!    total energy              =    -702.38288274 Ry
     Harris-Foulkes estimate   =    -702.38288274 Ry
     estimated scf accuracy    <          1.4E-11 Ry

     The total energy is the sum of the following terms:

     one-electron contribution =    -231.56630657 Ry
     hartree contribution      =     137.86394731 Ry
     xc contribution           =     -94.33649753 Ry
     ewald contribution        =    -514.33876377 Ry
     smearing contrib. (-TS)   =      -0.00526219 Ry

     convergence has been achieved in  43 iterations

     Forces acting on atoms (Ry/au):

     atom    1 type  2   force =    -0.00009932   -0.00005734    0.00000000
     atom    2 type  2   force =     0.00011650    0.00006726    0.00000000
     atom    3 type  1   force =     0.00069696    0.00040239    0.00000000
     atom    4 type  2   force =    -0.00100253   -0.00057881    0.00000000
     atom    5 type  2   force =     0.00099611    0.00057511    0.00000000
     atom    6 type  1   force =    -0.00070772   -0.00040860    0.00000000

     Total force =     0.002002     Total SCF correction =     0.000009


     entering subroutine stress ...

          total   stress  (Ry/bohr**3)                   (kbar)     P= -129.95
  -0.00086196   0.00004289   0.00000000       -126.80      6.31      0.00
   0.00004289  -0.00091149   0.00000000          6.31   -134.08      0.00
   0.00000000   0.00000000  -0.00087670          0.00      0.00   -128.97


     BFGS Geometry Optimization

     number of scf cycles    =   1
     number of bfgs steps    =   0

     enthalpy new            =    -702.3828827439 Ry

     new trust radius        =       0.1297172511 bohr
     new conv_thr            =            1.0E-10 Ry

     new unit-cell volume =    755.95981 a.u.^3 (   112.02168 Ang^3 )

CELL_PARAMETERS (alat=  1.88972599)
   5.964429424   5.160450296   0.000000000
  -7.451295443  -2.585122623   0.000000000
   0.000000000   0.000000000   4.863476490

ATOMIC_POSITIONS (angstrom)
Ti      -1.486917477   2.575297964   4.863476490
Ti      -1.488689211   0.857388220   2.431738245
Nb       1.492882232   2.578801136   4.863476490
Ti      -5.961177268  -1.724804149   2.431738245
Ti      -2.978871066  -0.002967019   4.863476490
Nb       2.982792048   3.438999314   2.431738245


     NEW-OLD atomic charge density approx. for the potential
     extrapolated charge   69.14986, renormalised to   74.00000

     total cpu time spent up to now is     4407.6 secs

     per-process dynamical memory:   253.9 Mb

     Self-consistent Calculation

     iteration #  1     ecut=    40.00 Ry     beta=0.60
     Davidson diagonalization with overlap
     c_bands:  2 eigenvalues not converged
     c_bands:  4 eigenvalues not converged
     c_bands:  5 eigenvalues not converged
     c_bands:  1 eigenvalues not converged
     c_bands:  1 eigenvalues not converged
     c_bands:  1 eigenvalues not converged
     c_bands:  1 eigenvalues not converged
     c_bands:  1 eigenvalues not converged
     c_bands:  2 eigenvalues not converged
     c_bands:  2 eigenvalues not converged
     c_bands:  2 eigenvalues not converged
     c_bands:  2 eigenvalues not converged
     c_bands:  2 eigenvalues not converged
     c_bands:  1 eigenvalues not converged
     c_bands:  2 eigenvalues not converged
     c_bands:  1 eigenvalues not converged
     c_bands:  1 eigenvalues not converged
     c_bands:  1 eigenvalues not converged
     c_bands:  1 eigenvalues not converged
     c_bands:  1 eigenvalues not converged
     c_bands:  1 eigenvalues not converged
     c_bands:  1 eigenvalues not converged
     c_bands:  1 eigenvalues not converged
     c_bands:  1 eigenvalues not converged
     c_bands:  1 eigenvalues not converged
     c_bands:  1 eigenvalues not converged
     c_bands:  1 eigenvalues not converged
     c_bands:  2 eigenvalues not converged
     c_bands:  1 eigenvalues not converged
     c_bands:  1 eigenvalues not converged
     c_bands:  1 eigenvalues not converged
     c_bands:  1 eigenvalues not converged
     c_bands:  2 eigenvalues not converged
     c_bands:  1 eigenvalues not converged
     c_bands:  1 eigenvalues not converged
     c_bands:  4 eigenvalues not converged
     c_bands:  1 eigenvalues not converged
     c_bands:  1 eigenvalues not converged
     c_bands:  1 eigenvalues not converged
     c_bands:  1 eigenvalues not converged
     c_bands:  1 eigenvalues not converged
     c_bands:  1 eigenvalues not converged
     c_bands:  2 eigenvalues not converged
     c_bands:  1 eigenvalues not converged
     c_bands:  3 eigenvalues not converged
     c_bands:  1 eigenvalues not converged
     c_bands:  1 eigenvalues not converged
     c_bands:  3 eigenvalues not converged
     c_bands:  3 eigenvalues not converged
     c_bands:  2 eigenvalues not converged
     c_bands:  2 eigenvalues not converged
     c_bands:  1 eigenvalues not converged
     c_bands:  1 eigenvalues not converged
     c_bands:  1 eigenvalues not converged
     c_bands:  1 eigenvalues not converged
     c_bands:  1 eigenvalues not converged
     c_bands:  1 eigenvalues not converged
     c_bands:  1 eigenvalues not converged
     c_bands:  2 eigenvalues not converged
     c_bands:  3 eigenvalues not converged
     c_bands:  1 eigenvalues not converged
     c_bands:  1 eigenvalues not converged
     c_bands:  1 eigenvalues not converged
     c_bands:  1 eigenvalues not converged
     c_bands:  1 eigenvalues not converged
     c_bands:  1 eigenvalues not converged
     c_bands:  2 eigenvalues not converged
     c_bands:  1 eigenvalues not converged
     c_bands:  1 eigenvalues not converged
     c_bands:  1 eigenvalues not converged
     c_bands:  1 eigenvalues not converged
     c_bands:  1 eigenvalues not converged
     c_bands:  1 eigenvalues not converged
     c_bands:  2 eigenvalues not converged
     c_bands:  3 eigenvalues not converged
     c_bands:  2 eigenvalues not converged
     c_bands:  3 eigenvalues not converged
     c_bands:  1 eigenvalues not converged
     c_bands:  3 eigenvalues not converged
     c_bands:  3 eigenvalues not converged
     c_bands:  1 eigenvalues not converged
     c_bands:  1 eigenvalues not converged
     c_bands:  2 eigenvalues not converged
     c_bands:  2 eigenvalues not converged
     c_bands:  1 eigenvalues not converged
     c_bands:  2 eigenvalues not converged
     c_bands:  1 eigenvalues not converged
     c_bands:  1 eigenvalues not converged
     c_bands:  2 eigenvalues not converged
     c_bands:  1 eigenvalues not converged
     c_bands:  1 eigenvalues not converged
     c_bands:  1 eigenvalues not converged
     c_bands:  1 eigenvalues not converged
     c_bands:  1 eigenvalues not converged
     c_bands:  2 eigenvalues not converged
     c_bands:  4 eigenvalues not converged
     c_bands:  2 eigenvalues not converged
     c_bands:  4 eigenvalues not converged
     c_bands:  1 eigenvalues not converged
     c_bands:  1 eigenvalues not converged
     c_bands:  3 eigenvalues not converged
     c_bands:  4 eigenvalues not converged
     c_bands:  2 eigenvalues not converged
     c_bands:  1 eigenvalues not converged
     c_bands:  1 eigenvalues not converged
     c_bands:  1 eigenvalues not converged
     c_bands:  1 eigenvalues not converged
     c_bands:  3 eigenvalues not converged
     c_bands:  3 eigenvalues not converged
     c_bands:  1 eigenvalues not converged
     c_bands:  2 eigenvalues not converged
     c_bands:  2 eigenvalues not converged
     c_bands:  2 eigenvalues not converged
     c_bands:  1 eigenvalues not converged
     c_bands:  1 eigenvalues not converged
     c_bands:  1 eigenvalues not converged
     c_bands:  5 eigenvalues not converged
     c_bands:  2 eigenvalues not converged
     c_bands:  2 eigenvalues not converged
     c_bands:  2 eigenvalues not converged
     c_bands:  2 eigenvalues not converged
     c_bands:  4 eigenvalues not converged
     c_bands:  1 eigenvalues not converged
     c_bands:  4 eigenvalues not converged
     c_bands:  4 eigenvalues not converged
     c_bands:  2 eigenvalues not converged
     c_bands:  2 eigenvalues not converged
     c_bands:  2 eigenvalues not converged
     c_bands:  1 eigenvalues not converged
     ethr =  1.00E-06,  avg # of iterations = 18.2

     total cpu time spent up to now is     4796.1 secs

     total energy              =    -695.47665572 Ry
     Harris-Foulkes estimate   =    -713.07858989 Ry
     estimated scf accuracy    <       7.38316879 Ry

     iteration #  2     ecut=    40.00 Ry     beta=0.60
     Davidson diagonalization with overlap
     ethr =  9.98E-03,  avg # of iterations =  5.4

     total cpu time spent up to now is     4958.8 secs

     total energy              =    -701.85577233 Ry
     Harris-Foulkes estimate   =    -710.65165540 Ry
     estimated scf accuracy    <      25.57472624 Ry

     iteration #  3     ecut=    40.00 Ry     beta=0.60
     Davidson diagonalization with overlap
     ethr =  9.98E-03,  avg # of iterations =  4.5

     total cpu time spent up to now is     5072.9 secs

     total energy              =    -702.07667504 Ry
     Harris-Foulkes estimate   =    -706.40585839 Ry
     estimated scf accuracy    <      40.65379805 Ry

     iteration #  4     ecut=    40.00 Ry     beta=0.60
     Davidson diagonalization with overlap
     ethr =  9.98E-03,  avg # of iterations =  2.2

     total cpu time spent up to now is     5151.4 secs

     total energy              =    -702.69939602 Ry
     Harris-Foulkes estimate   =    -703.64671720 Ry
     estimated scf accuracy    <       5.04254819 Ry

     iteration #  5     ecut=    40.00 Ry     beta=0.60
     Davidson diagonalization with overlap
     ethr =  6.81E-03,  avg # of iterations =  1.6

     total cpu time spent up to now is     5225.8 secs

     total energy              =    -702.17455332 Ry
     Harris-Foulkes estimate   =    -702.82883941 Ry
     estimated scf accuracy    <       3.14746528 Ry

     iteration #  6     ecut=    40.00 Ry     beta=0.60
     Davidson diagonalization with overlap
     ethr =  4.25E-03,  avg # of iterations =  3.4

     total cpu time spent up to now is     5311.5 secs

     total energy              =    -702.50159357 Ry
     Harris-Foulkes estimate   =    -702.42317003 Ry
     estimated scf accuracy    <       0.57468717 Ry

     iteration #  7     ecut=    40.00 Ry     beta=0.60
     Davidson diagonalization with overlap
     ethr =  7.77E-04,  avg # of iterations =  5.8

     total cpu time spent up to now is     5419.3 secs

     total energy              =    -702.56001838 Ry
     Harris-Foulkes estimate   =    -702.56136669 Ry
     estimated scf accuracy    <       0.84517232 Ry

     iteration #  8     ecut=    40.00 Ry     beta=0.60
     Davidson diagonalization with overlap
     ethr =  7.77E-04,  avg # of iterations =  1.2

     total cpu time spent up to now is     5492.1 secs

     total energy              =    -702.54209541 Ry
     Harris-Foulkes estimate   =    -702.56482028 Ry
     estimated scf accuracy    <       0.83062654 Ry

     iteration #  9     ecut=    40.00 Ry     beta=0.60
     Davidson diagonalization with overlap
     ethr =  7.77E-04,  avg # of iterations =  1.0

     total cpu time spent up to now is     5564.4 secs

     total energy              =    -702.50938362 Ry
     Harris-Foulkes estimate   =    -702.54356079 Ry
     estimated scf accuracy    <       0.75743833 Ry

     iteration # 10     ecut=    40.00 Ry     beta=0.60
     Davidson diagonalization with overlap
     ethr =  7.77E-04,  avg # of iterations =  1.0

     total cpu time spent up to now is     5636.9 secs

     total energy              =    -702.28019701 Ry
     Harris-Foulkes estimate   =    -702.51123081 Ry
     estimated scf accuracy    <       0.62548792 Ry

     iteration # 11     ecut=    40.00 Ry     beta=0.60
     Davidson diagonalization with overlap
     ethr =  7.77E-04,  avg # of iterations =  5.6

     total cpu time spent up to now is     5763.2 secs

     total energy              =    -702.44398946 Ry
     Harris-Foulkes estimate   =    -702.48113418 Ry
     estimated scf accuracy    <       1.17556775 Ry

     iteration # 12     ecut=    40.00 Ry     beta=0.60
     Davidson diagonalization with overlap
     ethr =  7.77E-04,  avg # of iterations =  1.1

     total cpu time spent up to now is     5835.7 secs

     total energy              =    -702.44046900 Ry
     Harris-Foulkes estimate   =    -702.44881549 Ry
     estimated scf accuracy    <       0.74666023 Ry

     iteration # 13     ecut=    40.00 Ry     beta=0.60
     Davidson diagonalization with overlap
     ethr =  7.77E-04,  avg # of iterations =  1.0

     total cpu time spent up to now is     5908.2 secs

     total energy              =    -702.47825384 Ry
     Harris-Foulkes estimate   =    -702.44494120 Ry
     estimated scf accuracy    <       0.60297693 Ry

     iteration # 14     ecut=    40.00 Ry     beta=0.60
     Davidson diagonalization with overlap
     ethr =  7.77E-04,  avg # of iterations =  1.0

     total cpu time spent up to now is     5980.7 secs

     total energy              =    -702.31754804 Ry
     Harris-Foulkes estimate   =    -702.48440296 Ry
     estimated scf accuracy    <       1.08525729 Ry

     iteration # 15     ecut=    40.00 Ry     beta=0.60
     Davidson diagonalization with overlap
     ethr =  7.77E-04,  avg # of iterations =  3.7

     total cpu time spent up to now is     6062.9 secs

     total energy              =    -702.39984893 Ry
     Harris-Foulkes estimate   =    -702.40555398 Ry
     estimated scf accuracy    <       0.02749587 Ry

     iteration # 16     ecut=    40.00 Ry     beta=0.60
     Davidson diagonalization with overlap
     c_bands:  1 eigenvalues not converged
     ethr =  3.72E-05,  avg # of iterations =  6.8

     total cpu time spent up to now is     6213.9 secs

     total energy              =    -702.41193691 Ry
     Harris-Foulkes estimate   =    -702.42354581 Ry
     estimated scf accuracy    <       0.10953168 Ry

     iteration # 17     ecut=    40.00 Ry     beta=0.60
     Davidson diagonalization with overlap
     ethr =  3.72E-05,  avg # of iterations =  4.3

     total cpu time spent up to now is     6303.5 secs

     total energy              =    -702.41745096 Ry
     Harris-Foulkes estimate   =    -702.41777298 Ry
     estimated scf accuracy    <       0.00151728 Ry

     iteration # 18     ecut=    40.00 Ry     beta=0.60
     Davidson diagonalization with overlap
     ethr =  2.05E-06,  avg # of iterations =  7.6

     total cpu time spent up to now is     6456.7 secs

     total energy              =    -702.41821036 Ry
     Harris-Foulkes estimate   =    -702.41840859 Ry
     estimated scf accuracy    <       0.00158897 Ry

     iteration # 19     ecut=    40.00 Ry     beta=0.60
     Davidson diagonalization with overlap
     ethr =  2.05E-06,  avg # of iterations =  1.7

     total cpu time spent up to now is     6531.4 secs

     total energy              =    -702.41826305 Ry
     Harris-Foulkes estimate   =    -702.41831112 Ry
     estimated scf accuracy    <       0.00029089 Ry

     iteration # 20     ecut=    40.00 Ry     beta=0.60
     Davidson diagonalization with overlap
     ethr =  3.93E-07,  avg # of iterations =  4.0

     total cpu time spent up to now is     6628.5 secs

     total energy              =    -702.41830401 Ry
     Harris-Foulkes estimate   =    -702.41832080 Ry
     estimated scf accuracy    <       0.00011759 Ry

     iteration # 21     ecut=    40.00 Ry     beta=0.60
     Davidson diagonalization with overlap
     ethr =  1.59E-07,  avg # of iterations =  2.3

     total cpu time spent up to now is     6705.8 secs

     total energy              =    -702.41831067 Ry
     Harris-Foulkes estimate   =    -702.41831256 Ry
     estimated scf accuracy    <       0.00001414 Ry

     iteration # 22     ecut=    40.00 Ry     beta=0.60
     Davidson diagonalization with overlap
     c_bands:  2 eigenvalues not converged
     ethr =  1.91E-08,  avg # of iterations =  4.8

     total cpu time spent up to now is     6813.7 secs

     total energy              =    -702.41831273 Ry
     Harris-Foulkes estimate   =    -702.41831413 Ry
     estimated scf accuracy    <       0.00001198 Ry

     iteration # 23     ecut=    40.00 Ry     beta=0.60
     Davidson diagonalization with overlap
     ethr =  1.62E-08,  avg # of iterations =  1.1

     total cpu time spent up to now is     6886.6 secs

     total energy              =    -702.41831300 Ry
     Harris-Foulkes estimate   =    -702.41831331 Ry
     estimated scf accuracy    <       0.00000305 Ry

     iteration # 24     ecut=    40.00 Ry     beta=0.60
     Davidson diagonalization with overlap
     ethr =  4.12E-09,  avg # of iterations =  4.3

     total cpu time spent up to now is     6986.6 secs

     total energy              =    -702.41831334 Ry
     Harris-Foulkes estimate   =    -702.41831346 Ry
     estimated scf accuracy    <       0.00000079 Ry

     iteration # 25     ecut=    40.00 Ry     beta=0.60
     Davidson diagonalization with overlap
     ethr =  1.06E-09,  avg # of iterations =  2.4

     total cpu time spent up to now is     7064.4 secs

     total energy              =    -702.41831335 Ry
     Harris-Foulkes estimate   =    -702.41831340 Ry
     estimated scf accuracy    <       0.00000025 Ry

     iteration # 26     ecut=    40.00 Ry     beta=0.60
     Davidson diagonalization with overlap
     ethr =  3.36E-10,  avg # of iterations =  4.3

     total cpu time spent up to now is     7170.7 secs

     total energy              =    -702.41831340 Ry
     Harris-Foulkes estimate   =    -702.41831342 Ry
     estimated scf accuracy    <       0.00000020 Ry

     iteration # 27     ecut=    40.00 Ry     beta=0.60
     Davidson diagonalization with overlap
     ethr =  2.68E-10,  avg # of iterations =  1.0

     total cpu time spent up to now is     7243.3 secs

     total energy              =    -702.41831340 Ry
     Harris-Foulkes estimate   =    -702.41831340 Ry
     estimated scf accuracy    <       0.00000003 Ry

     iteration # 28     ecut=    40.00 Ry     beta=0.60
     Davidson diagonalization with overlap
     ethr =  4.58E-11,  avg # of iterations =  4.8

     total cpu time spent up to now is     7354.2 secs

     total energy              =    -702.41831341 Ry
     Harris-Foulkes estimate   =    -702.41831341 Ry
     estimated scf accuracy    <       0.00000002 Ry

     iteration # 29     ecut=    40.00 Ry     beta=0.60
     Davidson diagonalization with overlap
     ethr =  2.69E-11,  avg # of iterations =  1.0

     total cpu time spent up to now is     7426.7 secs

     total energy              =    -702.41831341 Ry
     Harris-Foulkes estimate   =    -702.41831341 Ry
     estimated scf accuracy    <          7.8E-09 Ry

     iteration # 30     ecut=    40.00 Ry     beta=0.60
     Davidson diagonalization with overlap
     ethr =  1.06E-11,  avg # of iterations =  3.6

     total cpu time spent up to now is     7513.8 secs

     total energy              =    -702.41831341 Ry
     Harris-Foulkes estimate   =    -702.41831341 Ry
     estimated scf accuracy    <          3.2E-10 Ry

     iteration # 31     ecut=    40.00 Ry     beta=0.60
     Davidson diagonalization with overlap
     ethr =  4.35E-13,  avg # of iterations =  5.4

     total cpu time spent up to now is     7636.8 secs

     total energy              =    -702.41831341 Ry
     Harris-Foulkes estimate   =    -702.41831341 Ry
     estimated scf accuracy    <          3.7E-10 Ry

     iteration # 32     ecut=    40.00 Ry     beta=0.60
     Davidson diagonalization with overlap
     ethr =  4.35E-13,  avg # of iterations =  1.0

     total cpu time spent up to now is     7709.3 secs

     total energy              =    -702.41831341 Ry
     Harris-Foulkes estimate   =    -702.41831341 Ry
     estimated scf accuracy    <          1.7E-10 Ry

     iteration # 33     ecut=    40.00 Ry     beta=0.60
     Davidson diagonalization with overlap
     ethr =  2.36E-13,  avg # of iterations =  1.0

     total cpu time spent up to now is     7782.0 secs

     End of self-consistent calculation

     Number of k-points >= 100: set verbosity='high' to print the bands.

     the Fermi energy is    14.0746 ev

!    total energy              =    -702.41831341 Ry
     Harris-Foulkes estimate   =    -702.41831341 Ry
     estimated scf accuracy    <          6.2E-11 Ry

     The total energy is the sum of the following terms:

     one-electron contribution =    -214.37617609 Ry
     hartree contribution      =     132.57834896 Ry
     xc contribution           =     -94.65946691 Ry
     ewald contribution        =    -525.95602335 Ry
     smearing contrib. (-TS)   =      -0.00499603 Ry

     convergence has been achieved in  33 iterations

     Forces acting on atoms (Ry/au):

     atom    1 type  2   force =    -0.00181195   -0.00104613    0.00000000
     atom    2 type  2   force =     0.00181552    0.00104819    0.00000000
     atom    3 type  1   force =    -0.00136275   -0.00078679    0.00000000
     atom    4 type  2   force =    -0.00516625   -0.00298273    0.00000000
     atom    5 type  2   force =     0.00516723    0.00298330    0.00000000
     atom    6 type  1   force =     0.00135820    0.00078416    0.00000000

     Total force =     0.009214     Total SCF correction =     0.000020


     entering subroutine stress ...

          total   stress  (Ry/bohr**3)                   (kbar)     P=  -64.89
  -0.00042690   0.00004210   0.00000000        -62.80      6.19      0.00
   0.00004210  -0.00047550   0.00000000          6.19    -69.95      0.00
   0.00000000   0.00000000  -0.00042099          0.00      0.00    -61.93


     number of scf cycles    =   2
     number of bfgs steps    =   1

     enthalpy old            =    -702.3828827439 Ry
     enthalpy new            =    -702.4183134089 Ry

     CASE: enthalpy_new < enthalpy_old

     new trust radius        =       0.1243756059 bohr
     new conv_thr            =            1.0E-10 Ry

     new unit-cell volume =    709.59231 a.u.^3 (   105.15073 Ang^3 )

CELL_PARAMETERS (alat=  1.88972599)
   5.854531193   5.056312051   0.000000000
  -7.306159954  -2.542017092   0.000000000
   0.000000000   0.000000000   4.766600243

ATOMIC_POSITIONS (angstrom)
Ti      -1.453409783   2.513266685   4.766600243
Ti      -1.455169204   0.836052567   2.383300121
Nb       1.466689932   2.522990529   4.766600243
Ti      -5.849306033  -1.700903702   2.383300121
Ti      -2.913818700  -0.006097498   4.766600243
Nb       2.930868971   3.368333078   2.383300121


     NEW-OLD atomic charge density approx. for the potential
     extrapolated charge   69.42630, renormalised to   74.00000

     total cpu time spent up to now is     7817.0 secs

     per-process dynamical memory:   253.9 Mb

     Self-consistent Calculation

     iteration #  1     ecut=    40.00 Ry     beta=0.60
     Davidson diagonalization with overlap
     c_bands:  1 eigenvalues not converged
     c_bands:  1 eigenvalues not converged
     c_bands:  2 eigenvalues not converged
     c_bands:  4 eigenvalues not converged
     c_bands:  3 eigenvalues not converged
     c_bands:  1 eigenvalues not converged
     c_bands:  1 eigenvalues not converged
     c_bands:  1 eigenvalues not converged
     c_bands:  1 eigenvalues not converged
     c_bands:  1 eigenvalues not converged
     c_bands:  1 eigenvalues not converged
     c_bands:  2 eigenvalues not converged
     c_bands:  2 eigenvalues not converged
     c_bands:  1 eigenvalues not converged
     c_bands:  1 eigenvalues not converged
     c_bands:  1 eigenvalues not converged
     c_bands:  1 eigenvalues not converged
     c_bands:  1 eigenvalues not converged
     c_bands:  1 eigenvalues not converged
     c_bands:  1 eigenvalues not converged
     c_bands:  1 eigenvalues not converged
     c_bands:  2 eigenvalues not converged
     c_bands:  1 eigenvalues not converged
     c_bands:  2 eigenvalues not converged
     c_bands:  1 eigenvalues not converged
     c_bands:  1 eigenvalues not converged
     c_bands:  2 eigenvalues not converged
     c_bands:  1 eigenvalues not converged
     c_bands:  2 eigenvalues not converged
     c_bands:  1 eigenvalues not converged
     c_bands:  1 eigenvalues not converged
     c_bands:  1 eigenvalues not converged
     c_bands:  1 eigenvalues not converged
     c_bands:  1 eigenvalues not converged
     c_bands:  2 eigenvalues not converged
     c_bands:  1 eigenvalues not converged
     c_bands:  1 eigenvalues not converged
     c_bands:  1 eigenvalues not converged
     c_bands:  1 eigenvalues not converged
     c_bands:  1 eigenvalues not converged
     c_bands:  2 eigenvalues not converged
     c_bands:  2 eigenvalues not converged
     c_bands:  1 eigenvalues not converged
     c_bands:  1 eigenvalues not converged
     c_bands:  1 eigenvalues not converged
     c_bands:  1 eigenvalues not converged
     c_bands:  1 eigenvalues not converged
     c_bands:  1 eigenvalues not converged
     c_bands:  1 eigenvalues not converged
     c_bands:  1 eigenvalues not converged
     c_bands:  1 eigenvalues not converged
     c_bands:  1 eigenvalues not converged
     c_bands:  3 eigenvalues not converged
     c_bands:  4 eigenvalues not converged
     c_bands:  1 eigenvalues not converged
     c_bands:  2 eigenvalues not converged
     c_bands:  2 eigenvalues not converged
     c_bands:  1 eigenvalues not converged
     c_bands:  1 eigenvalues not converged
     c_bands:  1 eigenvalues not converged
     c_bands:  1 eigenvalues not converged
     c_bands:  2 eigenvalues not converged
     c_bands:  2 eigenvalues not converged
     c_bands:  3 eigenvalues not converged
     c_bands:  3 eigenvalues not converged
     c_bands:  1 eigenvalues not converged
     c_bands:  1 eigenvalues not converged
     c_bands:  2 eigenvalues not converged
     c_bands:  1 eigenvalues not converged
     c_bands:  1 eigenvalues not converged
     c_bands:  1 eigenvalues not converged
     c_bands:  1 eigenvalues not converged
     c_bands:  2 eigenvalues not converged
     c_bands:  2 eigenvalues not converged
     c_bands:  2 eigenvalues not converged
     c_bands:  1 eigenvalues not converged
     c_bands:  4 eigenvalues not converged
     c_bands:  2 eigenvalues not converged
     c_bands:  2 eigenvalues not converged
     c_bands:  2 eigenvalues not converged
     c_bands:  1 eigenvalues not converged
     c_bands:  1 eigenvalues not converged
     c_bands:  3 eigenvalues not converged
     c_bands:  1 eigenvalues not converged
     c_bands:  2 eigenvalues not converged
     c_bands:  3 eigenvalues not converged
     c_bands:  1 eigenvalues not converged
     c_bands:  3 eigenvalues not converged
     c_bands:  1 eigenvalues not converged
     c_bands:  2 eigenvalues not converged
     c_bands:  2 eigenvalues not converged
     c_bands:  2 eigenvalues not converged
     c_bands:  2 eigenvalues not converged
     c_bands:  1 eigenvalues not converged
     c_bands:  2 eigenvalues not converged
     c_bands:  2 eigenvalues not converged
     c_bands:  1 eigenvalues not converged
     c_bands:  1 eigenvalues not converged
     c_bands:  1 eigenvalues not converged
     c_bands:  1 eigenvalues not converged
     c_bands:  1 eigenvalues not converged
     ethr =  1.00E-06,  avg # of iterations = 17.5

     total cpu time spent up to now is     8190.7 secs

     total energy              =    -697.80190721 Ry
     Harris-Foulkes estimate   =    -711.70628776 Ry
     estimated scf accuracy    <       4.76888771 Ry

     iteration #  2     ecut=    40.00 Ry     beta=0.60
     Davidson diagonalization with overlap
     ethr =  6.44E-03,  avg # of iterations =  5.4

     total cpu time spent up to now is     8357.4 secs

     total energy              =    -702.15224381 Ry
     Harris-Foulkes estimate   =    -707.92735832 Ry
     estimated scf accuracy    <      17.01848233 Ry

     iteration #  3     ecut=    40.00 Ry     beta=0.60
     Davidson diagonalization with overlap
     ethr =  6.44E-03,  avg # of iterations =  4.3

     total cpu time spent up to now is     8469.0 secs

     total energy              =    -702.23769911 Ry
     Harris-Foulkes estimate   =    -704.20269205 Ry
     estimated scf accuracy    <      18.91371526 Ry

     iteration #  4     ecut=    40.00 Ry     beta=0.60
     Davidson diagonalization with overlap
     ethr =  6.44E-03,  avg # of iterations =  2.5

     total cpu time spent up to now is     8547.5 secs

     total energy              =    -702.47097461 Ry
     Harris-Foulkes estimate   =    -703.13806683 Ry
     estimated scf accuracy    <       3.22624168 Ry

     iteration #  5     ecut=    40.00 Ry     beta=0.60
     Davidson diagonalization with overlap
     ethr =  4.36E-03,  avg # of iterations =  1.7

     total cpu time spent up to now is     8621.9 secs

     total energy              =    -702.24776228 Ry
     Harris-Foulkes estimate   =    -702.58136887 Ry
     estimated scf accuracy    <       1.70567076 Ry

     iteration #  6     ecut=    40.00 Ry     beta=0.60
     Davidson diagonalization with overlap
     ethr =  2.30E-03,  avg # of iterations =  4.3

     total cpu time spent up to now is     8719.0 secs

     total energy              =    -702.46257293 Ry
     Harris-Foulkes estimate   =    -702.44384496 Ry
     estimated scf accuracy    <       0.15413498 Ry

     iteration #  7     ecut=    40.00 Ry     beta=0.60
     Davidson diagonalization with overlap
     ethr =  2.08E-04,  avg # of iterations =  6.4

     total cpu time spent up to now is     8843.6 secs

     total energy              =    -702.50227435 Ry
     Harris-Foulkes estimate   =    -702.50125220 Ry
     estimated scf accuracy    <       0.40062659 Ry

     iteration #  8     ecut=    40.00 Ry     beta=0.60
     Davidson diagonalization with overlap
     ethr =  2.08E-04,  avg # of iterations =  1.0

     total cpu time spent up to now is     8915.9 secs

     total energy              =    -702.49759392 Ry
     Harris-Foulkes estimate   =    -702.50300043 Ry
     estimated scf accuracy    <       0.41357738 Ry

     iteration #  9     ecut=    40.00 Ry     beta=0.60
     Davidson diagonalization with overlap
     ethr =  2.08E-04,  avg # of iterations =  1.0

     total cpu time spent up to now is     8988.5 secs

     total energy              =    -702.46743155 Ry
     Harris-Foulkes estimate   =    -702.49781595 Ry
     estimated scf accuracy    <       0.39778247 Ry

     iteration # 10     ecut=    40.00 Ry     beta=0.60
     Davidson diagonalization with overlap
     ethr =  2.08E-04,  avg # of iterations =  1.0

     total cpu time spent up to now is     9060.8 secs

     total energy              =    -702.38307834 Ry
     Harris-Foulkes estimate   =    -702.46906949 Ry
     estimated scf accuracy    <       0.29478633 Ry

     iteration # 11     ecut=    40.00 Ry     beta=0.60
     Davidson diagonalization with overlap
     ethr =  2.08E-04,  avg # of iterations =  5.4

     total cpu time spent up to now is     9181.3 secs

     total energy              =    -702.42854532 Ry
     Harris-Foulkes estimate   =    -702.43248041 Ry
     estimated scf accuracy    <       0.08844012 Ry

     iteration # 12     ecut=    40.00 Ry     beta=0.60
     Davidson diagonalization with overlap
     ethr =  1.20E-04,  avg # of iterations =  1.3

     total cpu time spent up to now is     9255.1 secs

     total energy              =    -702.42625255 Ry
     Harris-Foulkes estimate   =    -702.42951629 Ry
     estimated scf accuracy    <       0.04852679 Ry

     iteration # 13     ecut=    40.00 Ry     beta=0.60
     Davidson diagonalization with overlap
     ethr =  6.56E-05,  avg # of iterations =  2.4

     total cpu time spent up to now is     9332.5 secs

     total energy              =    -702.42556786 Ry
     Harris-Foulkes estimate   =    -702.42877773 Ry
     estimated scf accuracy    <       0.02253377 Ry

     iteration # 14     ecut=    40.00 Ry     beta=0.60
     Davidson diagonalization with overlap
     c_bands:  1 eigenvalues not converged
     ethr =  3.05E-05,  avg # of iterations =  4.6

     total cpu time spent up to now is     9423.7 secs

     total energy              =    -702.42656529 Ry
     Harris-Foulkes estimate   =    -702.42774187 Ry
     estimated scf accuracy    <       0.00488476 Ry

     iteration # 15     ecut=    40.00 Ry     beta=0.60
     Davidson diagonalization with overlap
     c_bands:  1 eigenvalues not converged
     c_bands:  1 eigenvalues not converged
     c_bands:  2 eigenvalues not converged
     ethr =  6.60E-06,  avg # of iterations =  7.6

     total cpu time spent up to now is     9552.7 secs

     total energy              =    -702.42734867 Ry
     Harris-Foulkes estimate   =    -702.42774036 Ry
     estimated scf accuracy    <       0.00341358 Ry

     iteration # 16     ecut=    40.00 Ry     beta=0.60
     Davidson diagonalization with overlap
     c_bands:  1 eigenvalues not converged
     ethr =  4.61E-06,  avg # of iterations =  1.2

     total cpu time spent up to now is     9625.9 secs

     total energy              =    -702.42739974 Ry
     Harris-Foulkes estimate   =    -702.42748039 Ry
     estimated scf accuracy    <       0.00083223 Ry

     iteration # 17     ecut=    40.00 Ry     beta=0.60
     Davidson diagonalization with overlap
     c_bands:  1 eigenvalues not converged
     c_bands:  1 eigenvalues not converged
     ethr =  1.12E-06,  avg # of iterations =  4.1

     total cpu time spent up to now is     9720.0 secs

     total energy              =    -702.42747841 Ry
     Harris-Foulkes estimate   =    -702.42748255 Ry
     estimated scf accuracy    <       0.00004471 Ry

     iteration # 18     ecut=    40.00 Ry     beta=0.60
     Davidson diagonalization with overlap
     c_bands:  1 eigenvalues not converged
     c_bands:  1 eigenvalues not converged
     ethr =  6.04E-08,  avg # of iterations =  5.9

     total cpu time spent up to now is     9838.9 secs

     total energy              =    -702.42748759 Ry
     Harris-Foulkes estimate   =    -702.42749315 Ry
     estimated scf accuracy    <       0.00003639 Ry

     iteration # 19     ecut=    40.00 Ry     beta=0.60
     Davidson diagonalization with overlap
     ethr =  4.92E-08,  avg # of iterations =  3.6

     total cpu time spent up to now is     9923.1 secs

     total energy              =    -702.42748847 Ry
     Harris-Foulkes estimate   =    -702.42749324 Ry
     estimated scf accuracy    <       0.00005153 Ry

     iteration # 20     ecut=    40.00 Ry     beta=0.60
     Davidson diagonalization with overlap
     ethr =  4.92E-08,  avg # of iterations =  1.1

     total cpu time spent up to now is     9995.9 secs

     total energy              =    -702.42749044 Ry
     Harris-Foulkes estimate   =    -702.42749075 Ry
     estimated scf accuracy    <       0.00000286 Ry

     iteration # 21     ecut=    40.00 Ry     beta=0.60
     Davidson diagonalization with overlap
     ethr =  3.86E-09,  avg # of iterations =  5.0

     total cpu time spent up to now is    10105.1 secs

     total energy              =    -702.42749107 Ry
     Harris-Foulkes estimate   =    -702.42749115 Ry
     estimated scf accuracy    <       0.00000125 Ry

     iteration # 22     ecut=    40.00 Ry     beta=0.60
     Davidson diagonalization with overlap
     ethr =  1.69E-09,  avg # of iterations =  1.1

     total cpu time spent up to now is    10178.0 secs

     total energy              =    -702.42749107 Ry
     Harris-Foulkes estimate   =    -702.42749110 Ry
     estimated scf accuracy    <       0.00000039 Ry

     iteration # 23     ecut=    40.00 Ry     beta=0.60
     Davidson diagonalization with overlap
     ethr =  5.28E-10,  avg # of iterations =  3.8

     total cpu time spent up to now is    10265.9 secs

     total energy              =    -702.42749110 Ry
     Harris-Foulkes estimate   =    -702.42749110 Ry
     estimated scf accuracy    <       0.00000004 Ry

     iteration # 24     ecut=    40.00 Ry     beta=0.60
     Davidson diagonalization with overlap
     ethr =  5.17E-11,  avg # of iterations =  4.4

     total cpu time spent up to now is    10368.0 secs

     total energy              =    -702.42749110 Ry
     Harris-Foulkes estimate   =    -702.42749110 Ry
     estimated scf accuracy    <       0.00000001 Ry

     iteration # 25     ecut=    40.00 Ry     beta=0.60
     Davidson diagonalization with overlap
     ethr =  1.65E-11,  avg # of iterations =  3.8

     total cpu time spent up to now is    10455.8 secs

     total energy              =    -702.42749110 Ry
     Harris-Foulkes estimate   =    -702.42749110 Ry
     estimated scf accuracy    <          3.6E-09 Ry

     iteration # 26     ecut=    40.00 Ry     beta=0.60
     Davidson diagonalization with overlap
     ethr =  4.88E-12,  avg # of iterations =  3.8

     total cpu time spent up to now is    10551.9 secs

     total energy              =    -702.42749110 Ry
     Harris-Foulkes estimate   =    -702.42749110 Ry
     estimated scf accuracy    <          2.8E-09 Ry

     iteration # 27     ecut=    40.00 Ry     beta=0.60
     Davidson diagonalization with overlap
     ethr =  3.80E-12,  avg # of iterations =  4.0

     total cpu time spent up to now is    10645.9 secs

     total energy              =    -702.42749110 Ry
     Harris-Foulkes estimate   =    -702.42749110 Ry
     estimated scf accuracy    <          4.4E-09 Ry

     iteration # 28     ecut=    40.00 Ry     beta=0.60
     Davidson diagonalization with overlap
     ethr =  3.80E-12,  avg # of iterations =  1.7

     total cpu time spent up to now is    10720.6 secs

     total energy              =    -702.42749110 Ry
     Harris-Foulkes estimate   =    -702.42749110 Ry
     estimated scf accuracy    <          2.8E-10 Ry

     iteration # 29     ecut=    40.00 Ry     beta=0.60
     Davidson diagonalization with overlap
     ethr =  3.83E-13,  avg # of iterations =  4.9

     total cpu time spent up to now is    10832.3 secs

     total energy              =    -702.42749110 Ry
     Harris-Foulkes estimate   =    -702.42749110 Ry
     estimated scf accuracy    <          2.4E-10 Ry

     iteration # 30     ecut=    40.00 Ry     beta=0.60
     Davidson diagonalization with overlap
     ethr =  3.18E-13,  avg # of iterations =  1.0

     total cpu time spent up to now is    10904.9 secs

     End of self-consistent calculation

     Number of k-points >= 100: set verbosity='high' to print the bands.

     the Fermi energy is    15.1582 ev

!    total energy              =    -702.42749110 Ry
     Harris-Foulkes estimate   =    -702.42749110 Ry
     estimated scf accuracy    <          8.9E-11 Ry

     The total energy is the sum of the following terms:

     one-electron contribution =    -197.81607521 Ry
     hartree contribution      =     127.60341459 Ry
     xc contribution           =     -94.98881178 Ry
     ewald contribution        =    -537.22120270 Ry
     smearing contrib. (-TS)   =      -0.00481600 Ry

     convergence has been achieved in  30 iterations

     Forces acting on atoms (Ry/au):

     atom    1 type  2   force =    -0.00295474   -0.00170592    0.00000000
     atom    2 type  2   force =     0.00294843    0.00170228    0.00000000
     atom    3 type  1   force =    -0.00239672   -0.00138374    0.00000000
     atom    4 type  2   force =    -0.00869240   -0.00501856    0.00000000
     atom    5 type  2   force =     0.00869407    0.00501952    0.00000000
     atom    6 type  1   force =     0.00240135    0.00138642    0.00000000

     Total force =     0.015495     Total SCF correction =     0.000043


     entering subroutine stress ...

          total   stress  (Ry/bohr**3)                   (kbar)     P=   12.92
   0.00009208   0.00003671   0.00000000         13.55      5.40      0.00
   0.00003671   0.00004969   0.00000000          5.40      7.31      0.00
   0.00000000   0.00000000   0.00012164          0.00      0.00     17.89


     number of scf cycles    =   3
     number of bfgs steps    =   2

     enthalpy old            =    -702.4183134089 Ry
     enthalpy new            =    -702.4274911037 Ry

     CASE: enthalpy_new < enthalpy_old

     new trust radius        =       0.0192412294 bohr
     new conv_thr            =            1.0E-10 Ry

     new unit-cell volume =    715.95302 a.u.^3 (   106.09329 Ang^3 )

CELL_PARAMETERS (alat=  1.88972599)
   5.875354513   5.071598316   0.000000000
  -7.329809909  -2.552407483   0.000000000
   0.000000000   0.000000000   4.783815246

ATOMIC_POSITIONS (angstrom)
Ti      -1.457374748   2.517505344   4.783815246
Ti      -1.457917692   0.837729640   2.391907623
Nb       1.471763093   2.529183436   4.783815246
Ti      -5.871375925  -1.710381846   2.391907623
Ti      -2.919282198  -0.005987934   4.783815246
Nb       2.942737232   3.378449133   2.391907623


     NEW-OLD atomic charge density approx. for the potential
     extrapolated charge   74.62185, renormalised to   74.00000

     total cpu time spent up to now is    10939.8 secs

     per-process dynamical memory:   253.9 Mb

     Self-consistent Calculation

     iteration #  1     ecut=    40.00 Ry     beta=0.60
     Davidson diagonalization with overlap
     c_bands:  1 eigenvalues not converged
     c_bands:  1 eigenvalues not converged
     c_bands:  1 eigenvalues not converged
     c_bands:  2 eigenvalues not converged
     c_bands:  1 eigenvalues not converged
     c_bands:  1 eigenvalues not converged
     c_bands:  2 eigenvalues not converged
     c_bands:  1 eigenvalues not converged
     ethr =  1.00E-06,  avg # of iterations =  8.2

     total cpu time spent up to now is    11157.7 secs

     total energy              =    -702.38362426 Ry
     Harris-Foulkes estimate   =    -701.22920211 Ry
     estimated scf accuracy    <       0.04262201 Ry

     iteration #  2     ecut=    40.00 Ry     beta=0.60
     Davidson diagonalization with overlap
     ethr =  5.76E-05,  avg # of iterations =  7.2

     total cpu time spent up to now is    11347.7 secs

     total energy              =    -702.28670719 Ry
     Harris-Foulkes estimate   =    -702.56051951 Ry
     estimated scf accuracy    <       2.63187021 Ry

     iteration #  3     ecut=    40.00 Ry     beta=0.60
     Davidson diagonalization with overlap
     ethr =  5.76E-05,  avg # of iterations =  6.8

     total cpu time spent up to now is    11509.5 secs

     total energy              =    -702.41202737 Ry
     Harris-Foulkes estimate   =    -702.45082064 Ry
     estimated scf accuracy    <       0.31796832 Ry

     iteration #  4     ecut=    40.00 Ry     beta=0.60
     Davidson diagonalization with overlap
     ethr =  5.76E-05,  avg # of iterations =  5.7

     total cpu time spent up to now is    11629.3 secs

     total energy              =    -702.42286590 Ry
     Harris-Foulkes estimate   =    -702.43611854 Ry
     estimated scf accuracy    <       0.07306332 Ry

     iteration #  5     ecut=    40.00 Ry     beta=0.60
     Davidson diagonalization with overlap
     ethr =  5.76E-05,  avg # of iterations =  3.6

     total cpu time spent up to now is    11716.0 secs

     total energy              =    -702.42822202 Ry
     Harris-Foulkes estimate   =    -702.42905256 Ry
     estimated scf accuracy    <       0.00627681 Ry

     iteration #  6     ecut=    40.00 Ry     beta=0.60
     Davidson diagonalization with overlap
     ethr =  8.48E-06,  avg # of iterations =  5.6

     total cpu time spent up to now is    11827.7 secs

     total energy              =    -702.42896450 Ry
     Harris-Foulkes estimate   =    -702.42917724 Ry
     estimated scf accuracy    <       0.00615634 Ry

     iteration #  7     ecut=    40.00 Ry     beta=0.60
     Davidson diagonalization with overlap
     ethr =  8.32E-06,  avg # of iterations =  1.0

     total cpu time spent up to now is    11900.3 secs

     total energy              =    -702.42875944 Ry
     Harris-Foulkes estimate   =    -702.42900790 Ry
     estimated scf accuracy    <       0.00540230 Ry

     iteration #  8     ecut=    40.00 Ry     beta=0.60
     Davidson diagonalization with overlap
     ethr =  7.30E-06,  avg # of iterations =  1.0

     total cpu time spent up to now is    11972.6 secs

     total energy              =    -702.42811460 Ry
     Harris-Foulkes estimate   =    -702.42878264 Ry
     estimated scf accuracy    <       0.00427038 Ry

     iteration #  9     ecut=    40.00 Ry     beta=0.60
     Davidson diagonalization with overlap
     ethr =  5.77E-06,  avg # of iterations =  1.0

     total cpu time spent up to now is    12044.9 secs

     total energy              =    -702.42807972 Ry
     Harris-Foulkes estimate   =    -702.42819920 Ry
     estimated scf accuracy    <       0.00181428 Ry

     iteration # 10     ecut=    40.00 Ry     beta=0.60
     Davidson diagonalization with overlap
     c_bands:  1 eigenvalues not converged
     ethr =  2.45E-06,  avg # of iterations =  1.7

     total cpu time spent up to now is    12119.4 secs

     total energy              =    -702.42765676 Ry
     Harris-Foulkes estimate   =    -702.42812068 Ry
     estimated scf accuracy    <       0.00128057 Ry

     iteration # 11     ecut=    40.00 Ry     beta=0.60
     Davidson diagonalization with overlap
     ethr =  1.73E-06,  avg # of iterations =  5.1

     total cpu time spent up to now is    12231.6 secs

     total energy              =    -702.42800827 Ry
     Harris-Foulkes estimate   =    -702.42802860 Ry
     estimated scf accuracy    <       0.00037077 Ry

     iteration # 12     ecut=    40.00 Ry     beta=0.60
     Davidson diagonalization with overlap
     ethr =  5.01E-07,  avg # of iterations =  1.2

     total cpu time spent up to now is    12304.7 secs

     total energy              =    -702.42799040 Ry
     Harris-Foulkes estimate   =    -702.42801961 Ry
     estimated scf accuracy    <       0.00023379 Ry

     iteration # 13     ecut=    40.00 Ry     beta=0.60
     Davidson diagonalization with overlap
     ethr =  3.16E-07,  avg # of iterations =  2.0

     total cpu time spent up to now is    12380.3 secs

     total energy              =    -702.42799332 Ry
     Harris-Foulkes estimate   =    -702.42799908 Ry
     estimated scf accuracy    <       0.00010127 Ry

     iteration # 14     ecut=    40.00 Ry     beta=0.60
     Davidson diagonalization with overlap
     ethr =  1.37E-07,  avg # of iterations =  3.2

     total cpu time spent up to now is    12464.4 secs

     total energy              =    -702.42798537 Ry
     Harris-Foulkes estimate   =    -702.42799904 Ry
     estimated scf accuracy    <       0.00003323 Ry

     iteration # 15     ecut=    40.00 Ry     beta=0.60
     Davidson diagonalization with overlap
     ethr =  4.49E-08,  avg # of iterations =  5.4

     total cpu time spent up to now is    12589.5 secs

     total energy              =    -702.42800768 Ry
     Harris-Foulkes estimate   =    -702.42802862 Ry
     estimated scf accuracy    <       0.00033808 Ry

     iteration # 16     ecut=    40.00 Ry     beta=0.60
     Davidson diagonalization with overlap
     ethr =  4.49E-08,  avg # of iterations =  3.4

     total cpu time spent up to now is    12681.2 secs

     total energy              =    -702.42799019 Ry
     Harris-Foulkes estimate   =    -702.42801465 Ry
     estimated scf accuracy    <       0.00016243 Ry

     iteration # 17     ecut=    40.00 Ry     beta=0.60
     Davidson diagonalization with overlap
     ethr =  4.49E-08,  avg # of iterations =  4.2

     total cpu time spent up to now is    12785.3 secs

     total energy              =    -702.42799778 Ry
     Harris-Foulkes estimate   =    -702.42799919 Ry
     estimated scf accuracy    <       0.00000899 Ry

     iteration # 18     ecut=    40.00 Ry     beta=0.60
     Davidson diagonalization with overlap
     ethr =  1.22E-08,  avg # of iterations =  2.6

     total cpu time spent up to now is    12863.2 secs

     total energy              =    -702.42799830 Ry
     Harris-Foulkes estimate   =    -702.42799844 Ry
     estimated scf accuracy    <       0.00000138 Ry

     iteration # 19     ecut=    40.00 Ry     beta=0.60
     Davidson diagonalization with overlap
     ethr =  1.87E-09,  avg # of iterations =  4.7

     total cpu time spent up to now is    12976.3 secs

     total energy              =    -702.42799874 Ry
     Harris-Foulkes estimate   =    -702.42799879 Ry
     estimated scf accuracy    <       0.00000041 Ry

     iteration # 20     ecut=    40.00 Ry     beta=0.60
     Davidson diagonalization with overlap
     ethr =  5.60E-10,  avg # of iterations =  1.0

     total cpu time spent up to now is    13048.8 secs

     total energy              =    -702.42799873 Ry
     Harris-Foulkes estimate   =    -702.42799875 Ry
     estimated scf accuracy    <       0.00000014 Ry

     iteration # 21     ecut=    40.00 Ry     beta=0.60
     Davidson diagonalization with overlap
     ethr =  1.84E-10,  avg # of iterations =  3.8

     total cpu time spent up to now is    13147.6 secs

     total energy              =    -702.42799875 Ry
     Harris-Foulkes estimate   =    -702.42799875 Ry
     estimated scf accuracy    <       0.00000002 Ry

     iteration # 22     ecut=    40.00 Ry     beta=0.60
     Davidson diagonalization with overlap
     ethr =  3.14E-11,  avg # of iterations =  2.8

     total cpu time spent up to now is    13229.1 secs

     total energy              =    -702.42799875 Ry
     Harris-Foulkes estimate   =    -702.42799875 Ry
     estimated scf accuracy    <          1.9E-09 Ry

     iteration # 23     ecut=    40.00 Ry     beta=0.60
     Davidson diagonalization with overlap
     ethr =  2.50E-12,  avg # of iterations =  5.1

     total cpu time spent up to now is    13347.0 secs

     total energy              =    -702.42799875 Ry
     Harris-Foulkes estimate   =    -702.42799875 Ry
     estimated scf accuracy    <          3.5E-10 Ry

     iteration # 24     ecut=    40.00 Ry     beta=0.60
     Davidson diagonalization with overlap
     ethr =  4.77E-13,  avg # of iterations =  3.2

     total cpu time spent up to now is    13429.1 secs

     End of self-consistent calculation

     Number of k-points >= 100: set verbosity='high' to print the bands.

     the Fermi energy is    15.0010 ev

!    total energy              =    -702.42799875 Ry
     Harris-Foulkes estimate   =    -702.42799875 Ry
     estimated scf accuracy    <          2.2E-11 Ry

     The total energy is the sum of the following terms:

     one-electron contribution =    -200.09173601 Ry
     hartree contribution      =     128.26500299 Ry
     xc contribution           =     -94.94000090 Ry
     ewald contribution        =    -535.65639493 Ry
     smearing contrib. (-TS)   =      -0.00486990 Ry

     convergence has been achieved in  24 iterations

     Forces acting on atoms (Ry/au):

     atom    1 type  2   force =    -0.00228272   -0.00131793    0.00000000
     atom    2 type  2   force =     0.00227871    0.00131561    0.00000000
     atom    3 type  1   force =    -0.00130126   -0.00075128    0.00000000
     atom    4 type  2   force =    -0.00737992   -0.00426080    0.00000000
     atom    5 type  2   force =     0.00738185    0.00426192    0.00000000
     atom    6 type  1   force =     0.00130333    0.00075248    0.00000000

     Total force =     0.012793     Total SCF correction =     0.000018


     entering subroutine stress ...

          total   stress  (Ry/bohr**3)                   (kbar)     P=    0.46
   0.00001073   0.00003489   0.00000000          1.58      5.13      0.00
   0.00003489  -0.00002956   0.00000000          5.13     -4.35      0.00
   0.00000000   0.00000000   0.00002823          0.00      0.00      4.15


     number of scf cycles    =   4
     number of bfgs steps    =   3

     enthalpy old            =    -702.4274911037 Ry
     enthalpy new            =    -702.4279987531 Ry

     CASE: enthalpy_new < enthalpy_old

     new trust radius        =       0.0142008423 bohr
     new conv_thr            =            1.0E-10 Ry

     new unit-cell volume =    717.73967 a.u.^3 (   106.35804 Ang^3 )

CELL_PARAMETERS (alat=  1.88972599)
   5.889356286   5.077295745   0.000000000
  -7.341744914  -2.561684659   0.000000000
   0.000000000   0.000000000   4.793163154

ATOMIC_POSITIONS (angstrom)
Ti      -1.457373737   2.512732932   4.793163154
Ti      -1.456263259   0.836298332   2.396581577
Nb       1.475823153   2.529141014   4.793163154
Ti      -5.886965555  -1.721769018   2.396581577
Ti      -2.916033556  -0.006498828   4.793163154
Nb       2.952273608   3.381568467   2.396581577


     NEW-OLD atomic charge density approx. for the potential
     extrapolated charge   74.17423, renormalised to   74.00000

     total cpu time spent up to now is    13463.7 secs

     per-process dynamical memory:   253.9 Mb

     Self-consistent Calculation

     iteration #  1     ecut=    40.00 Ry     beta=0.60
     Davidson diagonalization with overlap
     c_bands:  1 eigenvalues not converged
     ethr =  1.00E-06,  avg # of iterations =  6.1

     total cpu time spent up to now is    13672.9 secs

     total energy              =    -702.41400449 Ry
     Harris-Foulkes estimate   =    -702.09106734 Ry
     estimated scf accuracy    <       0.01780397 Ry

     iteration #  2     ecut=    40.00 Ry     beta=0.60
     Davidson diagonalization with overlap
     ethr =  2.41E-05,  avg # of iterations =  7.1

     total cpu time spent up to now is    13856.5 secs

     total energy              =    -702.32474626 Ry
     Harris-Foulkes estimate   =    -702.53379584 Ry
     estimated scf accuracy    <       2.42185602 Ry

     iteration #  3     ecut=    40.00 Ry     beta=0.60
     Davidson diagonalization with overlap
     ethr =  2.41E-05,  avg # of iterations =  6.8

     total cpu time spent up to now is    14022.3 secs

     total energy              =    -702.42803817 Ry
     Harris-Foulkes estimate   =    -702.42949412 Ry
     estimated scf accuracy    <       0.00765640 Ry

     iteration #  4     ecut=    40.00 Ry     beta=0.60
     Davidson diagonalization with overlap
     ethr =  1.03E-05,  avg # of iterations =  1.1

     total cpu time spent up to now is    14094.9 secs

     total energy              =    -702.42816125 Ry
     Harris-Foulkes estimate   =    -702.42834879 Ry
     estimated scf accuracy    <       0.00161341 Ry

     iteration #  5     ecut=    40.00 Ry     beta=0.60
     Davidson diagonalization with overlap
     ethr =  2.18E-06,  avg # of iterations =  4.5

     total cpu time spent up to now is    14192.8 secs

     total energy              =    -702.42835720 Ry
     Harris-Foulkes estimate   =    -702.42840097 Ry
     estimated scf accuracy    <       0.00039280 Ry

     iteration #  6     ecut=    40.00 Ry     beta=0.60
     Davidson diagonalization with overlap
     ethr =  5.31E-07,  avg # of iterations =  2.5

     total cpu time spent up to now is    14270.5 secs

     total energy              =    -702.42835926 Ry
     Harris-Foulkes estimate   =    -702.42837061 Ry
     estimated scf accuracy    <       0.00020909 Ry

     iteration #  7     ecut=    40.00 Ry     beta=0.60
     Davidson diagonalization with overlap
     ethr =  2.83E-07,  avg # of iterations =  2.1

     total cpu time spent up to now is    14347.0 secs

     total energy              =    -702.42832623 Ry
     Harris-Foulkes estimate   =    -702.42836781 Ry
     estimated scf accuracy    <       0.00020574 Ry

     iteration #  8     ecut=    40.00 Ry     beta=0.60
     Davidson diagonalization with overlap
     ethr =  2.78E-07,  avg # of iterations =  2.2

     total cpu time spent up to now is    14424.0 secs

     total energy              =    -702.42832441 Ry
     Harris-Foulkes estimate   =    -702.42833717 Ry
     estimated scf accuracy    <       0.00004952 Ry

     iteration #  9     ecut=    40.00 Ry     beta=0.60
     Davidson diagonalization with overlap
     ethr =  6.69E-08,  avg # of iterations =  4.9

     total cpu time spent up to now is    14534.9 secs

     total energy              =    -702.42833734 Ry
     Harris-Foulkes estimate   =    -702.42833924 Ry
     estimated scf accuracy    <       0.00001792 Ry

     iteration # 10     ecut=    40.00 Ry     beta=0.60
     Davidson diagonalization with overlap
     ethr =  2.42E-08,  avg # of iterations =  1.2

     total cpu time spent up to now is    14608.5 secs

     total energy              =    -702.42833877 Ry
     Harris-Foulkes estimate   =    -702.42833813 Ry
     estimated scf accuracy    <       0.00000399 Ry

     iteration # 11     ecut=    40.00 Ry     beta=0.60
     Davidson diagonalization with overlap
     ethr =  5.39E-09,  avg # of iterations =  4.9

     total cpu time spent up to now is    14733.8 secs

     total energy              =    -702.42833716 Ry
     Harris-Foulkes estimate   =    -702.42834034 Ry
     estimated scf accuracy    <       0.00001932 Ry

     iteration # 12     ecut=    40.00 Ry     beta=0.60
     Davidson diagonalization with overlap
     ethr =  5.39E-09,  avg # of iterations =  4.8

     total cpu time spent up to now is    14846.4 secs

     total energy              =    -702.42833830 Ry
     Harris-Foulkes estimate   =    -702.42833916 Ry
     estimated scf accuracy    <       0.00001606 Ry

     iteration # 13     ecut=    40.00 Ry     beta=0.60
     Davidson diagonalization with overlap
     ethr =  5.39E-09,  avg # of iterations =  1.0

     total cpu time spent up to now is    14919.4 secs

     total energy              =    -702.42833814 Ry
     Harris-Foulkes estimate   =    -702.42833849 Ry
     estimated scf accuracy    <       0.00000994 Ry

     iteration # 14     ecut=    40.00 Ry     beta=0.60
     Davidson diagonalization with overlap
     ethr =  5.39E-09,  avg # of iterations =  1.0

     total cpu time spent up to now is    14992.5 secs

     total energy              =    -702.42833784 Ry
     Harris-Foulkes estimate   =    -702.42833825 Ry
     estimated scf accuracy    <       0.00000685 Ry

     iteration # 15     ecut=    40.00 Ry     beta=0.60
     Davidson diagonalization with overlap
     ethr =  5.39E-09,  avg # of iterations =  3.5

     total cpu time spent up to now is    15080.3 secs

     total energy              =    -702.42833807 Ry
     Harris-Foulkes estimate   =    -702.42833819 Ry
     estimated scf accuracy    <       0.00000279 Ry

[...]
     c_bands:  1 eigenvalues not converged
     c_bands:  2 eigenvalues not converged
     c_bands:  4 eigenvalues not converged
     c_bands:  4 eigenvalues not converged
     c_bands:  4 eigenvalues not converged
     c_bands:  4 eigenvalues not converged
     c_bands:  4 eigenvalues not converged
     c_bands:  4 eigenvalues not converged
     c_bands:  3 eigenvalues not converged
     c_bands:  3 eigenvalues not converged
     c_bands:  2 eigenvalues not converged
     c_bands:  2 eigenvalues not converged
     c_bands:  2 eigenvalues not converged
     c_bands:  2 eigenvalues not converged
     c_bands:  3 eigenvalues not converged
     c_bands:  2 eigenvalues not converged
     c_bands:  2 eigenvalues not converged
     c_bands:  2 eigenvalues not converged
     c_bands:  2 eigenvalues not converged
     c_bands:  3 eigenvalues not converged
     c_bands:  4 eigenvalues not converged
     c_bands:  3 eigenvalues not converged
     c_bands:  4 eigenvalues not converged
     c_bands:  2 eigenvalues not converged
     c_bands:  2 eigenvalues not converged
     c_bands:  3 eigenvalues not converged
     c_bands:  3 eigenvalues not converged
     c_bands:  2 eigenvalues not converged
     c_bands:  2 eigenvalues not converged
     c_bands:  2 eigenvalues not converged
     c_bands:  2 eigenvalues not converged
     c_bands:  2 eigenvalues not converged
     c_bands:  2 eigenvalues not converged
     c_bands:  2 eigenvalues not converged
     c_bands:  2 eigenvalues not converged
     c_bands:  2 eigenvalues not converged
     ethr =  1.00E-06,  avg # of iterations = 18.9

     total cpu time spent up to now is    68919.3 secs

     total energy              =    -630.96139117 Ry
     Harris-Foulkes estimate   =    -710.57578970 Ry
     estimated scf accuracy    <      97.38331491 Ry

     iteration #  2     ecut=    40.00 Ry     beta=0.60
     Davidson diagonalization with overlap
     ethr =  1.00E-02,  avg # of iterations = 10.1

     total cpu time spent up to now is    69197.0 secs

     total energy              =    -659.95442554 Ry
     Harris-Foulkes estimate   =    -887.99060247 Ry
     estimated scf accuracy    <     842.00686806 Ry

     iteration #  3     ecut=    40.00 Ry     beta=0.60
     Davidson diagonalization with overlap
     ethr =  1.00E-02,  avg # of iterations =  7.5

     total cpu time spent up to now is    69406.6 secs

     total energy              =    -706.06504439 Ry
     Harris-Foulkes estimate   =    -717.15363952 Ry
     estimated scf accuracy    <      78.74655995 Ry

     iteration #  4     ecut=    40.00 Ry     beta=0.60
     Davidson diagonalization with overlap
     ethr =  1.00E-02,  avg # of iterations =  5.4

     total cpu time spent up to now is    69496.3 secs

     total energy              =    -704.83316643 Ry
     Harris-Foulkes estimate   =    -710.69456611 Ry
     estimated scf accuracy    <      52.30031716 Ry

     iteration #  5     ecut=    40.00 Ry     beta=0.60
     Davidson diagonalization with overlap
     ethr =  1.00E-02,  avg # of iterations =  2.6

     total cpu time spent up to now is    69569.3 secs

     total energy              =    -706.58216692 Ry
     Harris-Foulkes estimate   =    -705.72045113 Ry
     estimated scf accuracy    <      26.24152491 Ry

     iteration #  6     ecut=    40.00 Ry     beta=0.60
     Davidson diagonalization with overlap
     ethr =  1.00E-02,  avg # of iterations =  1.1

     total cpu time spent up to now is    69635.4 secs

     total energy              =    -702.47724715 Ry
     Harris-Foulkes estimate   =    -706.63232431 Ry
     estimated scf accuracy    <      28.41132126 Ry

     iteration #  7     ecut=    40.00 Ry     beta=0.60
     Davidson diagonalization with overlap
     ethr =  1.00E-02,  avg # of iterations =  3.4

     total cpu time spent up to now is    69713.0 secs

     total energy              =    -702.97288850 Ry
     Harris-Foulkes estimate   =    -703.05921499 Ry
     estimated scf accuracy    <      10.33884498 Ry

     iteration #  8     ecut=    40.00 Ry     beta=0.60
     Davidson diagonalization with overlap
     ethr =  1.00E-02,  avg # of iterations =  1.1

     total cpu time spent up to now is    69779.3 secs

     total energy              =    -702.98513423 Ry
     Harris-Foulkes estimate   =    -703.03681633 Ry
     estimated scf accuracy    <       9.81861918 Ry

     iteration #  9     ecut=    40.00 Ry     beta=0.60
     Davidson diagonalization with overlap
     ethr =  1.00E-02,  avg # of iterations =  1.0

     total cpu time spent up to now is    69845.3 secs

     total energy              =    -701.57628358 Ry
     Harris-Foulkes estimate   =    -703.01088994 Ry
     estimated scf accuracy    <       9.25604324 Ry

     iteration # 10     ecut=    40.00 Ry     beta=0.60
     Davidson diagonalization with overlap
     ethr =  1.00E-02,  avg # of iterations =  4.2

     total cpu time spent up to now is    69928.9 secs

     total energy              =    -702.99423178 Ry
     Harris-Foulkes estimate   =    -702.45793593 Ry
     estimated scf accuracy    <       1.08383009 Ry

     iteration # 11     ecut=    40.00 Ry     beta=0.60
     Davidson diagonalization with overlap
     ethr =  1.46E-03,  avg # of iterations =  6.6

     total cpu time spent up to now is    70075.5 secs

     total energy              =    -703.23358845 Ry
     Harris-Foulkes estimate   =    -705.48030951 Ry
     estimated scf accuracy    <      85.33086212 Ry

     iteration # 12     ecut=    40.00 Ry     beta=0.60
     Davidson diagonalization with overlap
     ethr =  1.46E-03,  avg # of iterations =  3.1

     total cpu time spent up to now is    70158.6 secs

     total energy              =    -702.89917975 Ry
     Harris-Foulkes estimate   =    -703.63450916 Ry
     estimated scf accuracy    <      33.59843462 Ry

     iteration # 13     ecut=    40.00 Ry     beta=0.60
     Davidson diagonalization with overlap
     ethr =  1.46E-03,  avg # of iterations =  1.8

     total cpu time spent up to now is    70227.1 secs

     total energy              =    -701.81315332 Ry
     Harris-Foulkes estimate   =    -703.02336128 Ry
     estimated scf accuracy    <      15.82653338 Ry

     iteration # 14     ecut=    40.00 Ry     beta=0.60
     Davidson diagonalization with overlap
     ethr =  1.46E-03,  avg # of iterations =  5.9

     total cpu time spent up to now is    70343.6 secs

     total energy              =    -702.42266909 Ry
     Harris-Foulkes estimate   =    -702.51184222 Ry
     estimated scf accuracy    <       0.73221006 Ry

     iteration # 15     ecut=    40.00 Ry     beta=0.60
     Davidson diagonalization with overlap
     ethr =  9.89E-04,  avg # of iterations =  6.0

     total cpu time spent up to now is    70451.7 secs

     total energy              =    -702.36581631 Ry
     Harris-Foulkes estimate   =    -702.84708374 Ry
     estimated scf accuracy    <       5.02930038 Ry

     iteration # 16     ecut=    40.00 Ry     beta=0.60
     Davidson diagonalization with overlap
     ethr =  9.89E-04,  avg # of iterations =  4.0

     total cpu time spent up to now is    70532.9 secs

     total energy              =    -702.44436385 Ry
     Harris-Foulkes estimate   =    -702.47718151 Ry
     estimated scf accuracy    <       1.06031596 Ry

     iteration # 17     ecut=    40.00 Ry     beta=0.60
     Davidson diagonalization with overlap
     ethr =  9.89E-04,  avg # of iterations =  1.5

     total cpu time spent up to now is    70600.6 secs

     total energy              =    -702.43635385 Ry
     Harris-Foulkes estimate   =    -702.45694256 Ry
     estimated scf accuracy    <       0.57962194 Ry

     iteration # 18     ecut=    40.00 Ry     beta=0.60
     Davidson diagonalization with overlap
     ethr =  7.83E-04,  avg # of iterations =  1.2

     total cpu time spent up to now is    70667.5 secs

     total energy              =    -702.41310429 Ry
     Harris-Foulkes estimate   =    -702.44416178 Ry
     estimated scf accuracy    <       0.36094628 Ry

     iteration # 19     ecut=    40.00 Ry     beta=0.60
     Davidson diagonalization with overlap
     ethr =  4.88E-04,  avg # of iterations =  4.1

     total cpu time spent up to now is    70749.3 secs

     total energy              =    -702.43384560 Ry
     Harris-Foulkes estimate   =    -702.44407757 Ry
     estimated scf accuracy    <       0.13419356 Ry

     iteration # 20     ecut=    40.00 Ry     beta=0.60
     Davidson diagonalization with overlap
     ethr =  1.81E-04,  avg # of iterations =  3.6

     total cpu time spent up to now is    70825.5 secs

     total energy              =    -702.44398559 Ry
     Harris-Foulkes estimate   =    -702.44208360 Ry
     estimated scf accuracy    <       0.05757484 Ry

     iteration # 21     ecut=    40.00 Ry     beta=0.60
     Davidson diagonalization with overlap
     c_bands:  2 eigenvalues not converged
     ethr =  7.78E-05,  avg # of iterations =  5.7

     total cpu time spent up to now is    70940.2 secs

     total energy              =    -702.40980194 Ry
     Harris-Foulkes estimate   =    -702.48124068 Ry
     estimated scf accuracy    <       0.77075344 Ry

     iteration # 22     ecut=    40.00 Ry     beta=0.60
     Davidson diagonalization with overlap
     ethr =  7.78E-05,  avg # of iterations =  5.3

     total cpu time spent up to now is    71048.7 secs

     total energy              =    -702.43135633 Ry
     Harris-Foulkes estimate   =    -702.44354919 Ry
     estimated scf accuracy    <       0.11394060 Ry

     iteration # 23     ecut=    40.00 Ry     beta=0.60
     Davidson diagonalization with overlap
     ethr =  7.78E-05,  avg # of iterations =  4.1

     total cpu time spent up to now is    71138.6 secs

     total energy              =    -702.41924257 Ry
     Harris-Foulkes estimate   =    -702.44814063 Ry
     estimated scf accuracy    <       0.21980928 Ry

     iteration # 24     ecut=    40.00 Ry     beta=0.60
     Davidson diagonalization with overlap
     ethr =  7.78E-05,  avg # of iterations =  4.5

     total cpu time spent up to now is    71229.0 secs

     total energy              =    -702.43388140 Ry
     Harris-Foulkes estimate   =    -702.43551035 Ry
     estimated scf accuracy    <       0.01442845 Ry

     iteration # 25     ecut=    40.00 Ry     beta=0.60
     Davidson diagonalization with overlap
     c_bands:  1 eigenvalues not converged
     ethr =  1.95E-05,  avg # of iterations =  4.3

     total cpu time spent up to now is    71306.4 secs

     total energy              =    -702.43470015 Ry
     Harris-Foulkes estimate   =    -702.43477072 Ry
     estimated scf accuracy    <       0.00042202 Ry

     iteration # 26     ecut=    40.00 Ry     beta=0.60
     Davidson diagonalization with overlap
     c_bands:  1 eigenvalues not converged
     c_bands:  1 eigenvalues not converged
     c_bands:  1 eigenvalues not converged
     c_bands:  1 eigenvalues not converged
     ethr =  5.70E-07,  avg # of iterations =  7.4

     total cpu time spent up to now is    71447.4 secs

     total energy              =    -702.43495224 Ry
     Harris-Foulkes estimate   =    -702.43503685 Ry
     estimated scf accuracy    <       0.00074503 Ry

     iteration # 27     ecut=    40.00 Ry     beta=0.60
     Davidson diagonalization with overlap
     ethr =  5.70E-07,  avg # of iterations =  1.0

     total cpu time spent up to now is    71513.7 secs

     total energy              =    -702.43496627 Ry
     Harris-Foulkes estimate   =    -702.43497864 Ry
     estimated scf accuracy    <       0.00009617 Ry

     iteration # 28     ecut=    40.00 Ry     beta=0.60
     Davidson diagonalization with overlap
     ethr =  1.30E-07,  avg # of iterations =  4.2

     total cpu time spent up to now is    71609.5 secs

     total energy              =    -702.43498944 Ry
     Harris-Foulkes estimate   =    -702.43499393 Ry
     estimated scf accuracy    <       0.00007199 Ry

     iteration # 29     ecut=    40.00 Ry     beta=0.60
     Davidson diagonalization with overlap
     ethr =  9.73E-08,  avg # of iterations =  1.0

     total cpu time spent up to now is    71675.8 secs

     total energy              =    -702.43498827 Ry
     Harris-Foulkes estimate   =    -702.43499101 Ry
     estimated scf accuracy    <       0.00003567 Ry

     iteration # 30     ecut=    40.00 Ry     beta=0.60
     Davidson diagonalization with overlap
     ethr =  4.82E-08,  avg # of iterations =  1.2

     total cpu time spent up to now is    71742.4 secs

     total energy              =    -702.43498829 Ry
     Harris-Foulkes estimate   =    -702.43498950 Ry
     estimated scf accuracy    <       0.00001117 Ry

     iteration # 31     ecut=    40.00 Ry     beta=0.60
     Davidson diagonalization with overlap
     ethr =  1.51E-08,  avg # of iterations =  4.1

     total cpu time spent up to now is    71827.6 secs

     total energy              =    -702.43498961 Ry
     Harris-Foulkes estimate   =    -702.43498972 Ry
     estimated scf accuracy    <       0.00000098 Ry

     iteration # 32     ecut=    40.00 Ry     beta=0.60
     Davidson diagonalization with overlap
     ethr =  1.33E-09,  avg # of iterations =  3.8

     total cpu time spent up to now is    71911.2 secs

     total energy              =    -702.43498971 Ry
     Harris-Foulkes estimate   =    -702.43498973 Ry
     estimated scf accuracy    <       0.00000016 Ry

     iteration # 33     ecut=    40.00 Ry     beta=0.60
     Davidson diagonalization with overlap
     ethr =  2.12E-10,  avg # of iterations =  3.9

     total cpu time spent up to now is    71998.3 secs

     total energy              =    -702.43498974 Ry
     Harris-Foulkes estimate   =    -702.43498974 Ry
     estimated scf accuracy    <          9.2E-09 Ry

     iteration # 34     ecut=    40.00 Ry     beta=0.60
     Davidson diagonalization with overlap
     ethr =  1.24E-11,  avg # of iterations =  4.8

     total cpu time spent up to now is    72098.8 secs

     total energy              =    -702.43498974 Ry
     Harris-Foulkes estimate   =    -702.43498974 Ry
     estimated scf accuracy    <       0.00000002 Ry

     iteration # 35     ecut=    40.00 Ry     beta=0.60
     Davidson diagonalization with overlap
     ethr =  1.24E-11,  avg # of iterations =  1.4

     total cpu time spent up to now is    72180.7 secs

     total energy              =    -702.43498974 Ry
     Harris-Foulkes estimate   =    -702.43498974 Ry
     estimated scf accuracy    <          2.1E-09 Ry

     iteration # 36     ecut=    40.00 Ry     beta=0.60
     Davidson diagonalization with overlap
     ethr =  2.90E-12,  avg # of iterations =  4.2

     total cpu time spent up to now is    72278.0 secs

     total energy              =    -702.43498974 Ry
     Harris-Foulkes estimate   =    -702.43498974 Ry
     estimated scf accuracy    <          1.5E-09 Ry

     iteration # 37     ecut=    40.00 Ry     beta=0.60
     Davidson diagonalization with overlap
     ethr =  1.99E-12,  avg # of iterations =  1.0

     total cpu time spent up to now is    72344.2 secs

     total energy              =    -702.43498974 Ry
     Harris-Foulkes estimate   =    -702.43498974 Ry
     estimated scf accuracy    <          1.8E-10 Ry

     iteration # 38     ecut=    40.00 Ry     beta=0.60
     Davidson diagonalization with overlap
     ethr =  2.50E-13,  avg # of iterations =  4.0

     total cpu time spent up to now is    72439.4 secs

     total energy              =    -702.43498974 Ry
     Harris-Foulkes estimate   =    -702.43498974 Ry
     estimated scf accuracy    <          5.1E-11 Ry

     iteration # 39     ecut=    40.00 Ry     beta=0.60
     Davidson diagonalization with overlap
     ethr =  1.00E-13,  avg # of iterations =  1.2

     total cpu time spent up to now is    72507.6 secs

     End of self-consistent calculation

     Number of k-points >= 100: set verbosity='high' to print the bands.

     the Fermi energy is    14.9819 ev

!    total energy              =    -702.43498974 Ry
     Harris-Foulkes estimate   =    -702.43498974 Ry
     estimated scf accuracy    <          5.9E-13 Ry

     The total energy is the sum of the following terms:

     one-electron contribution =    -198.55877397 Ry
     hartree contribution      =     127.80511738 Ry
     xc contribution           =     -94.98095545 Ry
     ewald contribution        =    -536.70042253 Ry
     smearing contrib. (-TS)   =       0.00004482 Ry

     convergence has been achieved in  39 iterations

     Forces acting on atoms (Ry/au):

     atom    1 type  2   force =    -0.00004613   -0.00002663    0.00000000
     atom    2 type  2   force =     0.00004972    0.00002871    0.00000000
     atom    3 type  1   force =     0.00000539    0.00000311    0.00000000
     atom    4 type  2   force =     0.00009796    0.00005656    0.00000000
     atom    5 type  2   force =    -0.00009818   -0.00005668    0.00000000
     atom    6 type  1   force =    -0.00000877   -0.00000506    0.00000000

     Total force =     0.000179     Total SCF correction =     0.000003


     entering subroutine stress ...

          total   stress  (Ry/bohr**3)                   (kbar)     P=   -4.66
  -0.00002308   0.00001244   0.00000000         -3.40      1.83      0.00
   0.00001244  -0.00003744   0.00000000          1.83     -5.51      0.00
   0.00000000   0.00000000  -0.00003451          0.00      0.00     -5.08


     init_run     :     78.10s CPU     80.28s WALL (       2 calls)
     electrons    :  69866.77s CPU  71334.66s WALL (      32 calls)
     update_pot   :     86.87s CPU     87.80s WALL (      30 calls)
     forces       :    402.00s CPU    410.48s WALL (      32 calls)
     stress       :    596.11s CPU    609.21s WALL (      32 calls)

     Called by init_run:
     wfcinit      :     73.80s CPU     75.61s WALL (       2 calls)
     potinit      :      1.43s CPU      1.47s WALL (       2 calls)

     Called by electrons:
     c_bands      :  59212.10s CPU  60351.24s WALL (     698 calls)
     sum_band     :  10312.95s CPU  10602.14s WALL (     698 calls)
     v_of_rho     :    111.08s CPU    114.42s WALL (     723 calls)
     newd         :    219.58s CPU    254.83s WALL (     723 calls)
     mix_rho      :     14.41s CPU     15.46s WALL (     698 calls)

     Called by c_bands:
     init_us_2    :    507.37s CPU    520.08s WALL (  362576 calls)
     cegterg      :  58093.66s CPU  59209.44s WALL (  173105 calls)

     Called by sum_band:
     sum_band:bec :     28.78s CPU     29.17s WALL (  173104 calls)
     addusdens    :    277.48s CPU    321.58s WALL (     698 calls)

     Called by *egterg:
     h_psi        :  35598.39s CPU  36464.09s WALL (  787912 calls)
     s_psi        :   4584.03s CPU   4633.08s WALL (  787912 calls)
     g_psi        :     78.75s CPU     79.50s WALL (  614311 calls)
     cdiaghg      :   5192.47s CPU   5230.30s WALL (  778239 calls)

     Called by h_psi:
     h_psi:pot    :  35358.29s CPU  36219.18s WALL (  787912 calls)
     h_psi:calbec :   5054.56s CPU   5142.56s WALL (  787912 calls)
     vloc_psi     :  25892.82s CPU  26616.94s WALL (  787912 calls)
     add_vuspsi   :   4404.47s CPU   4455.80s WALL (  787912 calls)

     General routines
     calbec       :   7275.97s CPU   7399.91s WALL ( 1000696 calls)
     fft          :     71.36s CPU     74.34s WALL (   12298 calls)
     ffts         :      0.75s CPU      0.83s WALL (    1421 calls)
     fftw         :  16241.21s CPU  16641.56s WALL (46641980 calls)
     interpolate  :     12.44s CPU     12.97s WALL (    1421 calls)

     Parallel routines
     fft_scatter  :   4078.35s CPU   4213.80s WALL (46655699 calls)

     PWSCF        :    19h44m CPU       20h 8m WALL


   This run was terminated on:  12:31:55  11May2018            

=------------------------------------------------------------------------------=
   JOB DONE.
=------------------------------------------------------------------------------=
