<UPF version="2.0.1">
<PP_INFO>
Generated by new atomic code, or converted to UPF format
Author:
Generation date:
Pseudopotential type: US
Element: Nb
Functional:  SLA  PW   PBE  PBE
Suggested minimum cutoff for wavefunctions:   0. Ry
Suggested minimum cutoff for charge density:   0. Ry
The Pseudo was generated with a Scalar-Relativistic Calculation
L component and cutoff radius for Local Potential:  0   0.0000
Valence configuration:
nl pn  l   occ       Rcut    Rcut US       E pseu
4S  0  0  2.00     10.000      1.800     0.000000
4P  0  1  6.00     10.000      2.000     0.000000
4D  0  2  4.00     10.000      2.200     0.000000
5S  0  0  1.00     10.000      1.800     0.000000
5P  0  1  0.00     10.000      2.000     0.000000
Generation configuration: not available.
</PP_INFO>
<!--
END OF HUMAN READABLE SECTION
-->
<PP_HEADER generated="Generated by new atomic code, or converted to UPF format" author="" date="" comment="" element="Nb" pseudo_type="US" relativistic="scalar" is_ultrasoft="true" is_paw="false" is_coulomb="false" has_so="false" has_wfc="false" has_gipaw="false" paw_as_gipaw="false" core_correction="true" functional=" SLA  PW   PBE  PBE" z_valence="1.300000000000e1" total_psenergy="-1.171850951444e2" wfc_cutoff="0.000000000000e0" rho_cutoff="0.000000000000e0" l_max="2" l_max_rho="0" l_local="0" mesh_size="887" number_of_wfc="5" number_of_proj="6"/>
<PP_MESH mesh="887" rmax="2.010144478000e2" zmesh="4.100000000000e1">
<PP_R>
0.000000000000000e0 1.033434367800000e-6 2.084533853850000e-6 3.153600418680000e-6
4.240941184440000e-6 5.346868523070000e-6 6.471700146120001e-6 7.615759195920001e-6
8.779374338530001e-6 9.962879858030000e-6 1.116661575270000e-5 1.239092783250000e-5
1.363616781860000e-5 1.490269344450000e-5 1.619086855830000e-5 1.750106322790000e-5
1.883365384690000e-5 2.018902324270000e-5 2.156756078680000e-5 2.296966250630000e-5
2.439573119780000e-5 2.584617654340000e-5 2.732141522800000e-5 2.882187105900000e-5
3.034797508830000e-5 3.190016573620000e-5 3.347888891699999e-5 3.508459816720000e-5
3.671775477620000e-5 3.837882791810000e-5 4.006829478709999e-5 4.178664073450000e-5
4.353435940760001e-5 4.531195289240000e-5 4.711993185690000e-5 4.895881569860000e-5
5.082913269309999e-5 5.273142014650000e-5 5.466622454900001e-5 5.663410173259998e-5
5.863561703020000e-5 6.067134543850000e-5 6.274187178280000e-5 6.484779088530001e-5
6.698970773580002e-5 6.916823766559999e-5 7.138400652419998e-5 7.363765085899999e-5
7.592981809859999e-5 7.826116673810001e-5 8.063236652890000e-5 8.304409867090000e-5
8.549705600799999e-5 8.799194322750001e-5 9.052947706199999e-5 9.311038649600000e-5
9.573541297480002e-5 9.840531061779998e-5 1.011208464350000e-4 1.038828005470000e-4
1.066919664100000e-4 1.095491510430000e-4 1.124551752590000e-4 1.154108739040000e-4
1.184170960920000e-4 1.214747054530000e-4 1.245845803790000e-4 1.277476142760000e-4
1.309647158240000e-4 1.342368092330000e-4 1.375648345120000e-4 1.409497477380000e-4
1.443925213320000e-4 1.478941443360000e-4 1.514556226980000e-4 1.550779795620000e-4
1.587622555620000e-4 1.625095091180000e-4 1.663208167430000e-4 1.701972733540000e-4
1.741399925800000e-4 1.781501070890000e-4 1.822287689090000e-4 1.863771497600000e-4
1.905964413920000e-4 1.948878559270000e-4 1.992526262040000e-4 2.036920061370000e-4
2.082072710739999e-4 2.127997181640001e-4 2.174706667280000e-4 2.222214586380000e-4
2.270534587060000e-4 2.319680550720000e-4 2.369666596030000e-4 2.420507083030000e-4
2.472216617200000e-4 2.524810053690000e-4 2.578302501580000e-4 2.632709328200000e-4
2.688046163600000e-4 2.744328904970000e-4 2.801573721260000e-4 2.859797057789999e-4
2.919015641000000e-4 2.979246483239999e-4 3.040506887670000e-4 3.102814453220000e-4
3.166187079650000e-4 3.230642972680000e-4 3.296200649249999e-4 3.362878942800001e-4
3.430697008730000e-4 3.499674329840000e-4 3.569830722000000e-4 3.641186339760000e-4
3.713761682230000e-4 3.787577598890000e-4 3.862655295630000e-4 3.939016340810000e-4
4.016682671490001e-4 4.095676599700000e-4 4.176020818870001e-4 4.257738410330000e-4
4.340852849979999e-4 4.425388014970000e-4 4.511368190640000e-4 4.598818077410000e-4
4.687762797940001e-4 4.778227904350000e-4 4.870239385490000e-4 4.963823674490000e-4
5.059007656310000e-4 5.155818675450000e-4 5.254284543849998e-4 5.354433548859999e-4
5.456294461330000e-4 5.559896543949999e-4 5.665269559580000e-4 5.772443779850001e-4
5.881449993840000e-4 5.992319516940000e-4 6.105084199789999e-4 6.219776437530000e-4
6.336429179000000e-4 6.455075936290000e-4 6.575750794309999e-4 6.698488420610000e-4
6.823324075330000e-4 6.950293621350001e-4 7.079433534570001e-4 7.210780914360003e-4
7.344373494309999e-4 7.480249652960001e-4 7.618448424920000e-4 7.759009512010000e-4
7.901973294719999e-4 8.047380843770000e-4 8.195273931940001e-4 8.345695046050000e-4
8.498687399170000e-4 8.654294943059998e-4 8.812562380739999e-4 8.973535179380001e-4
9.137259583360001e-4 9.303782627540002e-4 9.473152150750000e-4 9.645416809580000e-4
9.820626092340000e-4 9.998830333270002e-4 1.018008072700000e-3 1.036442934320000e-3
1.055192914180000e-3 1.074263398770000e-3 1.093659866690000e-3 1.113387890150000e-3
1.133453136640000e-3 1.153861370520000e-3 1.174618454670000e-3 1.195730352210000e-3
1.217203128170000e-3 1.239042951270000e-3 1.261256095660000e-3 1.283848942760000e-3
1.306827983040000e-3 1.330199817960000e-3 1.353971161770000e-3 1.378148843520000e-3
1.402739809010000e-3 1.427751122730000e-3 1.453189969950000e-3 1.479063658760000e-3
1.505379622180000e-3 1.532145420260000e-3 1.559368742300000e-3 1.587057409040000e-3
1.615219374900000e-3 1.643862730260000e-3 1.672995703800000e-3 1.702626664870000e-3
1.732764125870000e-3 1.763416744700000e-3 1.794593327270000e-3 1.826302830010000e-3
1.858554362440000e-3 1.891357189810000e-3 1.924720735730000e-3 1.958654584910000e-3
1.993168485890000e-3 2.028272353829999e-3 2.063976273400000e-3 2.100290501650000e-3
2.137225470950000e-3 2.174791792000000e-3 2.213000256880000e-3 2.251861842150000e-3
2.291387711980000e-3 2.331589221390000e-3 2.372477919500000e-3 2.414065552840000e-3
2.456364068730000e-3 2.499385618720000e-3 2.543142562060000e-3 2.587647469280000e-3
2.632913125780000e-3 2.678952535510000e-3 2.725778924690000e-3 2.773405745640000e-3
2.821846680620000e-3 2.871115645790000e-3 2.921226795160000e-3 2.972194524680000e-3
3.024033476410000e-3 3.076758542680000e-3 3.130384870370000e-3 3.184927865290000e-3
3.240403196580000e-3 3.296826801250000e-3 3.354214888690000e-3 3.412583945390000e-3
3.471950739650000e-3 3.532332326410001e-3 3.593746052130000e-3 3.656209559780000e-3
3.719740793920000e-3 3.784358005840000e-3 3.850079758809999e-3 3.916924933430001e-3
3.984912733020000e-3 4.054062689159999e-3 4.124394667300000e-3 4.195928872440000e-3
4.268685854990000e-3 4.342686516610000e-3 4.417952116270000e-3 4.494504276310000e-3
4.572364988690000e-3 4.651556621289999e-3 4.732101924319999e-3 4.814024036899999e-3
4.897346493660000e-3 4.982093231529999e-3 5.068288596620000e-3 5.155957351170000e-3
5.245124680730000e-3 5.335816201350000e-3 5.428057966940001e-3 5.521876476790000e-3
5.617298683120000e-3 5.714351998900000e-3 5.813064305659999e-3 5.913463961540001e-3
6.015579809420000e-3 6.119441185200001e-3 6.225077926260001e-3 6.332520379969999e-3
6.441799412479999e-3 6.552946417549999e-3 6.665993325540000e-3 6.780972612659999e-3
6.897917310220000e-3 7.016861014180000e-3 7.137837894760000e-3 7.260882706269999e-3
7.386030797120000e-3 7.513318119919999e-3 7.642781241860000e-3 7.774457355190000e-3
7.908384287900000e-3 8.044600514619999e-3 8.183145167639999e-3 8.324058048139999e-3
8.467379637670000e-3 8.613151109750000e-3 8.761414341709999e-3 8.912211926700000e-3
9.065587185949999e-3 9.221584181209998e-3 9.380247727390001e-3 9.541623405450000e-3
9.705757575520002e-3 9.872697390150000e-3 1.004249080790000e-2 1.021518660720000e-2
1.039083440020000e-2 1.056948464700000e-2 1.075118867050000e-2 1.093599867070000e-2
1.112396773990000e-2 1.131514987810000e-2 1.150960000800000e-2 1.170737399160000e-2
1.190852864530000e-2 1.211312175720000e-2 1.232121210280000e-2 1.253285946240000e-2
1.274812463820000e-2 1.296706947180000e-2 1.318975686180000e-2 1.341625078190000e-2
1.364661629950000e-2 1.388091959410000e-2 1.411922797650000e-2 1.436160990820000e-2
1.460813502070000e-2 1.485887413590000e-2 1.511389928640000e-2 1.537328373590000e-2
1.563710200060000e-2 1.590542987030000e-2 1.617834443040000e-2 1.645592408410000e-2
1.673824857460000e-2 1.702539900820000e-2 1.731745787780000e-2 1.761450908610000e-2
1.791663797020000e-2 1.822393132600000e-2 1.853647743280000e-2 1.885436607910000e-2
1.917768858820000e-2 1.950653784440000e-2 1.984100831960000e-2 2.018119610080000e-2
2.052719891740000e-2 2.087911616920000e-2 2.123704895530000e-2 2.160110010280000e-2
2.197137419670000e-2 2.234797760940000e-2 2.273101853180000e-2 2.312060700430000e-2
2.351685494800000e-2 2.391987619720000e-2 2.432978653230000e-2 2.474670371240000e-2
2.517074750990000e-2 2.560203974430000e-2 2.604070431760000e-2 2.648686724950000e-2
2.694065671410000e-2 2.740220307620000e-2 2.787163892930000e-2 2.834909913310000e-2
2.883472085280000e-2 2.932864359800000e-2 2.983100926320000e-2 3.034196216840000e-2
3.086164910040000e-2 3.139021935520000e-2 3.192782478080000e-2 3.247461982090000e-2
3.303076155910000e-2 3.359640976410000e-2 3.417172693580000e-2 3.475687835160000e-2
3.535203211420001e-2 3.595735919980000e-2 3.657303350710000e-2 3.719923190749999e-2
3.783613429550000e-2 3.848392364110000e-2 3.914278604140000e-2 3.981291077490000e-2
4.049449035560000e-2 4.118772058789999e-2 4.189280062360000e-2 4.260993301840000e-2
4.333932379080000e-2 4.408118248040000e-2 4.483572220900000e-2 4.560315974110000e-2
4.638371554690001e-2 4.717761386480000e-2 4.798508276650000e-2 4.880635422210000e-2
4.964166416710000e-2 5.049125256980000e-2 5.135536350060001e-2 5.223424520170000e-2
5.312815015900000e-2 5.403733517400000e-2 5.496206143790000e-2 5.590259460680000e-2
5.685920487750000e-2 5.783216706580000e-2 5.882176068480001e-2 5.982827002560000e-2
6.085198423890001e-2 6.189319741800000e-2 6.295220868320000e-2 6.402932226810000e-2
6.512484760640000e-2 6.623909942149999e-2 6.737239781630000e-2 6.852506836550000e-2
6.969744220910000e-2 7.088985614730001e-2 7.210265273770000e-2 7.333618039320000e-2
7.459079348240000e-2 7.586685243140000e-2 7.716472382730000e-2 7.848478052330000e-2
7.982740174630000e-2 8.119297320530000e-2 8.258188720260000e-2 8.399454274630001e-2
8.543134566500001e-2 8.689270872440000e-2 8.837905174580001e-2 8.989080172670000e-2
9.142839296380000e-2 9.299226717720000e-2 9.458287363770001e-2 9.620066929569999e-2
9.784611891270000e-2 9.951969519460000e-2 1.012218789270000e-1 1.029531591150000e-1
1.047140331220000e-1 1.065050068120000e-1 1.083265946980000e-1 1.101793200870000e-1
1.120637152300000e-1 1.139803214790000e-1 1.159296894360000e-1 1.179123791190000e-1
1.199289601140000e-1 1.219800117470000e-1 1.240661232450000e-1 1.261878939080000e-1
1.283459332790000e-1 1.305408613220000e-1 1.327733085960000e-1 1.350439164400000e-1
1.373533371570000e-1 1.397022341980000e-1 1.420912823560000e-1 1.445211679570000e-1
1.469925890620000e-1 1.495062556620000e-1 1.520628898840000e-1 1.546632262000000e-1
1.573080116360000e-1 1.599980059880000e-1 1.627339820390000e-1 1.655167257830000e-1
1.683470366470000e-1 1.712257277260000e-1 1.741536260100000e-1 1.771315726300000e-1
1.801604230920000e-1 1.832410475240000e-1 1.863743309320000e-1 1.895611734480000e-1
1.928024905880000e-1 1.960992135210000e-1 1.994522893320000e-1 2.028626812940000e-1
2.063313691470000e-1 2.098593493780000e-1 2.134476355080000e-1 2.170972583810000e-1
2.208092664630000e-1 2.245847261430000e-1 2.284247220380000e-1 2.323303573030000e-1
2.363027539520000e-1 2.403430531780000e-1 2.444524156800000e-1 2.486320219990000e-1
2.528830728550000e-1 2.572067894930000e-1 2.616044140330000e-1 2.660772098260000e-1
2.706264618220000e-1 2.752534769310000e-1 2.799595844060000e-1 2.847461362200000e-1
2.896145074580000e-1 2.945660967070000e-1 2.996023264640000e-1 3.047246435410000e-1
3.099345194780000e-1 3.152334509740000e-1 3.206229603090000e-1 3.261045957840000e-1
3.316799321680000e-1 3.373505711450000e-1 3.431181417820000e-1 3.489843009900000e-1
3.549507340030000e-1 3.610191548610000e-1 3.671913069040000e-1 3.734689632730000e-1
3.798539274160000e-1 3.863480336110000e-1 3.929531474870000e-1 3.996711665670000e-1
4.065040208070000e-1 4.134536731550000e-1 4.205221201100001e-1 4.277113923010000e-1
4.350235550670000e-1 4.424607090509999e-1 4.500249908020000e-1 4.577185733930000e-1
4.655436670420000e-1 4.735025197450000e-1 4.815974179279999e-1 4.898306870980000e-1
4.982046925140001e-1 5.067218398650000e-1 5.153845759640000e-1 5.241953894469999e-1
5.331568114900000e-1 5.422714165360000e-1 5.515418230350000e-1 5.609706941950000e-1
5.705607387480000e-1 5.803147117289999e-1 5.902354152650000e-1 6.003256993830000e-1
6.105884628250000e-1 6.210266538860000e-1 6.316432712559999e-1 6.424413648820000e-1
6.534240368490000e-1 6.645944422660000e-1 6.759557901740000e-1 6.875113444680000e-1
6.992644248360000e-1 7.112184077100000e-1 7.233767272380000e-1 7.357428762710000e-1
7.483204073620000e-1 7.611129337940000e-1 7.741241306120000e-1 7.873577356809999e-1
8.008175507600001e-1 8.145074425930000e-1 8.284313440210001e-1 8.425932551110000e-1
8.569972443070000e-1 8.716474495960000e-1 8.865480796980000e-1 9.017034152759999e-1
9.171178101650000e-1 9.327956926220001e-1 9.487415666000000e-1 9.649600130390001e-1
9.814556911850000e-1 9.982333399270001e-1 1.015297779160000e0 1.032653911160000e0
1.050306722020000e0 1.068261283050000e0 1.086522752240000e0 1.105096375760000e0
1.123987489450000e0 1.143201520360000e0 1.162743988320000e0 1.182620507490000e0
1.202836788020000e0 1.223398637650000e0 1.244311963400000e0 1.265582773270000e0
1.287217177950000e0 1.309221392590000e0 1.331601738560000e0 1.354364645310000e0
1.377516652190000e0 1.401064410310000e0 1.425014684500000e0 1.449374355190000e0
1.474150420460000e0 1.499349997990000e0 1.524980327130000e0 1.551048770970000e0
1.577562818480000e0 1.604530086630000e0 1.631958322590000e0 1.659855405970000e0
1.688229351050000e0 1.717088309120000e0 1.746440570810000e0 1.776294568450000e0
1.806658878510000e0 1.837542224070000e0 1.868953477330000e0 1.900901662120000e0
1.933395956550000e0 1.966445695580000e0 2.000060373790000e0 2.034249648000000e0
2.069023340140000e0 2.104391440020000e0 2.140364108200000e0 2.176951678940000e0
2.214164663150000e0 2.252013751380000e0 2.290509816950000e0 2.329663919040000e0
2.369487305860000e0 2.409991417900000e0 2.451187891210000e0 2.493088560730000e0
2.535705463720000e0 2.579050843190000e0 2.623137151430000e0 2.667977053590000e0
2.713583431290000e0 2.759969386360000e0 2.807148244610000e0 2.855133559590000e0
2.903939116560000e0 2.953578936420000e0 3.004067279710000e0 3.055418650780000e0
3.107647801860000e0 3.160769737400000e0 3.214799718280000e0 3.269753266280000e0
3.325646168490000e0 3.382494481860000e0 3.440314537800000e0 3.499122946910000e0
3.558936603700000e0 3.619772691470000e0 3.681648687260000e0 3.744582366850000e0
3.808591809850000e0 3.873695404960000e0 3.939911855160000e0 4.007260183160000e0
4.075759736840000e0 4.145430194790000e0 4.216291571980000e0 4.288364225530000e0
4.361668860500000e0 4.436226535900000e0 4.512058670710000e0 4.589187050030000e0
4.667633831350000e0 4.747421550920000e0 4.828573130200000e0 4.911111882470000e0
4.995061519520000e0 5.080446158460000e0 5.167290328630000e0 5.255618978690000e0
5.345457483760000e0 5.436831652680000e0 5.529767735500000e0 5.624292430960000e0
5.720432894160000e0 5.818216744410000e0 5.917672073100000e0 6.018827451840000e0
6.121711940610000e0 6.226355096130000e0 6.332786980340000e0 6.441038169080000e0
6.551139760820000e0 6.663123385600000e0 6.777021214170000e0 6.892865967160000e0
7.010690924520000e0 7.130529935100000e0 7.252417426310000e0 7.376388414070000e0
7.502478512860000e0 7.630723945910000e0 7.761161555660000e0 7.893828814300000e0
8.028763834579999e0 8.166005380720000e0 8.305592879550000e0 8.447566431860000e0
8.591966823910001e0 8.738835539129999e0 8.888214770070000e0 9.040147430490000e0
9.194677167689999e0 9.351848375090000e0 9.511706204930000e0 9.674296581269999e0
9.839666213179999e0 1.000786260820000e1 1.017893408580000e1 1.035292979150000e1
1.052989971110000e1 1.070989468440000e1 1.089296642060000e1 1.107916751260000e1
1.126855145240000e1 1.146117264640000e1 1.165708643090000e1 1.185634908800000e1
1.205901786230000e1 1.226515097630000e1 1.247480764830000e1 1.268804810850000e1
1.290493361670000e1 1.312552648000000e1 1.334989007050000e1 1.357808884340000e1
1.381018835580000e1 1.404625528550000e1 1.428635744990000e1 1.453056382570000e1
1.477894456870000e1 1.503157103380000e1 1.528851579580000e1 1.554985266990000e1
1.581565673320000e1 1.608600434590000e1 1.636097317380000e1 1.664064221000000e1
1.692509179810000e1 1.721440365500000e1 1.750866089420000e1 1.780794805030000e1
1.811235110270000e1 1.842195750040000e1 1.873685618730000e1 1.905713762790000e1
1.938289383270000e1 1.971421838510000e1 2.005120646840000e1 2.039395489270000e1
2.074256212290000e1 2.109712830730000e1 2.145775530570000e1 2.182454671930000e1
2.219760792030000e1 2.257704608190000e1 2.296297020920000e1 2.335549117100000e1
2.375472173070000e1 2.416077657970000e1 2.457377236970000e1 2.499382774630000e1
2.542106338330000e1 2.585560201730000e1 2.629756848280000e1 2.674708974820000e1
2.720429495230000e1 2.766931544120000e1 2.814228480650000e1 2.862333892290000e1
2.911261598810000e1 2.961025656190000e1 3.011640360680000e1 3.063120252900000e1
3.115480122040000e1 3.168735010060000e1 3.222900216070000e1 3.277991300690001e1
3.334024090500000e1 3.391014682670000e1 3.448979449460000e1 3.507935043050000e1
3.567898400240000e1 3.628886747320000e1 3.690917605090000e1 3.754008793800000e1
3.818178438330000e1 3.883444973370000e1 3.949827148740000e1 4.017344034760000e1
4.086015027720000e1 4.155859855470000e1 4.226898583060001e1 4.299151618570000e1
4.372639718880000e1 4.447383995700000e1 4.523405921620000e1 4.600727336270000e1
4.679370452590000e1 4.759357863220000e1 4.840712547010000e1 4.923457875580000e1
5.007617620070000e1 5.093215957930000e1 5.180277479910000e1 5.268827197110000e1
5.358890548140000e1 5.450493406460001e1 5.543662087810000e1 5.638423357730001e1
5.734804439310000e1 5.832833020980001e1 5.932537264430001e1 6.033945812780001e1
6.137087798740001e1 6.241992853000000e1 6.348691112750000e1 6.457213230350000e1
6.567590382090001e1 6.679854277200000e1 6.794037166920001e1 6.910171853780000e1
7.028291701030000e1 7.148430642220001e1 7.270623190950001e1 7.394904450759999e1
7.521310125260000e1 7.649876528360000e1 7.780640594680000e1 7.913639890220001e1
8.048912623100000e1 8.186497654570001e1 8.326434510129999e1 8.468763390940001e1
8.613525185330001e1 8.760761480559999e1 8.910514574780001e1 9.062827489140000e1
9.217743980210001e1 9.375308552490001e1 9.535566471230000e1 9.698563775430001e1
9.864347291070001e1 1.003296464450000e2 1.020446427630000e2 1.037889545500000e2
1.055630829120000e2 1.073675375230000e2 1.092028367660000e2 1.110695078890000e2
1.129680871500000e2 1.148991199740000e2 1.168631611080000e2 1.188607747850000e2
1.208925348800000e2 1.229590250780000e2 1.250608390410000e2 1.271985805820000e2
1.293728638300000e2 1.315843134160000e2 1.338335646470000e2 1.361212636880000e2
1.384480677510000e2 1.408146452830000e2 1.432216761550000e2 1.456698518600000e2
1.481598757120000e2 1.506924630470000e2 1.532683414280000e2 1.558882508540000e2
1.585529439760000e2 1.612631863080000e2 1.640197564510000e2 1.668234463120000e2
1.696750613400000e2 1.725754207460000e2 1.755253577480000e2 1.785257198070000e2
1.815773688670000e2 1.846811816100000e2 1.878380496990000e2 1.910488800430000e2
1.943145950500000e2 1.976361328980000e2 2.010144478000000e2
</PP_R>
<PP_RAB>
1.024701189200000e-6 1.042217025940000e-6 1.060032271470000e-6 1.078152043750000e-6
1.096581548250000e-6 1.115326079420000e-6 1.134391022180000e-6 1.153781853530000e-6
1.173504144090000e-6 1.193563559670000e-6 1.213965862970000e-6 1.234716915170000e-6
1.255822677650000e-6 1.277289213680000e-6 1.299122690190000e-6 1.321329379500000e-6
1.343915661180000e-6 1.366888023820000e-6 1.390253066940000e-6 1.414017502860000e-6
1.438188158650000e-6 1.462771978070000e-6 1.487776023570000e-6 1.513207478330000e-6
1.539073648320000e-6 1.565381964390000e-6 1.592139984400000e-6 1.619355395420000e-6
1.647036015910000e-6 1.675189797979999e-6 1.703824829660000e-6 1.732949337240000e-6
1.762571687629999e-6 1.792700390760000e-6 1.823344102020000e-6 1.854511624770000e-6
1.886211912810000e-6 1.918454073039999e-6 1.951247367990000e-6 1.984601218560000e-6
2.018525206660000e-6 2.053029077980000e-6 2.088122744840000e-6 2.123816288950000e-6
2.160119964380000e-6 2.197044200480000e-6 2.234599604860000e-6 2.272796966470000e-6
2.311647258660000e-6 2.351161642380001e-6 2.391351469350000e-6 2.432228285310000e-6
2.473803833400000e-6 2.516090057460000e-6 2.559099105500000e-6 2.602843333200000e-6
2.647335307410001e-6 2.692587809840000e-6 2.738613840630000e-6 2.785426622190000e-6
2.833039602920000e-6 2.881466461100000e-6 2.930721108840000e-6 2.980817696040000e-6
3.031770614490000e-6 3.083594501960000e-6 3.136304246470000e-6 3.189914990490000e-6
3.244442135370000e-6 3.299901345680000e-6 3.356308553800000e-6 3.413679964420001e-6
3.472032059230000e-6 3.531381601670000e-6 3.591745641709999e-6 3.653141520760000e-6
3.715586876690000e-6 3.779099648819999e-6 3.843698083150000e-6 3.909400737569999e-6
3.976226487160000e-6 4.044194529690000e-6 4.113324391040000e-6 4.183635930890000e-6
4.255149348390001e-6 4.327885187960002e-6 4.401864345190000e-6 4.477108072869999e-6
4.553637987060000e-6 4.631476073330000e-6 4.710644693050000e-6 4.791166589840000e-6
4.873064896079999e-6 4.956363139560000e-6 5.041085250270000e-6 5.127255567210000e-6
5.214898845470000e-6 5.304040263249999e-6 5.394705429160000e-6 5.486920389540000e-6
5.580711635980000e-6 5.676106112879999e-6 5.773131225229999e-6 5.871814846470000e-6
5.972185326480000e-6 6.074271499780002e-6 6.178102693730001e-6 6.283708737030000e-6
6.391119968260002e-6 6.500367244590000e-6 6.611481950629999e-6 6.724496007510000e-6
6.839441881960000e-6 6.956352595710000e-6 7.075261734950001e-6 7.196203459980000e-6
7.319212515009999e-6 7.444324238160000e-6 7.571574571610000e-6 7.701000071920000e-6
7.832637920530000e-6 7.966525934449999e-6 8.102702577110000e-6 8.241206969420000e-6
8.382078901019998e-6 8.525358841690000e-6 8.671087952980001e-6 8.819308100050000e-6
8.970061863680002e-6 9.123392552499999e-6 9.279344215450001e-6 9.437961654439999e-6
9.599290437170003e-6 9.763376910290001e-6 9.930268212680000e-6 1.010001228900000e-5
1.027265790330000e-5 1.044825465350000e-5 1.062685298510000e-5 1.080850420590000e-5
1.099326050080000e-5 1.118117494670000e-5 1.137230152780000e-5 1.156669515110000e-5
1.176441166210000e-5 1.196550786090000e-5 1.217004151850000e-5 1.237807139360000e-5
1.258965724910000e-5 1.280485986950000e-5 1.302374107830000e-5 1.324636375590000e-5
1.347279185750000e-5 1.370309043150000e-5 1.393732563820000e-5 1.417556476890000e-5
1.441787626500000e-5 1.466432973800000e-5 1.491499598910000e-5 1.516994703000000e-5
1.542925610310000e-5 1.569299770290000e-5 1.596124759720000e-5 1.623408284920000e-5
1.651158183900000e-5 1.679382428670000e-5 1.708089127520000e-5 1.737286527320000e-5
1.766983015930000e-5 1.797187124560000e-5 1.827907530270000e-5 1.859153058450000e-5
1.890932685330000e-5 1.923255540570000e-5 1.956130909920000e-5 1.989568237820000e-5
2.023577130180000e-5 2.058167357080000e-5 2.093348855650000e-5 2.129131732830000e-5
2.165526268360000e-5 2.202542917680000e-5 2.240192314950000e-5 2.278485276140000e-5
2.317432802050000e-5 2.357046081560000e-5 2.397336494800000e-5 2.438315616420000e-5
2.479995218940001e-5 2.522387276090000e-5 2.565503966290000e-5 2.609357676150000e-5
2.653961003970000e-5 2.699326763420000e-5 2.745467987230000e-5 2.792397930860000e-5
2.840130076379999e-5 2.888678136310000e-5 2.938056057570000e-5 2.988278025480000e-5
3.039358467850000e-5 3.091312059089999e-5 3.144153724460000e-5 3.197898644350001e-5
3.252562258650000e-5 3.308160271140000e-5 3.364708654060000e-5 3.422223652670000e-5
3.480721789910000e-5 3.540219871170000e-5 3.600734989090000e-5 3.662284528490000e-5
3.724886171370000e-5 3.788557901970000e-5 3.853318011939999e-5 3.919185105610000e-5
3.986178105320000e-5 4.054316256870000e-5 4.123619135020000e-5 4.194106649160000e-5
4.265799048969999e-5 4.338716930310000e-5 4.412881241060001e-5 4.488313287200000e-5
4.565034738890001e-5 4.643067636730000e-5 4.722434398050001e-5 4.803157823390000e-5
4.885261103029999e-5 4.968767823650001e-5 5.053701975110000e-5 5.140087957360000e-5
5.227950587420000e-5 5.317315106510000e-5 5.408207187340002e-5 5.500652941440000e-5
5.594678926690001e-5 5.690312154930000e-5 5.787580099740000e-5 5.886510704320001e-5
5.987132389519999e-5 6.089474061990000e-5 6.193565122529999e-5 6.299435474479999e-5
6.407115532340000e-5 6.516636230500000e-5 6.628029032159999e-5 6.741325938300000e-5
6.856559496929999e-5 6.973762812420001e-5 7.092969555019999e-5 7.214213970520000e-5
7.337530890089999e-5 7.462955740299999e-5 7.590524553279999e-5 7.720273977070001e-5
7.852241286189999e-5 7.986464392290003e-5 8.122981855049998e-5 8.261832893320001e-5
8.403057396309999e-5 8.546695935079999e-5 8.692789774200001e-5 8.841380883619999e-5
8.992511950670002e-5 9.146226392400001e-5 9.302568367979999e-5 9.461582791440000e-5
9.623315344540000e-5 9.787812489929999e-5 9.955121484439999e-5 1.012529039270000e-4
1.029836810100000e-4 1.047440433110000e-4 1.065344965490000e-4 1.083555550870000e-4
1.102077420790000e-4 1.120915896220000e-4 1.140076389100000e-4 1.159564403870000e-4
1.179385539050000e-4 1.199545488870000e-4 1.220050044900000e-4 1.240905097700000e-4
1.262116638520000e-4 1.283690761030000e-4 1.305633663050000e-4 1.327951648360000e-4
1.350651128490000e-4 1.373738624540000e-4 1.397220769120000e-4 1.421104308190000e-4
1.445396103020000e-4 1.470103132190000e-4 1.495232493540000e-4 1.520791406250000e-4
1.546787212900000e-4 1.573227381590000e-4 1.600119508060000e-4 1.627471317900000e-4
1.655290668760000e-4 1.683585552600000e-4 1.712364097980000e-4 1.741634572440000e-4
1.771405384810000e-4 1.801685087660000e-4 1.832482379780000e-4 1.863806108620000e-4
1.895665272900000e-4 1.928069025120000e-4 1.961026674270000e-4 1.994547688430000e-4
2.028641697540000e-4 2.063318496160000e-4 2.098588046260000e-4 2.134460480090000e-4
2.170946103120000e-4 2.208055396950001e-4 2.245799022370000e-4 2.284187822390000e-4
2.323232825370000e-4 2.362945248180000e-4 2.403336499440000e-4 2.444418182770000e-4
2.486202100140000e-4 2.528700255270000e-4 2.571924857040000e-4 2.615888323060000e-4
2.660603283170000e-4 2.706082583130000e-4 2.752339288240000e-4 2.799386687170000e-4
2.847238295720000e-4 2.895907860750000e-4 2.945409364060000e-4 2.995757026480000e-4
3.046965311929999e-4 3.099048931550000e-4 3.152022847960000e-4 3.205902279540001e-4
3.260702704810000e-4 3.316439866870000e-4 3.373129777920000e-4 3.430788723890000e-4
3.489433269070000e-4 3.549080260909999e-4 3.609746834820000e-4 3.671450419150000e-4
3.734208740140000e-4 3.798039827040000e-4 3.862962017290000e-4 3.928993961770000e-4
3.996154630190000e-4 4.064463316509999e-4 4.133939644480000e-4 4.204603573319999e-4
4.276475403410000e-4 4.349575782120001e-4 4.423925709790000e-4 4.499546545709999e-4
4.576460014279999e-4 4.654688211250000e-4 4.734253610080001e-4 4.815179068350001e-4
4.897487834400000e-4 4.981203553929999e-4 5.066350276840001e-4 5.152952464160001e-4
5.241034995000000e-4 5.330623173780000e-4 5.421742737450000e-4 5.514419862889999e-4
5.608681174450000e-4 5.704553751570001e-4 5.802065136600001e-4 5.901243342670000e-4
6.002116861759999e-4 6.104714672879999e-4 6.209066250389999e-4 6.315201572480000e-4
6.423151129780001e-4 6.532945934110001e-4 6.644617527379999e-4 6.758197990690000e-4
6.873719953509999e-4 6.991216603060001e-4 7.110721693850000e-4 7.232269557390001e-4
7.355895112020000e-4 7.481633872970001e-4 7.609521962560000e-4 7.739596120560000e-4
7.871893714760001e-4 8.006452751689999e-4 8.143311887559999e-4 8.282510439370000e-4
8.424088396140000e-4 8.568086430499999e-4 8.714545910290001e-4 8.863508910490001e-4
9.015018225280000e-4 9.169117380359999e-4 9.325850645440001e-4 9.485263046940000e-4
9.647400380960001e-4 9.812309226429999e-4 9.980036958469999e-4 1.015063176200000e-3
1.032414264560000e-3 1.050061945560000e-3 1.068011289040000e-3 1.086267451500000e-3
1.104835677570000e-3 1.123721301550000e-3 1.142929748920000e-3 1.162466537890000e-3
1.182337281000000e-3 1.202547686740000e-3 1.223103561150000e-3 1.244010809550000e-3
1.265275438180000e-3 1.286903555960000e-3 1.308901376230000e-3 1.331275218530000e-3
1.354031510450000e-3 1.377176789420000e-3 1.400717704620000e-3 1.424661018920000e-3
1.449013610770000e-3 1.473782476180000e-3 1.498974730780000e-3 1.524597611810000e-3
1.550658480240000e-3 1.577164822840000e-3 1.604124254370000e-3 1.631544519760000e-3
1.659433496320000e-3 1.687799196010000e-3 1.716649767750000e-3 1.745993499750000e-3
1.775838821900000e-3 1.806194308170000e-3 1.837068679120000e-3 1.868470804350000e-3
1.900409705090000e-3 1.932894556760000e-3 1.965934691640000e-3 1.999539601510000e-3
2.033718940410000e-3 2.068482527410000e-3 2.103840349410000e-3 2.139802564040000e-3
2.176379502530000e-3 2.213581672740000e-3 2.251419762130000e-3 2.289904640860000e-3
2.329047364870000e-3 2.368859179120000e-3 2.409351520780000e-3 2.450536022500000e-3
2.492424515800000e-3 2.535029034440000e-3 2.578361817860000e-3 2.622435314740001e-3
2.667262186540000e-3 2.712855311150000e-3 2.759227786600000e-3 2.806392934800000e-3
2.854364305380000e-3 2.903155679590000e-3 2.952781074250000e-3 3.003254745770000e-3
3.054591194270000e-3 3.106805167700000e-3 3.159911666150000e-3 3.213925946060000e-3
3.268863524710000e-3 3.324740184600000e-3 3.381571978000000e-3 3.439375231600001e-3
3.498166551140000e-3 3.557962826250000e-3 3.618781235220000e-3 3.680639250010000e-3