
     Program PWSCF v.6.3MaX starts on 23Feb2020 at 19:50:34 

     This program is part of the open-source Quantum ESPRESSO suite
     for quantum simulation of materials; please cite
         "P. Giannozzi et al., J. Phys.:Condens. Matter 21 395502 (2009);
         "P. Giannozzi et al., J. Phys.:Condens. Matter 29 465901 (2017);
          URL http://www.quantum-espresso.org", 
     in publications or presentations arising from this work. More details at
     http://www.quantum-espresso.org/quote

     Parallel version (MPI), running on     4 processors

     MPI processes distributed on     1 nodes
     R & G space division:  proc/nbgrp/npool/nimage =       4
     Waiting for input...
     Reading input from standard input

     Current dimensions of program PWSCF are:
     Max number of different atomic species (ntypx) = 10
     Max number of k-points (npk) =  40000
     Max angular momentum in pseudopotentials (lmaxx) =  3
     Message from routine iosys:
     minimal I/O required, wf_collect reset to FALSE

     Subspace diagonalization in iterative solution of the eigenvalue problem:
     a serial algorithm will be used

 
     Parallelization info
     --------------------
     sticks:   dense  smooth     PW     G-vecs:    dense   smooth      PW
     Min         880     351    105                27695     7001    1149
     Max         881     352    106                27696     7004    1150
     Sum        3521    1405    421               110783    28009    4597
 


     bravais-lattice index     =            0
     lattice parameter (alat)  =       1.8897  a.u.
     unit-cell volume          =     586.6735 (a.u.)^3
     number of atoms/cell      =            4
     number of atomic types    =            2
     number of electrons       =        51.00
     number of Kohn-Sham states=           31
     kinetic-energy cutoff     =      50.0000  Ry
     charge density cutoff     =     500.0000  Ry
     convergence threshold     =      1.0E-10
     mixing beta               =       0.6000
     number of iterations used =            8  plain     mixing
     Exchange-correlation      = SLA PW PBE PBE ( 1  4  3  4 0 0)
     nstep                     =           50


     celldm(1)=   1.889726  celldm(2)=   0.000000  celldm(3)=   0.000000
     celldm(4)=   0.000000  celldm(5)=   0.000000  celldm(6)=   0.000000

     crystal axes: (cart. coord. in units of alat)
               a(1) = (   0.000000  -3.516063   3.516063 )  
               a(2) = (   0.000000   3.516063   3.516063 )  
               a(3) = (  -3.516063   0.000000   0.000000 )  

     reciprocal axes: (cart. coord. in units 2 pi/alat)
               b(1) = (  0.000000 -0.142205  0.142205 )  
               b(2) = (  0.000000  0.142205  0.142205 )  
               b(3) = ( -0.284409  0.000000  0.000000 )  


     PseudoPot. # 1 for Nb read from file:
     ./Nb.pbe-nsp-van.UPF
     MD5 check sum: 0a22fc7fb0ba19a08ca5db297a5d2854
     Pseudo is Ultrasoft + core correction, Zval = 13.0
     Generated by new atomic code, or converted to UPF format
     Using radial grid of  887 points,  6 beta functions with: 
                l(1) =   0
                l(2) =   0
                l(3) =   1
                l(4) =   1
                l(5) =   2
                l(6) =   2
     Q(r) pseudized with  6 coefficients,  rinner =    1.000   1.000   1.000
                                                       1.000   1.000

     PseudoPot. # 2 for Ti read from file:
     ./Ti.pbe-sp-van_ak.UPF
     MD5 check sum: f98fea3e8887528921fefa5636a534ca
     Pseudo is Ultrasoft, Zval = 12.0
     Generated by new atomic code, or converted to UPF format
     Using radial grid of  851 points,  6 beta functions with: 
                l(1) =   0
                l(2) =   0
                l(3) =   1
                l(4) =   1
                l(5) =   2
                l(6) =   2
     Q(r) pseudized with  8 coefficients,  rinner =    1.000   1.000   1.000
                                                       1.000   1.000

     atomic species   valence    mass     pseudopotential
        Nb            13.00    92.90638     Nb( 1.00)
        Ti            12.00    47.86700     Ti( 1.00)

     16 Sym. Ops., with inversion, found



   Cartesian axes

     site n.     atom                  positions (alat units)
         1           Ti  tau(   1) = (  -3.5160633   0.0000000   3.5160633  )
         2           Nb  tau(   2) = (  -1.7580316  -1.7580316   5.2740949  )
         3           Nb  tau(   3) = (  -3.5160633   0.0000000   7.0321265  )
         4           Nb  tau(   4) = (  -1.7580316   1.7580316   5.2740949  )

     number of k points=   252  Marzari-Vanderbilt smearing, width (Ry)=  0.0200

     Number of k-points >= 100: set verbosity='high' to print them.

     Dense  grid:   110783 G-vectors     FFT dimensions: (  72,  72,  48)

     Smooth grid:    28009 G-vectors     FFT dimensions: (  45,  45,  30)

     Estimated max dynamical RAM per process >     209.26 MB

     Estimated total dynamical RAM >     837.05 MB

     Initial potential from superposition of free atoms

     starting charge   49.99176, renormalised to   51.00000
     Starting wfcs are   49 randomized atomic wfcs

     total cpu time spent up to now is        9.0 secs

     Self-consistent Calculation

     iteration #  1     ecut=    50.00 Ry     beta= 0.60
     Davidson diagonalization with overlap
     ethr =  1.00E-02,  avg # of iterations =  2.1

     total cpu time spent up to now is       23.4 secs

     total energy              =    -451.97778190 Ry
     Harris-Foulkes estimate   =    -472.31440277 Ry
     estimated scf accuracy    <      25.48982293 Ry

     iteration #  2     ecut=    50.00 Ry     beta= 0.60
     Davidson diagonalization with overlap
     ethr =  1.00E-02,  avg # of iterations =  6.1

     total cpu time spent up to now is       48.0 secs

     total energy              =    -459.65016902 Ry
     Harris-Foulkes estimate   =    -498.80840976 Ry
     estimated scf accuracy    <     120.34691225 Ry

     iteration #  3     ecut=    50.00 Ry     beta= 0.60
     Davidson diagonalization with overlap
     ethr =  1.00E-02,  avg # of iterations =  5.0

     total cpu time spent up to now is       68.7 secs

     total energy              =    -471.31031490 Ry
     Harris-Foulkes estimate   =    -473.33082329 Ry
     estimated scf accuracy    <      11.27120509 Ry

     iteration #  4     ecut=    50.00 Ry     beta= 0.60
     Davidson diagonalization with overlap
     ethr =  1.00E-02,  avg # of iterations =  2.7

     total cpu time spent up to now is       81.8 secs

     total energy              =    -471.80265657 Ry
     Harris-Foulkes estimate   =    -471.97137284 Ry
     estimated scf accuracy    <       5.56641454 Ry

     iteration #  5     ecut=    50.00 Ry     beta= 0.60
     Davidson diagonalization with overlap
     ethr =  1.00E-02,  avg # of iterations =  1.0

     total cpu time spent up to now is       93.2 secs

     total energy              =    -470.57559191 Ry
     Harris-Foulkes estimate   =    -471.82848848 Ry
     estimated scf accuracy    <       5.23012126 Ry

     iteration #  6     ecut=    50.00 Ry     beta= 0.60
     Davidson diagonalization with overlap
     ethr =  1.00E-02,  avg # of iterations =  1.0

     total cpu time spent up to now is      104.6 secs

     total energy              =    -470.55052456 Ry
     Harris-Foulkes estimate   =    -470.69619665 Ry
     estimated scf accuracy    <       2.45593991 Ry

     iteration #  7     ecut=    50.00 Ry     beta= 0.60
     Davidson diagonalization with overlap
     ethr =  4.82E-03,  avg # of iterations =  1.7

     total cpu time spent up to now is      116.4 secs

     total energy              =    -470.34851737 Ry
     Harris-Foulkes estimate   =    -470.58782430 Ry
     estimated scf accuracy    <       1.97112270 Ry

     iteration #  8     ecut=    50.00 Ry     beta= 0.60
     Davidson diagonalization with overlap
     ethr =  3.86E-03,  avg # of iterations =  2.1

     total cpu time spent up to now is      128.6 secs

     total energy              =    -470.32603665 Ry
     Harris-Foulkes estimate   =    -470.39470499 Ry
     estimated scf accuracy    <       1.07071103 Ry

     iteration #  9     ecut=    50.00 Ry     beta= 0.60
     Davidson diagonalization with overlap
     ethr =  2.10E-03,  avg # of iterations =  3.2

     total cpu time spent up to now is      141.7 secs

     total energy              =    -470.08397224 Ry
     Harris-Foulkes estimate   =    -470.36646095 Ry
     estimated scf accuracy    <       0.73285956 Ry

     iteration # 10     ecut=    50.00 Ry     beta= 0.60
     Davidson diagonalization with overlap
     ethr =  1.44E-03,  avg # of iterations =  4.5

     total cpu time spent up to now is      160.5 secs

     total energy              =    -470.52144822 Ry
     Harris-Foulkes estimate   =    -470.80227348 Ry
     estimated scf accuracy    <      10.76998770 Ry

     iteration # 11     ecut=    50.00 Ry     beta= 0.60
     Davidson diagonalization with overlap
     ethr =  1.44E-03,  avg # of iterations =  1.0

     total cpu time spent up to now is      171.9 secs

     total energy              =    -470.38341270 Ry
     Harris-Foulkes estimate   =    -470.55504917 Ry
     estimated scf accuracy    <       6.04862068 Ry

     iteration # 12     ecut=    50.00 Ry     beta= 0.60
     Davidson diagonalization with overlap
     ethr =  1.44E-03,  avg # of iterations =  2.2

     total cpu time spent up to now is      184.2 secs

     total energy              =    -470.36693316 Ry
     Harris-Foulkes estimate   =    -470.42871988 Ry
     estimated scf accuracy    <       2.05755570 Ry

     iteration # 13     ecut=    50.00 Ry     beta= 0.60
     Davidson diagonalization with overlap
     ethr =  1.44E-03,  avg # of iterations =  1.0

     total cpu time spent up to now is      196.1 secs

     total energy              =    -470.34344352 Ry
     Harris-Foulkes estimate   =    -470.38051468 Ry
     estimated scf accuracy    <       0.86362500 Ry

     iteration # 14     ecut=    50.00 Ry     beta= 0.60
     Davidson diagonalization with overlap
     ethr =  1.44E-03,  avg # of iterations =  1.3

     total cpu time spent up to now is      208.2 secs

     total energy              =    -470.33497143 Ry
     Harris-Foulkes estimate   =    -470.35656774 Ry
     estimated scf accuracy    <       0.22698867 Ry

     iteration # 15     ecut=    50.00 Ry     beta= 0.60
     Davidson diagonalization with overlap
     ethr =  4.45E-04,  avg # of iterations =  4.1

     total cpu time spent up to now is      222.9 secs

     total energy              =    -470.35438027 Ry
     Harris-Foulkes estimate   =    -470.35485037 Ry
     estimated scf accuracy    <       0.00485819 Ry

     iteration # 16     ecut=    50.00 Ry     beta= 0.60
     Davidson diagonalization with overlap
     ethr =  9.53E-06,  avg # of iterations =  7.7

     total cpu time spent up to now is      245.8 secs

     total energy              =    -470.35542498 Ry
     Harris-Foulkes estimate   =    -470.35607349 Ry
     estimated scf accuracy    <       0.00708953 Ry

     iteration # 17     ecut=    50.00 Ry     beta= 0.60
     Davidson diagonalization with overlap
     ethr =  9.53E-06,  avg # of iterations =  1.0

     total cpu time spent up to now is      257.8 secs

     total energy              =    -470.35485767 Ry
     Harris-Foulkes estimate   =    -470.35554753 Ry
     estimated scf accuracy    <       0.00247535 Ry

     iteration # 18     ecut=    50.00 Ry     beta= 0.60
     Davidson diagonalization with overlap
     ethr =  4.85E-06,  avg # of iterations =  2.8

     total cpu time spent up to now is      272.0 secs

     total energy              =    -470.35506767 Ry
     Harris-Foulkes estimate   =    -470.35515716 Ry
     estimated scf accuracy    <       0.00053939 Ry

     iteration # 19     ecut=    50.00 Ry     beta= 0.60
     Davidson diagonalization with overlap
     ethr =  1.06E-06,  avg # of iterations =  4.8

     total cpu time spent up to now is      289.5 secs

     total energy              =    -470.35570488 Ry
     Harris-Foulkes estimate   =    -470.35521053 Ry
     estimated scf accuracy    <       0.00134607 Ry

     iteration # 20     ecut=    50.00 Ry     beta= 0.60
     Davidson diagonalization with overlap
     ethr =  1.06E-06,  avg # of iterations =  5.6

     total cpu time spent up to now is      310.9 secs

     total energy              =    -470.35459698 Ry
     Harris-Foulkes estimate   =    -470.35605247 Ry
     estimated scf accuracy    <       0.00666004 Ry

     iteration # 21     ecut=    50.00 Ry     beta= 0.60
     Davidson diagonalization with overlap
     ethr =  1.06E-06,  avg # of iterations =  5.4

     total cpu time spent up to now is      333.0 secs

     total energy              =    -470.35511359 Ry
     Harris-Foulkes estimate   =    -470.35511342 Ry
     estimated scf accuracy    <       0.00037315 Ry

     iteration # 22     ecut=    50.00 Ry     beta= 0.60
     Davidson diagonalization with overlap
     ethr =  7.32E-07,  avg # of iterations =  1.2

     total cpu time spent up to now is      345.1 secs

     total energy              =    -470.35507537 Ry
     Harris-Foulkes estimate   =    -470.35512857 Ry
     estimated scf accuracy    <       0.00069213 Ry

     iteration # 23     ecut=    50.00 Ry     beta= 0.60
     Davidson diagonalization with overlap
     ethr =  7.32E-07,  avg # of iterations =  1.0

     total cpu time spent up to now is      357.0 secs

     total energy              =    -470.35506520 Ry
     Harris-Foulkes estimate   =    -470.35508833 Ry
     estimated scf accuracy    <       0.00020095 Ry

     iteration # 24     ecut=    50.00 Ry     beta= 0.60
     Davidson diagonalization with overlap
     ethr =  3.94E-07,  avg # of iterations =  3.5

     total cpu time spent up to now is      371.3 secs

     total energy              =    -470.35507919 Ry
     Harris-Foulkes estimate   =    -470.35508296 Ry
     estimated scf accuracy    <       0.00002181 Ry

     iteration # 25     ecut=    50.00 Ry     beta= 0.60
     Davidson diagonalization with overlap
     ethr =  4.28E-08,  avg # of iterations =  3.4

     total cpu time spent up to now is      386.0 secs

     total energy              =    -470.35508105 Ry
     Harris-Foulkes estimate   =    -470.35508164 Ry
     estimated scf accuracy    <       0.00000289 Ry

     iteration # 26     ecut=    50.00 Ry     beta= 0.60
     Davidson diagonalization with overlap
     ethr =  5.67E-09,  avg # of iterations =  4.0

     total cpu time spent up to now is      401.4 secs

     total energy              =    -470.35508163 Ry
     Harris-Foulkes estimate   =    -470.35508168 Ry
     estimated scf accuracy    <       0.00000041 Ry

     iteration # 27     ecut=    50.00 Ry     beta= 0.60
     Davidson diagonalization with overlap
     ethr =  8.09E-10,  avg # of iterations =  2.5

     total cpu time spent up to now is      414.1 secs

     total energy              =    -470.35508164 Ry
     Harris-Foulkes estimate   =    -470.35508166 Ry
     estimated scf accuracy    <       0.00000012 Ry

     iteration # 28     ecut=    50.00 Ry     beta= 0.60
     Davidson diagonalization with overlap
     ethr =  2.30E-10,  avg # of iterations =  3.6

     total cpu time spent up to now is      428.7 secs

     total energy              =    -470.35508165 Ry
     Harris-Foulkes estimate   =    -470.35508166 Ry
     estimated scf accuracy    <       0.00000006 Ry

     iteration # 29     ecut=    50.00 Ry     beta= 0.60
     Davidson diagonalization with overlap
     ethr =  1.13E-10,  avg # of iterations =  3.1

     total cpu time spent up to now is      442.0 secs

     total energy              =    -470.35508165 Ry
     Harris-Foulkes estimate   =    -470.35508165 Ry
     estimated scf accuracy    <          4.4E-09 Ry

     iteration # 30     ecut=    50.00 Ry     beta= 0.60
     Davidson diagonalization with overlap
     ethr =  8.61E-12,  avg # of iterations =  4.4

     total cpu time spent up to now is      458.9 secs

     total energy              =    -470.35508166 Ry
     Harris-Foulkes estimate   =    -470.35508166 Ry
     estimated scf accuracy    <          4.7E-09 Ry

     iteration # 31     ecut=    50.00 Ry     beta= 0.60
     Davidson diagonalization with overlap
     ethr =  8.61E-12,  avg # of iterations =  1.0

     total cpu time spent up to now is      470.2 secs

     total energy              =    -470.35508165 Ry
     Harris-Foulkes estimate   =    -470.35508166 Ry
     estimated scf accuracy    <          1.8E-09 Ry

     iteration # 32     ecut=    50.00 Ry     beta= 0.60
     Davidson diagonalization with overlap
     ethr =  3.48E-12,  avg # of iterations =  3.2

     total cpu time spent up to now is      484.6 secs

     End of self-consistent calculation

     Number of k-points >= 100: set verbosity='high' to print the bands.

     the Fermi energy is    13.2923 ev

!    total energy              =    -470.35508166 Ry
     Harris-Foulkes estimate   =    -470.35508166 Ry
     estimated scf accuracy    <          8.4E-11 Ry

     The total energy is the sum of the following terms:

     one-electron contribution =    -124.21188130 Ry
     hartree contribution      =      79.31729241 Ry
     xc contribution           =     -69.12048624 Ry
     ewald contribution        =    -356.33949537 Ry
     smearing contrib. (-TS)   =      -0.00051116 Ry

     convergence has been achieved in  32 iterations

     Forces acting on atoms (cartesian axes, Ry/au):

     atom    1 type  2   force =     0.00000000    0.00000000    0.00000000
     atom    2 type  1   force =     0.00000000    0.00000000    0.00000000
     atom    3 type  1   force =     0.00000000    0.00000000    0.00000000
     atom    4 type  1   force =     0.00000000    0.00000000    0.00000000

     Total force =     0.000000     Total SCF correction =     0.000000


     Computing stress (Cartesian axis) and pressure

          total   stress  (Ry/bohr**3)                   (kbar)     P= -212.58
  -0.00145487   0.00000000   0.00000000       -214.02      0.00      0.00
   0.00000000  -0.00144020   0.00000000          0.00   -211.86      0.00
   0.00000000   0.00000000  -0.00144020          0.00      0.00   -211.86


     BFGS Geometry Optimization

     number of scf cycles    =   1
     number of bfgs steps    =   0

     enthalpy new            =    -470.3550816551 Ry

     new trust radius        =       0.1761945054 bohr
     new conv_thr            =            1.0E-10 Ry

     new unit-cell volume =    525.35832 a.u.^3 (    77.85007 Ang^3 )
     density =      6.96607 g/cm^3

CELL_PARAMETERS (alat=  1.88972599)
   0.000000000  -3.389467473   3.389467473
   0.000000000   3.389467473   3.389467473
  -3.388177651   0.000000000   0.000000000

ATOMIC_POSITIONS (angstrom)
Ti      -3.388177651   0.000000000   3.389467473
Nb      -1.694088825  -1.694733737   5.084201210
Nb      -3.388177651   0.000000000   6.778934946
Nb      -1.694088825   1.694733737   5.084201210


     NEW-OLD atomic charge density approx. for the potential
     extrapolated charge   45.16541, renormalised to   51.00000

     total cpu time spent up to now is      492.9 secs

     Self-consistent Calculation

     iteration #  1     ecut=    50.00 Ry     beta= 0.60
     Davidson diagonalization with overlap
     c_bands:  1 eigenvalues not converged
     c_bands:  1 eigenvalues not converged
     c_bands:  1 eigenvalues not converged
     c_bands:  1 eigenvalues not converged
     c_bands:  2 eigenvalues not converged
     c_bands:  1 eigenvalues not converged
     c_bands:  1 eigenvalues not converged
     ethr =  1.00E-06,  avg # of iterations = 13.2

     total cpu time spent up to now is      534.7 secs

     total energy              =    -449.53168213 Ry
     Harris-Foulkes estimate   =    -479.94979585 Ry
     estimated scf accuracy    <      23.40073974 Ry

     iteration #  2     ecut=    50.00 Ry     beta= 0.60
     Davidson diagonalization with overlap
     ethr =  1.00E-02,  avg # of iterations =  6.4

     total cpu time spent up to now is      559.3 secs

     total energy              =    -462.90937357 Ry
     Harris-Foulkes estimate   =    -497.15587331 Ry
     estimated scf accuracy    <     104.48132402 Ry

     iteration #  3     ecut=    50.00 Ry     beta= 0.60
     Davidson diagonalization with overlap
     ethr =  1.00E-02,  avg # of iterations =  4.9

     total cpu time spent up to now is      579.3 secs

     total energy              =    -471.99647247 Ry
     Harris-Foulkes estimate   =    -473.91628004 Ry
     estimated scf accuracy    <       9.16565767 Ry

     iteration #  4     ecut=    50.00 Ry     beta= 0.60
     Davidson diagonalization with overlap
     ethr =  1.00E-02,  avg # of iterations =  2.7

     total cpu time spent up to now is      592.4 secs

     total energy              =    -471.49819634 Ry
     Harris-Foulkes estimate   =    -472.64269320 Ry
     estimated scf accuracy    <       7.37460354 Ry

     iteration #  5     ecut=    50.00 Ry     beta= 0.60
     Davidson diagonalization with overlap
     ethr =  1.00E-02,  avg # of iterations =  1.0

     total cpu time spent up to now is      603.7 secs

     total energy              =    -471.07389311 Ry
     Harris-Foulkes estimate   =    -471.67845107 Ry
     estimated scf accuracy    <       4.11329106 Ry

     iteration #  6     ecut=    50.00 Ry     beta= 0.60
     Davidson diagonalization with overlap
     ethr =  8.07E-03,  avg # of iterations =  1.0

     total cpu time spent up to now is      615.0 secs

     total energy              =    -470.74272307 Ry
     Harris-Foulkes estimate   =    -471.11811120 Ry
     estimated scf accuracy    <       2.85662984 Ry

     iteration #  7     ecut=    50.00 Ry     beta= 0.60
     Davidson diagonalization with overlap
     ethr =  5.60E-03,  avg # of iterations =  1.4

     total cpu time spent up to now is      626.5 secs

     total energy              =    -470.55323192 Ry
     Harris-Foulkes estimate   =    -470.78086953 Ry
     estimated scf accuracy    <       1.92904005 Ry

     iteration #  8     ecut=    50.00 Ry     beta= 0.60
     Davidson diagonalization with overlap
     ethr =  3.78E-03,  avg # of iterations =  1.7

     total cpu time spent up to now is      638.3 secs

     total energy              =    -470.45496716 Ry
     Harris-Foulkes estimate   =    -470.58688712 Ry
     estimated scf accuracy    <       1.22807605 Ry

     iteration #  9     ecut=    50.00 Ry     beta= 0.60
     Davidson diagonalization with overlap
     ethr =  2.41E-03,  avg # of iterations =  2.9

     total cpu time spent up to now is      651.1 secs

     total energy              =    -470.42797967 Ry
     Harris-Foulkes estimate   =    -470.49027468 Ry
     estimated scf accuracy    <       0.62694943 Ry

     iteration # 10     ecut=    50.00 Ry     beta= 0.60
     Davidson diagonalization with overlap
     ethr =  1.23E-03,  avg # of iterations =  3.1

     total cpu time spent up to now is      664.2 secs

     total energy              =    -470.31480068 Ry
     Harris-Foulkes estimate   =    -470.45275977 Ry
     estimated scf accuracy    <       0.25523045 Ry

     iteration # 11     ecut=    50.00 Ry     beta= 0.60
     Davidson diagonalization with overlap
     ethr =  5.00E-04,  avg # of iterations =  5.1

     total cpu time spent up to now is      684.9 secs

     total energy              =    -470.57443115 Ry
     Harris-Foulkes estimate   =    -470.58696130 Ry
     estimated scf accuracy    <       3.48553259 Ry

     iteration # 12     ecut=    50.00 Ry     beta= 0.60
     Davidson diagonalization with overlap
     ethr =  5.00E-04,  avg # of iterations =  1.0

     total cpu time spent up to now is      696.3 secs

     total energy              =    -471.17979035 Ry
     Harris-Foulkes estimate   =    -470.57503094 Ry
     estimated scf accuracy    <       3.29634873 Ry

     iteration # 13     ecut=    50.00 Ry     beta= 0.60
     Davidson diagonalization with overlap
     ethr =  5.00E-04,  avg # of iterations =  4.1

     total cpu time spent up to now is      713.5 secs

     total energy              =    -471.87466476 Ry
     Harris-Foulkes estimate   =    -471.67358196 Ry
     estimated scf accuracy    <      22.17974802 Ry

     iteration # 14     ecut=    50.00 Ry     beta= 0.60
     Davidson diagonalization with overlap
     ethr =  5.00E-04,  avg # of iterations =  1.0

     total cpu time spent up to now is      724.9 secs

     total energy              =    -471.04877441 Ry
     Harris-Foulkes estimate   =    -471.88039016 Ry
     estimated scf accuracy    <      24.19524630 Ry

     iteration # 15     ecut=    50.00 Ry     beta= 0.60
     Davidson diagonalization with overlap
     ethr =  5.00E-04,  avg # of iterations =  3.2

     total cpu time spent up to now is      738.3 secs

     total energy              =    -470.73468263 Ry
     Harris-Foulkes estimate   =    -471.12266381 Ry
     estimated scf accuracy    <      14.61204559 Ry

     iteration # 16     ecut=    50.00 Ry     beta= 0.60
     Davidson diagonalization with overlap
     ethr =  5.00E-04,  avg # of iterations =  3.1

     total cpu time spent up to now is      751.2 secs

     total energy              =    -470.35936820 Ry
     Harris-Foulkes estimate   =    -470.77972810 Ry
     estimated scf accuracy    <       8.42599207 Ry

     iteration # 17     ecut=    50.00 Ry     beta= 0.60
     Davidson diagonalization with overlap
     ethr =  5.00E-04,  avg # of iterations =  4.1

     total cpu time spent up to now is      766.4 secs

     total energy              =    -470.36490904 Ry
     Harris-Foulkes estimate   =    -470.49423252 Ry
     estimated scf accuracy    <       1.25419335 Ry

     iteration # 18     ecut=    50.00 Ry     beta= 0.60
     Davidson diagonalization with overlap
     ethr =  5.00E-04,  avg # of iterations =  4.1

     total cpu time spent up to now is      780.3 secs

     total energy              =    -470.42343578 Ry
     Harris-Foulkes estimate   =    -470.42449902 Ry
     estimated scf accuracy    <       0.01610067 Ry

     iteration # 19     ecut=    50.00 Ry     beta= 0.60
     Davidson diagonalization with overlap
     ethr =  3.16E-05,  avg # of iterations =  6.8

     total cpu time spent up to now is      800.4 secs

     total energy              =    -470.42799243 Ry
     Harris-Foulkes estimate   =    -470.42674437 Ry
     estimated scf accuracy    <       0.01171144 Ry

     iteration # 20     ecut=    50.00 Ry     beta= 0.60
     Davidson diagonalization with overlap
     ethr =  2.30E-05,  avg # of iterations =  1.1

     total cpu time spent up to now is      812.6 secs

     total energy              =    -470.42988219 Ry
     Harris-Foulkes estimate   =    -470.42847575 Ry
     estimated scf accuracy    <       0.03195300 Ry

     iteration # 21     ecut=    50.00 Ry     beta= 0.60
     Davidson diagonalization with overlap
     ethr =  2.30E-05,  avg # of iterations =  2.6

     total cpu time spent up to now is      826.0 secs

     total energy              =    -470.43083852 Ry
     Harris-Foulkes estimate   =    -470.43038720 Ry
     estimated scf accuracy    <       0.06555181 Ry

     iteration # 22     ecut=    50.00 Ry     beta= 0.60
     Davidson diagonalization with overlap
     ethr =  2.30E-05,  avg # of iterations =  1.0

     total cpu time spent up to now is      838.1 secs

     total energy              =    -470.43234344 Ry
     Harris-Foulkes estimate   =    -470.43089524 Ry
     estimated scf accuracy    <       0.07137311 Ry

     iteration # 23     ecut=    50.00 Ry     beta= 0.60
     Davidson diagonalization with overlap
     ethr =  2.30E-05,  avg # of iterations =  1.5

     total cpu time spent up to now is      850.6 secs

     total energy              =    -470.42859658 Ry
     Harris-Foulkes estimate   =    -470.43249980 Ry
     estimated scf accuracy    <       0.08983802 Ry

     iteration # 24     ecut=    50.00 Ry     beta= 0.60
     Davidson diagonalization with overlap
     ethr =  2.30E-05,  avg # of iterations =  1.0

     total cpu time spent up to now is      862.6 secs

     total energy              =    -470.42553150 Ry
     Harris-Foulkes estimate   =    -470.42909130 Ry
     estimated scf accuracy    <       0.04854456 Ry

     iteration # 25     ecut=    50.00 Ry     beta= 0.60
     Davidson diagonalization with overlap
     ethr =  2.30E-05,  avg # of iterations =  3.0

     total cpu time spent up to now is      876.3 secs

     total energy              =    -470.42523686 Ry
     Harris-Foulkes estimate   =    -470.42651593 Ry
     estimated scf accuracy    <       0.01041800 Ry

     iteration # 26     ecut=    50.00 Ry     beta= 0.60
     Davidson diagonalization with overlap
     ethr =  2.04E-05,  avg # of iterations =  2.5

     total cpu time spent up to now is      889.6 secs

     total energy              =    -470.42555050 Ry
     Harris-Foulkes estimate   =    -470.42572140 Ry
     estimated scf accuracy    <       0.00147916 Ry

     iteration # 27     ecut=    50.00 Ry     beta= 0.60
     Davidson diagonalization with overlap
     ethr =  2.90E-06,  avg # of iterations =  5.8

     total cpu time spent up to now is      908.0 secs

     total energy              =    -470.42582298 Ry
     Harris-Foulkes estimate   =    -470.42582484 Ry
     estimated scf accuracy    <       0.00003296 Ry

     iteration # 28     ecut=    50.00 Ry     beta= 0.60
     Davidson diagonalization with overlap
     ethr =  6.46E-08,  avg # of iterations =  4.7

     total cpu time spent up to now is      926.0 secs

     total energy              =    -470.42581995 Ry
     Harris-Foulkes estimate   =    -470.42583712 Ry
     estimated scf accuracy    <       0.00014585 Ry

     iteration # 29     ecut=    50.00 Ry     beta= 0.60
     Davidson diagonalization with overlap
     ethr =  6.46E-08,  avg # of iterations =  3.6

     total cpu time spent up to now is      940.4 secs

     total energy              =    -470.42582006 Ry
     Harris-Foulkes estimate   =    -470.42582443 Ry
     estimated scf accuracy    <       0.00002543 Ry

     iteration # 30     ecut=    50.00 Ry     beta= 0.60
     Davidson diagonalization with overlap
     ethr =  4.99E-08,  avg # of iterations =  3.3

     total cpu time spent up to now is      955.0 secs

     total energy              =    -470.42582305 Ry
     Harris-Foulkes estimate   =    -470.42582306 Ry
     estimated scf accuracy    <       0.00000006 Ry

     iteration # 31     ecut=    50.00 Ry     beta= 0.60
     Davidson diagonalization with overlap
     ethr =  1.17E-10,  avg # of iterations =  5.7

     total cpu time spent up to now is      977.8 secs

     total energy              =    -470.42582327 Ry
     Harris-Foulkes estimate   =    -470.42582342 Ry
     estimated scf accuracy    <       0.00000086 Ry

     iteration # 32     ecut=    50.00 Ry     beta= 0.60
     Davidson diagonalization with overlap
     ethr =  1.17E-10,  avg # of iterations =  4.5

     total cpu time spent up to now is      995.3 secs

     total energy              =    -470.42582333 Ry
     Harris-Foulkes estimate   =    -470.42582333 Ry
     estimated scf accuracy    <          3.4E-09 Ry

     iteration # 33     ecut=    50.00 Ry     beta= 0.60
     Davidson diagonalization with overlap
     ethr =  6.63E-12,  avg # of iterations =  2.5

     total cpu time spent up to now is     1008.3 secs

     total energy              =    -470.42582333 Ry
     Harris-Foulkes estimate   =    -470.42582333 Ry
     estimated scf accuracy    <          6.3E-09 Ry

     iteration # 34     ecut=    50.00 Ry     beta= 0.60
     Davidson diagonalization with overlap
     ethr =  6.63E-12,  avg # of iterations =  1.9

     total cpu time spent up to now is     1020.3 secs

     total energy              =    -470.42582333 Ry
     Harris-Foulkes estimate   =    -470.42582333 Ry
     estimated scf accuracy    <          1.1E-09 Ry

     iteration # 35     ecut=    50.00 Ry     beta= 0.60
     Davidson diagonalization with overlap
     ethr =  2.17E-12,  avg # of iterations =  3.4

     total cpu time spent up to now is     1034.5 secs

     End of self-consistent calculation

     Number of k-points >= 100: set verbosity='high' to print the bands.

     the Fermi energy is    15.1879 ev

!    total energy              =    -470.42582333 Ry
     Harris-Foulkes estimate   =    -470.42582333 Ry
     estimated scf accuracy    <          2.6E-11 Ry

     The total energy is the sum of the following terms:

     one-electron contribution =    -104.82840292 Ry
     hartree contribution      =      73.60904253 Ry
     xc contribution           =     -69.51025739 Ry
     ewald contribution        =    -369.69552825 Ry
     smearing contrib. (-TS)   =      -0.00067730 Ry

     convergence has been achieved in  35 iterations

     Forces acting on atoms (cartesian axes, Ry/au):

     atom    1 type  2   force =     0.00000000    0.00000000    0.00000000
     atom    2 type  1   force =     0.00000000    0.00000000    0.00000000
     atom    3 type  1   force =     0.00000000    0.00000000    0.00000000
     atom    4 type  1   force =     0.00000000    0.00000000    0.00000000

     Total force =     0.000000     Total SCF correction =     0.000000


     Computing stress (Cartesian axis) and pressure

          total   stress  (Ry/bohr**3)                   (kbar)     P= -117.12
  -0.00080864   0.00000000   0.00000000       -118.96      0.00      0.00
   0.00000000  -0.00078996   0.00000000          0.00   -116.21      0.00
   0.00000000   0.00000000  -0.00078996          0.00      0.00   -116.21


     number of scf cycles    =   2
     number of bfgs steps    =   1

     enthalpy old            =    -470.3550816551 Ry
     enthalpy new            =    -470.4258233325 Ry

     CASE: enthalpy_new < enthalpy_old

     new trust radius        =       0.1831027135 bohr
     new conv_thr            =            1.0E-12 Ry

     new unit-cell volume =    465.80944 a.u.^3 (    69.02584 Ang^3 )
     density =      7.85661 g/cm^3

CELL_PARAMETERS (alat=  1.88972599)
   0.000000000  -3.257310957   3.257310957
   0.000000000   3.257310957   3.257310957
  -3.252844824   0.000000000   0.000000000

ATOMIC_POSITIONS (angstrom)
Ti      -3.252844824   0.000000000   3.257310957
Nb      -1.626422412  -1.628655478   4.885966435
Nb      -3.252844824   0.000000000   6.514621913
Nb      -1.626422412   1.628655478   4.885966435


     NEW-OLD atomic charge density approx. for the potential
     extrapolated charge   44.60908, renormalised to   51.00000

     total cpu time spent up to now is     1043.0 secs

     Self-consistent Calculation

     iteration #  1     ecut=    50.00 Ry     beta= 0.60
     Davidson diagonalization with overlap
     c_bands:  1 eigenvalues not converged
     c_bands:  2 eigenvalues not converged
     c_bands:  1 eigenvalues not converged
     c_bands:  1 eigenvalues not converged
     c_bands:  1 eigenvalues not converged
     c_bands:  1 eigenvalues not converged
     ethr =  1.00E-06,  avg # of iterations = 12.9

     total cpu time spent up to now is     1084.3 secs

     total energy              =    -451.32957890 Ry
     Harris-Foulkes estimate   =    -479.07930034 Ry
     estimated scf accuracy    <      21.13296185 Ry

     iteration #  2     ecut=    50.00 Ry     beta= 0.60
     Davidson diagonalization with overlap
     ethr =  1.00E-02,  avg # of iterations =  6.3

     total cpu time spent up to now is     1108.7 secs

     total energy              =    -463.08723429 Ry
     Harris-Foulkes estimate   =    -494.10277214 Ry
     estimated scf accuracy    <      94.97446653 Ry

     iteration #  3     ecut=    50.00 Ry     beta= 0.60
     Davidson diagonalization with overlap
     ethr =  1.00E-02,  avg # of iterations =  4.5

     total cpu time spent up to now is     1128.0 secs

     total energy              =    -471.78884840 Ry
     Harris-Foulkes estimate   =    -473.52106932 Ry
     estimated scf accuracy    <       8.18837549 Ry

     iteration #  4     ecut=    50.00 Ry     beta= 0.60
     Davidson diagonalization with overlap
     ethr =  1.00E-02,  avg # of iterations =  2.4

     total cpu time spent up to now is     1140.8 secs

     total energy              =    -471.28319949 Ry
     Harris-Foulkes estimate   =    -472.31643140 Ry
     estimated scf accuracy    <       6.38759074 Ry

     iteration #  5     ecut=    50.00 Ry     beta= 0.60
     Davidson diagonalization with overlap
     ethr =  1.00E-02,  avg # of iterations =  1.0

     total cpu time spent up to now is     1152.1 secs

     total energy              =    -470.93071902 Ry
     Harris-Foulkes estimate   =    -471.43841896 Ry
     estimated scf accuracy    <       3.57571500 Ry

     iteration #  6     ecut=    50.00 Ry     beta= 0.60
     Davidson diagonalization with overlap
     ethr =  7.01E-03,  avg # of iterations =  1.0

     total cpu time spent up to now is     1163.4 secs

     total energy              =    -470.69861898 Ry
     Harris-Foulkes estimate   =    -470.97216365 Ry
     estimated scf accuracy    <       2.45302209 Ry

     iteration #  7     ecut=    50.00 Ry     beta= 0.60
     Davidson diagonalization with overlap
     ethr =  4.81E-03,  avg # of iterations =  1.7

     total cpu time spent up to now is     1175.3 secs

     total energy              =    -470.56859321 Ry
     Harris-Foulkes estimate   =    -470.73782363 Ry
     estimated scf accuracy    <       1.63658896 Ry

     iteration #  8     ecut=    50.00 Ry     beta= 0.60
     Davidson diagonalization with overlap
     ethr =  3.21E-03,  avg # of iterations =  1.5

     total cpu time spent up to now is     1187.0 secs

     total energy              =    -470.42354174 Ry
     Harris-Foulkes estimate   =    -470.59232469 Ry
     estimated scf accuracy    <       1.10947116 Ry

     iteration #  9     ecut=    50.00 Ry     beta= 0.60
     Davidson diagonalization with overlap
     ethr =  2.18E-03,  avg # of iterations =  3.5

     total cpu time spent up to now is     1200.6 secs

     total energy              =    -470.47578263 Ry
     Harris-Foulkes estimate   =    -470.48073694 Ry
     estimated scf accuracy    <       0.29363902 Ry

     iteration # 10     ecut=    50.00 Ry     beta= 0.60
     Davidson diagonalization with overlap
     ethr =  5.76E-04,  avg # of iterations =  3.2

     total cpu time spent up to now is     1213.9 secs

     total energy              =    -470.36187975 Ry
     Harris-Foulkes estimate   =    -470.48328681 Ry
     estimated scf accuracy    <       0.24058616 Ry

     iteration # 11     ecut=    50.00 Ry     beta= 0.60
     Davidson diagonalization with overlap
     ethr =  4.72E-04,  avg # of iterations =  5.3

     total cpu time spent up to now is     1234.0 secs

     total energy              =    -470.38611780 Ry
     Harris-Foulkes estimate   =    -470.50100017 Ry
     estimated scf accuracy    <       0.89201765 Ry

     iteration # 12     ecut=    50.00 Ry     beta= 0.60
     Davidson diagonalization with overlap
     ethr =  4.72E-04,  avg # of iterations =  3.7

     total cpu time spent up to now is     1247.7 secs

     total energy              =    -470.44221931 Ry
     Harris-Foulkes estimate   =    -470.44065659 Ry
     estimated scf accuracy    <       0.00436674 Ry

     iteration # 13     ecut=    50.00 Ry     beta= 0.60
     Davidson diagonalization with overlap
     ethr =  8.56E-06,  avg # of iterations =  6.4

     total cpu time spent up to now is     1269.5 secs

     total energy              =    -470.43702118 Ry
     Harris-Foulkes estimate   =    -470.44633336 Ry
     estimated scf accuracy    <       0.04579386 Ry

     iteration # 14     ecut=    50.00 Ry     beta= 0.60
     Davidson diagonalization with overlap
     ethr =  8.56E-06,  avg # of iterations =  6.3

     total cpu time spent up to now is     1290.2 secs

     total energy              =    -470.44181380 Ry
     Harris-Foulkes estimate   =    -470.44311593 Ry
     estimated scf accuracy    <       0.00548942 Ry

     iteration # 15     ecut=    50.00 Ry     beta= 0.60
     Davidson diagonalization with overlap
     ethr =  8.56E-06,  avg # of iterations =  4.7

     total cpu time spent up to now is     1305.4 secs

     total energy              =    -470.44218346 Ry
     Harris-Foulkes estimate   =    -470.44293857 Ry
     estimated scf accuracy    <       0.00265576 Ry

     iteration # 16     ecut=    50.00 Ry     beta= 0.60
     Davidson diagonalization with overlap
     ethr =  5.21E-06,  avg # of iterations =  4.1

     total cpu time spent up to now is     1319.9 secs

     total energy              =    -470.44274966 Ry
     Harris-Foulkes estimate   =    -470.44275953 Ry
     estimated scf accuracy    <       0.00113314 Ry

     iteration # 17     ecut=    50.00 Ry     beta= 0.60
     Davidson diagonalization with overlap
     ethr =  2.22E-06,  avg # of iterations =  2.3

     total cpu time spent up to now is     1332.4 secs

     total energy              =    -470.44262290 Ry
     Harris-Foulkes estimate   =    -470.44275974 Ry
     estimated scf accuracy    <       0.00107375 Ry

     iteration # 18     ecut=    50.00 Ry     beta= 0.60
     Davidson diagonalization with overlap
     ethr =  2.11E-06,  avg # of iterations =  1.5

     total cpu time spent up to now is     1344.1 secs

     total energy              =    -470.44264147 Ry
     Harris-Foulkes estimate   =    -470.44266499 Ry
     estimated scf accuracy    <       0.00013430 Ry

     iteration # 19     ecut=    50.00 Ry     beta= 0.60
     Davidson diagonalization with overlap
     ethr =  2.63E-07,  avg # of iterations =  4.4

     total cpu time spent up to now is     1359.7 secs

     total energy              =    -470.44267292 Ry
     Harris-Foulkes estimate   =    -470.44267145 Ry
     estimated scf accuracy    <       0.00001696 Ry

     iteration # 20     ecut=    50.00 Ry     beta= 0.60
     Davidson diagonalization with overlap
     ethr =  3.33E-08,  avg # of iterations =  2.1

     total cpu time spent up to now is     1371.8 secs

     total energy              =    -470.44266574 Ry
     Harris-Foulkes estimate   =    -470.44267352 Ry
     estimated scf accuracy    <       0.00003361 Ry

     iteration # 21     ecut=    50.00 Ry     beta= 0.60
     Davidson diagonalization with overlap
     ethr =  3.33E-08,  avg # of iterations =  3.7

     total cpu time spent up to now is     1386.0 secs

     total energy              =    -470.44266970 Ry
     Harris-Foulkes estimate   =    -470.44267025 Ry
     estimated scf accuracy    <       0.00000257 Ry

     iteration # 22     ecut=    50.00 Ry     beta= 0.60
     Davidson diagonalization with overlap
     ethr =  5.03E-09,  avg # of iterations =  3.4

     total cpu time spent up to now is     1399.7 secs

     total energy              =    -470.44267004 Ry
     Harris-Foulkes estimate   =    -470.44267005 Ry
     estimated scf accuracy    <       0.00000002 Ry

     iteration # 23     ecut=    50.00 Ry     beta= 0.60
     Davidson diagonalization with overlap
     ethr =  3.64E-11,  avg # of iterations =  4.9

     total cpu time spent up to now is     1418.6 secs

     total energy              =    -470.44267007 Ry
     Harris-Foulkes estimate   =    -470.44267007 Ry
     estimated scf accuracy    <          2.9E-09 Ry

     iteration # 24     ecut=    50.00 Ry     beta= 0.60
     Davidson diagonalization with overlap
     ethr =  5.77E-12,  avg # of iterations =  4.0

     total cpu time spent up to now is     1433.5 secs

     total energy              =    -470.44267007 Ry
     Harris-Foulkes estimate   =    -470.44267007 Ry
     estimated scf accuracy    <          2.5E-09 Ry

     iteration # 25     ecut=    50.00 Ry     beta= 0.60
     Davidson diagonalization with overlap
     ethr =  4.84E-12,  avg # of iterations =  2.6

     total cpu time spent up to now is     1445.8 secs

     total energy              =    -470.44267007 Ry
     Harris-Foulkes estimate   =    -470.44267007 Ry
     estimated scf accuracy    <          7.4E-11 Ry

     iteration # 26     ecut=    50.00 Ry     beta= 0.60
     Davidson diagonalization with overlap
     ethr =  1.45E-13,  avg # of iterations =  4.4

     total cpu time spent up to now is     1462.5 secs

     total energy              =    -470.44267007 Ry
     Harris-Foulkes estimate   =    -470.44267007 Ry
     estimated scf accuracy    <          2.5E-11 Ry

     iteration # 27     ecut=    50.00 Ry     beta= 0.60
     Davidson diagonalization with overlap
     ethr =  1.00E-13,  avg # of iterations =  1.0

     total cpu time spent up to now is     1473.8 secs

     total energy              =    -470.44267007 Ry
     Harris-Foulkes estimate   =    -470.44267007 Ry
     estimated scf accuracy    <          1.1E-11 Ry

     iteration # 28     ecut=    50.00 Ry     beta= 0.60
     Davidson diagonalization with overlap
     ethr =  1.00E-13,  avg # of iterations =  1.0

     total cpu time spent up to now is     1485.2 secs

     total energy              =    -470.44267007 Ry
     Harris-Foulkes estimate   =    -470.44267007 Ry
     estimated scf accuracy    <          4.4E-12 Ry

     iteration # 29     ecut=    50.00 Ry     beta= 0.60
     Davidson diagonalization with overlap
     ethr =  1.00E-13,  avg # of iterations =  1.0

     total cpu time spent up to now is     1496.5 secs

     total energy              =    -470.44267007 Ry
     Harris-Foulkes estimate   =    -470.44267007 Ry
     estimated scf accuracy    <          1.3E-12 Ry

     iteration # 30     ecut=    50.00 Ry     beta= 0.60
     Davidson diagonalization with overlap
     ethr =  1.00E-13,  avg # of iterations =  1.0

     total cpu time spent up to now is     1507.7 secs

     End of self-consistent calculation

     Number of k-points >= 100: set verbosity='high' to print the bands.

     the Fermi energy is    17.4861 ev

!    total energy              =    -470.44267007 Ry
     Harris-Foulkes estimate   =    -470.44267007 Ry
     estimated scf accuracy    <          3.1E-14 Ry

     The total energy is the sum of the following terms:

     one-electron contribution =     -83.19206954 Ry
     hartree contribution      =      67.57119530 Ry
     xc contribution           =     -69.99923420 Ry
     ewald contribution        =    -384.82197055 Ry
     smearing contrib. (-TS)   =      -0.00059108 Ry

     convergence has been achieved in  30 iterations

     Forces acting on atoms (cartesian axes, Ry/au):

     atom    1 type  2   force =     0.00000000    0.00000000    0.00000000
     atom    2 type  1   force =     0.00000000    0.00000000    0.00000000
     atom    3 type  1   force =     0.00000000    0.00000000    0.00000000
     atom    4 type  1   force =     0.00000000    0.00000000    0.00000000

     Total force =     0.000000     Total SCF correction =     0.000000


     Computing stress (Cartesian axis) and pressure

          total   stress  (Ry/bohr**3)                   (kbar)     P=   49.68
   0.00033149   0.00000000   0.00000000         48.76      0.00      0.00
   0.00000000   0.00034080   0.00000000          0.00     50.13      0.00
   0.00000000   0.00000000   0.00034080          0.00      0.00     50.13


     number of scf cycles    =   3
     number of bfgs steps    =   2

     enthalpy old            =    -470.4258233325 Ry
     enthalpy new            =    -470.4426700730 Ry

     CASE: enthalpy_new < enthalpy_old

     new trust radius        =       0.0497049709 bohr
     new conv_thr            =            1.0E-12 Ry

     new unit-cell volume =    482.07830 a.u.^3 (    71.43663 Ang^3 )
     density =      7.59147 g/cm^3

CELL_PARAMETERS (alat=  1.88972599)
   0.000000000  -3.294789658   3.294789658
   0.000000000   3.294789658   3.294789658
  -3.290301482   0.000000000   0.000000000

ATOMIC_POSITIONS (angstrom)
Ti      -3.290301482   0.000000000   3.294789658
Nb      -1.645150741  -1.647394829   4.942184487
Nb      -3.290301482   0.000000000   6.589579316
Nb      -1.645150741   1.647394829   4.942184487


     NEW-OLD atomic charge density approx. for the potential
     extrapolated charge   52.68709, renormalised to   51.00000

     total cpu time spent up to now is     1516.3 secs

     Self-consistent Calculation

     iteration #  1     ecut=    50.00 Ry     beta= 0.60
     Davidson diagonalization with overlap
     ethr =  1.00E-06,  avg # of iterations = 12.5

     total cpu time spent up to now is     1551.6 secs

     total energy              =    -470.23663356 Ry
     Harris-Foulkes estimate   =    -468.37518495 Ry
     estimated scf accuracy    <       0.16466708 Ry

     iteration #  2     ecut=    50.00 Ry     beta= 0.60
     Davidson diagonalization with overlap
     ethr =  3.23E-04,  avg # of iterations =  6.1

     total cpu time spent up to now is     1575.9 secs

     total energy              =    -469.98484535 Ry
     Harris-Foulkes estimate   =    -470.91064288 Ry
     estimated scf accuracy    <       8.69580670 Ry

     iteration #  3     ecut=    50.00 Ry     beta= 0.60
     Davidson diagonalization with overlap
     ethr =  3.23E-04,  avg # of iterations =  5.2

     total cpu time spent up to now is     1595.8 secs

     total energy              =    -470.43491885 Ry
     Harris-Foulkes estimate   =    -470.48913088 Ry
     estimated scf accuracy    <       0.16062606 Ry

     iteration #  4     ecut=    50.00 Ry     beta= 0.60
     Davidson diagonalization with overlap
     ethr =  3.15E-04,  avg # of iterations =  2.4

     total cpu time spent up to now is     1608.5 secs

     total energy              =    -470.44885453 Ry
     Harris-Foulkes estimate   =    -470.45778204 Ry
     estimated scf accuracy    <       0.06653619 Ry

     iteration #  5     ecut=    50.00 Ry     beta= 0.60
     Davidson diagonalization with overlap
     ethr =  1.30E-04,  avg # of iterations =  1.9

     total cpu time spent up to now is     1620.4 secs

     total energy              =    -470.44655783 Ry
     Harris-Foulkes estimate   =    -470.45208724 Ry
     estimated scf accuracy    <       0.03074066 Ry

     iteration #  6     ecut=    50.00 Ry     beta= 0.60
     Davidson diagonalization with overlap
     ethr =  6.03E-05,  avg # of iterations =  2.8

     total cpu time spent up to now is     1633.0 secs

     total energy              =    -470.44701012 Ry
     Harris-Foulkes estimate   =    -470.44802092 Ry
     estimated scf accuracy    <       0.01835895 Ry

     iteration #  7     ecut=    50.00 Ry     beta= 0.60
     Davidson diagonalization with overlap
     ethr =  3.60E-05,  avg # of iterations =  1.5

     total cpu time spent up to now is     1644.6 secs

     total energy              =    -470.44553361 Ry
     Harris-Foulkes estimate   =    -470.44726059 Ry
     estimated scf accuracy    <       0.01405790 Ry

     iteration #  8     ecut=    50.00 Ry     beta= 0.60
     Davidson diagonalization with overlap
     ethr =  2.76E-05,  avg # of iterations =  1.2

     total cpu time spent up to now is     1656.0 secs

     total energy              =    -470.44514477 Ry
     Harris-Foulkes estimate   =    -470.44578513 Ry
     estimated scf accuracy    <       0.00697932 Ry

     iteration #  9     ecut=    50.00 Ry     beta= 0.60
     Davidson diagonalization with overlap
     ethr =  1.37E-05,  avg # of iterations =  2.7

     total cpu time spent up to now is     1668.6 secs

     total energy              =    -470.44463237 Ry
     Harris-Foulkes estimate   =    -470.44533898 Ry
     estimated scf accuracy    <       0.00355797 Ry

     iteration # 10     ecut=    50.00 Ry     beta= 0.60
     Davidson diagonalization with overlap
     ethr =  6.98E-06,  avg # of iterations =  4.3

     total cpu time spent up to now is     1683.0 secs

     total energy              =    -470.44500419 Ry
     Harris-Foulkes estimate   =    -470.44500288 Ry
     estimated scf accuracy    <       0.00007862 Ry

     iteration # 11     ecut=    50.00 Ry     beta= 0.60
     Davidson diagonalization with overlap
     ethr =  1.54E-07,  avg # of iterations =  5.0

     total cpu time spent up to now is     1701.2 secs

     total energy              =    -470.44501858 Ry
     Harris-Foulkes estimate   =    -470.44505017 Ry
     estimated scf accuracy    <       0.00025303 Ry

     iteration # 12     ecut=    50.00 Ry     beta= 0.60
     Davidson diagonalization with overlap
     ethr =  1.54E-07,  avg # of iterations =  3.4

     total cpu time spent up to now is     1714.3 secs

     total energy              =    -470.44502206 Ry
     Harris-Foulkes estimate   =    -470.44502642 Ry
     estimated scf accuracy    <       0.00005097 Ry

     iteration # 13     ecut=    50.00 Ry     beta= 0.60
     Davidson diagonalization with overlap
     ethr =  9.99E-08,  avg # of iterations =  2.5

     total cpu time spent up to now is     1726.7 secs

     total energy              =    -470.44502335 Ry
     Harris-Foulkes estimate   =    -470.44502469 Ry
     estimated scf accuracy    <       0.00001262 Ry

     iteration # 14     ecut=    50.00 Ry     beta= 0.60
     Davidson diagonalization with overlap
     ethr =  2.48E-08,  avg # of iterations =  3.4

     total cpu time spent up to now is     1740.3 secs

     total energy              =    -470.44502380 Ry
     Harris-Foulkes estimate   =    -470.44502440 Ry
     estimated scf accuracy    <       0.00000155 Ry

     iteration # 15     ecut=    50.00 Ry     beta= 0.60
     Davidson diagonalization with overlap
     ethr =  3.05E-09,  avg # of iterations =  4.2

     total cpu time spent up to now is     1756.5 secs

     total energy              =    -470.44502426 Ry
     Harris-Foulkes estimate   =    -470.44502456 Ry
     estimated scf accuracy    <       0.00000144 Ry

     iteration # 16     ecut=    50.00 Ry     beta= 0.60
     Davidson diagonalization with overlap
     ethr =  2.82E-09,  avg # of iterations =  1.9

     total cpu time spent up to now is     1768.4 secs

     total energy              =    -470.44502429 Ry
     Harris-Foulkes estimate   =    -470.44502434 Ry
     estimated scf accuracy    <       0.00000020 Ry

     iteration # 17     ecut=    50.00 Ry     beta= 0.60
     Davidson diagonalization with overlap
     ethr =  3.91E-10,  avg # of iterations =  4.1

     total cpu time spent up to now is     1784.5 secs

     total energy              =    -470.44502436 Ry
     Harris-Foulkes estimate   =    -470.44502440 Ry
     estimated scf accuracy    <       0.00000017 Ry

     iteration # 18     ecut=    50.00 Ry     beta= 0.60
     Davidson diagonalization with overlap
     ethr =  3.42E-10,  avg # of iterations =  2.6

     total cpu time spent up to now is     1797.0 secs

     total energy              =    -470.44502437 Ry
     Harris-Foulkes estimate   =    -470.44502437 Ry
     estimated scf accuracy    <       0.00000002 Ry

     iteration # 19     ecut=    50.00 Ry     beta= 0.60
     Davidson diagonalization with overlap
     ethr =  3.75E-11,  avg # of iterations =  3.9

     total cpu time spent up to now is     1812.7 secs

     total energy              =    -470.44502438 Ry
     Harris-Foulkes estimate   =    -470.44502438 Ry
     estimated scf accuracy    <          3.0E-09 Ry

     iteration # 20     ecut=    50.00 Ry     beta= 0.60
     Davidson diagonalization with overlap
     ethr =  5.81E-12,  avg # of iterations =  1.9

     total cpu time spent up to now is     1824.5 secs

     total energy              =    -470.44502438 Ry
     Harris-Foulkes estimate   =    -470.44502438 Ry
     estimated scf accuracy    <          3.4E-09 Ry

     iteration # 21     ecut=    50.00 Ry     beta= 0.60
     Davidson diagonalization with overlap
     ethr =  5.81E-12,  avg # of iterations =  3.1

     total cpu time spent up to now is     1838.4 secs

     total energy              =    -470.44502438 Ry
     Harris-Foulkes estimate   =    -470.44502438 Ry
     estimated scf accuracy    <          2.3E-11 Ry

     iteration # 22     ecut=    50.00 Ry     beta= 0.60
     Davidson diagonalization with overlap
     ethr =  1.00E-13,  avg # of iterations =  3.7

     total cpu time spent up to now is     1853.6 secs

     total energy              =    -470.44502438 Ry
     Harris-Foulkes estimate   =    -470.44502438 Ry
     estimated scf accuracy    <          4.0E-11 Ry

     iteration # 23     ecut=    50.00 Ry     beta= 0.60
     Davidson diagonalization with overlap
     ethr =  1.00E-13,  avg # of iterations =  1.0

     total cpu time spent up to now is     1864.8 secs

     total energy              =    -470.44502438 Ry
     Harris-Foulkes estimate   =    -470.44502438 Ry
     estimated scf accuracy    <          4.0E-11 Ry

     iteration # 24     ecut=    50.00 Ry     beta= 0.60
     Davidson diagonalization with overlap
     ethr =  1.00E-13,  avg # of iterations =  2.0

     total cpu time spent up to now is     1876.7 secs

     total energy              =    -470.44502438 Ry
     Harris-Foulkes estimate   =    -470.44502438 Ry
     estimated scf accuracy    <          1.9E-12 Ry

     iteration # 25     ecut=    50.00 Ry     beta= 0.60
     Davidson diagonalization with overlap
     ethr =  1.00E-13,  avg # of iterations =  1.0

     total cpu time spent up to now is     1887.9 secs

     End of self-consistent calculation

     Number of k-points >= 100: set verbosity='high' to print the bands.

     the Fermi energy is    16.8039 ev

!    total energy              =    -470.44502438 Ry
     Harris-Foulkes estimate   =    -470.44502438 Ry
     estimated scf accuracy    <          4.9E-13 Ry

     The total energy is the sum of the following terms:

     one-electron contribution =     -89.42322219 Ry
     hartree contribution      =      69.27502852 Ry
     xc contribution           =     -69.85276218 Ry
     ewald contribution        =    -380.44343578 Ry
     smearing contrib. (-TS)   =      -0.00063274 Ry

     convergence has been achieved in  25 iterations

     Forces acting on atoms (cartesian axes, Ry/au):

     atom    1 type  2   force =     0.00000000    0.00000000    0.00000000
     atom    2 type  1   force =     0.00000000    0.00000000    0.00000000
     atom    3 type  1   force =     0.00000000    0.00000000    0.00000000
     atom    4 type  1   force =     0.00000000    0.00000000    0.00000000

     Total force =     0.000000     Total SCF correction =     0.000000


     Computing stress (Cartesian axis) and pressure

          total   stress  (Ry/bohr**3)                   (kbar)     P=   -5.67
  -0.00004637   0.00000000   0.00000000         -6.82      0.00      0.00
   0.00000000  -0.00003463  -0.00000000          0.00     -5.09     -0.00
   0.00000000  -0.00000000  -0.00003463          0.00     -0.00     -5.09


     number of scf cycles    =   4
     number of bfgs steps    =   3

     enthalpy old            =    -470.4426700730 Ry
     enthalpy new            =    -470.4450243756 Ry

     CASE: enthalpy_new < enthalpy_old

     new trust radius        =       0.0060121657 bohr
     new conv_thr            =            1.0E-12 Ry

     new unit-cell volume =    480.36028 a.u.^3 (    71.18205 Ang^3 )
     density =      7.61862 g/cm^3

CELL_PARAMETERS (alat=  1.88972599)
   0.000000000  -3.291167229   3.291167229
   0.000000000   3.291167229   3.291167229
  -3.285796658   0.000000000   0.000000000

ATOMIC_POSITIONS (angstrom)
Ti      -3.285796658   0.000000000   3.291167229
Nb      -1.642898329  -1.645583615   4.936750844
Nb      -3.285796658   0.000000000   6.582334458
Nb      -1.642898329   1.645583615   4.936750844


     NEW-OLD atomic charge density approx. for the potential
     extrapolated charge   50.82120, renormalised to   51.00000

     total cpu time spent up to now is     1896.4 secs

     Self-consistent Calculation

     iteration #  1     ecut=    50.00 Ry     beta= 0.60
     Davidson diagonalization with overlap
     ethr =  1.00E-06,  avg # of iterations =  5.4

     total cpu time spent up to now is     1918.4 secs

     total energy              =    -470.44163235 Ry
     Harris-Foulkes estimate   =    -470.66625015 Ry
     estimated scf accuracy    <       0.00302979 Ry

     iteration #  2     ecut=    50.00 Ry     beta= 0.60
     Davidson diagonalization with overlap
     c_bands:  1 eigenvalues not converged
     c_bands:  1 eigenvalues not converged
     c_bands:  1 eigenvalues not converged
     c_bands:  1 eigenvalues not converged
     c_bands:  1 eigenvalues not converged
     c_bands:  1 eigenvalues not converged
     ethr =  5.94E-06,  avg # of iterations =  7.4

     total cpu time spent up to now is     1943.2 secs

     total energy              =    -470.44037671 Ry
     Harris-Foulkes estimate   =    -470.45230656 Ry
     estimated scf accuracy    <       0.07444010 Ry

     iteration #  3     ecut=    50.00 Ry     beta= 0.60
     Davidson diagonalization with overlap
     ethr =  5.94E-06,  avg # of iterations =  5.5

     total cpu time spent up to now is     1963.8 secs

     total energy              =    -470.44495489 Ry
     Harris-Foulkes estimate   =    -470.44569474 Ry
     estimated scf accuracy    <       0.00222097 Ry

     iteration #  4     ecut=    50.00 Ry     beta= 0.60
     Davidson diagonalization with overlap
     ethr =  4.35E-06,  avg # of iterations =  3.1

     total cpu time spent up to now is     1977.5 secs

     total energy              =    -470.44511976 Ry
     Harris-Foulkes estimate   =    -470.44532505 Ry
     estimated scf accuracy    <       0.00186517 Ry

     iteration #  5     ecut=    50.00 Ry     beta= 0.60
     Davidson diagonalization with overlap
     ethr =  3.66E-06,  avg # of iterations =  1.0

     total cpu time spent up to now is     1988.8 secs

     total energy              =    -470.44502752 Ry
     Harris-Foulkes estimate   =    -470.44517517 Ry
     estimated scf accuracy    <       0.00084862 Ry

     iteration #  6     ecut=    50.00 Ry     beta= 0.60
     Davidson diagonalization with overlap
     ethr =  1.66E-06,  avg # of iterations =  2.3

     total cpu time spent up to now is     2001.4 secs

     total energy              =    -470.44504729 Ry
     Harris-Foulkes estimate   =    -470.44507417 Ry
     estimated scf accuracy    <       0.00016487 Ry

     iteration #  7     ecut=    50.00 Ry     beta= 0.60
     Davidson diagonalization with overlap
     ethr =  3.23E-07,  avg # of iterations =  3.5

     total cpu time spent up to now is     2015.5 secs

     total energy              =    -470.44506937 Ry
     Harris-Foulkes estimate   =    -470.44506567 Ry
     estimated scf accuracy    <       0.00003445 Ry

     iteration #  8     ecut=    50.00 Ry     beta= 0.60
     Davidson diagonalization with overlap
     ethr =  6.76E-08,  avg # of iterations =  2.3

     total cpu time spent up to now is     2027.7 secs

     total energy              =    -470.44506755 Ry
     Harris-Foulkes estimate   =    -470.44507143 Ry
     estimated scf accuracy    <       0.00005572 Ry

     iteration #  9     ecut=    50.00 Ry     beta= 0.60
     Davidson diagonalization with overlap
     ethr =  6.76E-08,  avg # of iterations =  1.0

     total cpu time spent up to now is     2039.0 secs

     total energy              =    -470.44506026 Ry
     Harris-Foulkes estimate   =    -470.44506791 Ry
     estimated scf accuracy    <       0.00004366 Ry

     iteration # 10     ecut=    50.00 Ry     beta= 0.60
     Davidson diagonalization with overlap
     ethr =  6.76E-08,  avg # of iterations =  2.4

     total cpu time spent up to now is     2051.5 secs

     total energy              =    -470.44505780 Ry
     Harris-Foulkes estimate   =    -470.44506249 Ry
     estimated scf accuracy    <       0.00002519 Ry

     iteration # 11     ecut=    50.00 Ry     beta= 0.60
     Davidson diagonalization with overlap
     ethr =  4.94E-08,  avg # of iterations =  3.1

     total cpu time spent up to now is     2064.5 secs

     total energy              =    -470.44505967 Ry
     Harris-Foulkes estimate   =    -470.44505970 Ry
     estimated scf accuracy    <       0.00000164 Ry

     iteration # 12     ecut=    50.00 Ry     beta= 0.60
     Davidson diagonalization with overlap
     ethr =  3.22E-09,  avg # of iterations =  3.9

     total cpu time spent up to now is     2080.1 secs

     total energy              =    -470.44505951 Ry
     Harris-Foulkes estimate   =    -470.44506000 Ry
     estimated scf accuracy    <       0.00000180 Ry

     iteration # 13     ecut=    50.00 Ry     beta= 0.60
     Davidson diagonalization with overlap
     ethr =  3.22E-09,  avg # of iterations =  3.1

     total cpu time spent up to now is     2094.1 secs

     total energy              =    -470.44505976 Ry
     Harris-Foulkes estimate   =    -470.44505981 Ry
     estimated scf accuracy    <       0.00000019 Ry

     iteration # 14     ecut=    50.00 Ry     beta= 0.60
     Davidson diagonalization with overlap
     ethr =  3.77E-10,  avg # of iterations =  3.3

     total cpu time spent up to now is     2108.5 secs

     total energy              =    -470.44505979 Ry
     Harris-Foulkes estimate   =    -470.44505979 Ry
     estimated scf accuracy    <       0.00000003 Ry

     iteration # 15     ecut=    50.00 Ry     beta= 0.60
     Davidson diagonalization with overlap
     ethr =  6.65E-11,  avg # of iterations =  2.6

     total cpu time spent up to now is     2121.6 secs

     total energy              =    -470.44505979 Ry
     Harris-Foulkes estimate   =    -470.44505979 Ry
     estimated scf accuracy    <       0.00000001 Ry

     iteration # 16     ecut=    50.00 Ry     beta= 0.60
     Davidson diagonalization with overlap
     ethr =  2.04E-11,  avg # of iterations =  2.8

     total cpu time spent up to now is     2134.4 secs

     total energy              =    -470.44505979 Ry
     Harris-Foulkes estimate   =    -470.44505979 Ry
     estimated scf accuracy    <          4.5E-09 Ry

     iteration # 17     ecut=    50.00 Ry     beta= 0.60
     Davidson diagonalization with overlap
     ethr =  8.92E-12,  avg # of iterations =  3.3

     total cpu time spent up to now is     2148.0 secs

     total energy              =    -470.44505979 Ry
     Harris-Foulkes estimate   =    -470.44505979 Ry
     estimated scf accuracy    <          4.0E-10 Ry

     iteration # 18     ecut=    50.00 Ry     beta= 0.60
     Davidson diagonalization with overlap
     ethr =  7.87E-13,  avg # of iterations =  3.2

     total cpu time spent up to now is     2162.0 secs

     total energy              =    -470.44505979 Ry
     Harris-Foulkes estimate   =    -470.44505979 Ry
     estimated scf accuracy    <          2.6E-10 Ry

     iteration # 19     ecut=    50.00 Ry     beta= 0.60
     Davidson diagonalization with overlap
     ethr =  5.02E-13,  avg # of iterations =  1.7

     total cpu time spent up to now is     2173.8 secs

     total energy              =    -470.44505979 Ry
     Harris-Foulkes estimate   =    -470.44505979 Ry
     estimated scf accuracy    <          1.5E-10 Ry

     iteration # 20     ecut=    50.00 Ry     beta= 0.60
     Davidson diagonalization with overlap
     ethr =  2.88E-13,  avg # of iterations =  3.0

     total cpu time spent up to now is     2186.9 secs

     total energy              =    -470.44505979 Ry
     Harris-Foulkes estimate   =    -470.44505979 Ry
     estimated scf accuracy    <          2.0E-11 Ry

     iteration # 21     ecut=    50.00 Ry     beta= 0.60
     Davidson diagonalization with overlap
     ethr =  1.00E-13,  avg # of iterations =  3.0

     total cpu time spent up to now is     2200.5 secs

     total energy              =    -470.44505979 Ry
     Harris-Foulkes estimate   =    -470.44505979 Ry
     estimated scf accuracy    <          5.4E-12 Ry

     iteration # 22     ecut=    50.00 Ry     beta= 0.60
     Davidson diagonalization with overlap
     ethr =  1.00E-13,  avg # of iterations =  1.0

     total cpu time spent up to now is     2211.7 secs

     End of self-consistent calculation

     Number of k-points >= 100: set verbosity='high' to print the bands.

     the Fermi energy is    16.8738 ev

!    total energy              =    -470.44505979 Ry
     Harris-Foulkes estimate   =    -470.44505979 Ry
     estimated scf accuracy    <          1.3E-13 Ry

     The total energy is the sum of the following terms:

     one-electron contribution =     -88.77741355 Ry
     hartree contribution      =      69.09714140 Ry
     xc contribution           =     -69.86773455 Ry
     ewald contribution        =    -380.89642262 Ry
     smearing contrib. (-TS)   =      -0.00063046 Ry

     convergence has been achieved in  22 iterations

     Forces acting on atoms (cartesian axes, Ry/au):

     atom    1 type  2   force =     0.00000000    0.00000000    0.00000000
     atom    2 type  1   force =     0.00000000    0.00000000    0.00000000
     atom    3 type  1   force =     0.00000000    0.00000000    0.00000000
     atom    4 type  1   force =     0.00000000    0.00000000    0.00000000

     Total force =     0.000000     Total SCF correction =     0.000000


     Computing stress (Cartesian axis) and pressure

          total   stress  (Ry/bohr**3)                   (kbar)     P=   -0.22
  -0.00000815   0.00000000   0.00000000         -1.20      0.00      0.00
   0.00000000   0.00000186   0.00000000          0.00      0.27      0.00
   0.00000000   0.00000000   0.00000186          0.00      0.00      0.27


     number of scf cycles    =   5
     number of bfgs steps    =   4

     enthalpy old            =    -470.4450243756 Ry
     enthalpy new            =    -470.4450597899 Ry

     CASE: enthalpy_new < enthalpy_old

     new trust radius        =       0.0009971264 bohr
     new conv_thr            =            1.0E-12 Ry

     new unit-cell volume =    480.27246 a.u.^3 (    71.16904 Ang^3 )
     density =      7.62001 g/cm^3

CELL_PARAMETERS (alat=  1.88972599)
   0.000000000  -3.291240752   3.291240752
   0.000000000   3.291240752   3.291240752
  -3.285049216   0.000000000   0.000000000

ATOMIC_POSITIONS (angstrom)
Ti      -3.285049216   0.000000000   3.291240752
Nb      -1.642524608  -1.645620376   4.936861128
Nb      -3.285049216   0.000000000   6.582481504
Nb      -1.642524608   1.645620376   4.936861128


     NEW-OLD atomic charge density approx. for the potential
     extrapolated charge   50.99086, renormalised to   51.00000

     total cpu time spent up to now is     2220.1 secs

     Self-consistent Calculation

     iteration #  1     ecut=    50.00 Ry     beta= 0.60
     Davidson diagonalization with overlap
     ethr =  1.00E-06,  avg # of iterations =  2.0

     Threshold (ethr) on eigenvalues was too large:
     Diagonalizing with lowered threshold

     Davidson diagonalization with overlap
     ethr =  1.15E-08,  avg # of iterations =  1.6

     total cpu time spent up to now is     2247.2 secs

     total energy              =    -470.44505295 Ry
     Harris-Foulkes estimate   =    -470.45634629 Ry
     estimated scf accuracy    <       0.00000652 Ry

     iteration #  2     ecut=    50.00 Ry     beta= 0.60
     Davidson diagonalization with overlap
     ethr =  1.28E-08,  avg # of iterations =  5.0

     total cpu time spent up to now is     2268.6 secs

     total energy              =    -470.44504921 Ry
     Harris-Foulkes estimate   =    -470.44507587 Ry
     estimated scf accuracy    <       0.00017798 Ry

     iteration #  3     ecut=    50.00 Ry     beta= 0.60
     Davidson diagonalization with overlap
     ethr =  1.28E-08,  avg # of iterations =  4.6

     total cpu time spent up to now is     2286.1 secs

     total energy              =    -470.44506032 Ry
     Harris-Foulkes estimate   =    -470.44506203 Ry
     estimated scf accuracy    <       0.00000479 Ry

     iteration #  4     ecut=    50.00 Ry     beta= 0.60
     Davidson diagonalization with overlap
     ethr =  9.39E-09,  avg # of iterations =  3.0

     total cpu time spent up to now is     2299.8 secs

     total energy              =    -470.44506073 Ry
     Harris-Foulkes estimate   =    -470.44506112 Ry
     estimated scf accuracy    <       0.00000339 Ry

     iteration #  5     ecut=    50.00 Ry     beta= 0.60
     Davidson diagonalization with overlap
     ethr =  6.65E-09,  avg # of iterations =  1.0

     total cpu time spent up to now is     2311.1 secs

     total energy              =    -470.44506046 Ry
     Harris-Foulkes estimate   =    -470.44506084 Ry
     estimated scf accuracy    <       0.00000167 Ry

     iteration #  6     ecut=    50.00 Ry     beta= 0.60
     Davidson diagonalization with overlap
     ethr =  3.27E-09,  avg # of iterations =  2.7

     total cpu time spent up to now is     2324.2 secs

     total energy              =    -470.44506057 Ry
     Harris-Foulkes estimate   =    -470.44506061 Ry
     estimated scf accuracy    <       0.00000029 Ry

     iteration #  7     ecut=    50.00 Ry     beta= 0.60
     Davidson diagonalization with overlap
     ethr =  5.68E-10,  avg # of iterations =  2.8

     total cpu time spent up to now is     2337.0 secs

     total energy              =    -470.44506059 Ry
     Harris-Foulkes estimate   =    -470.44506059 Ry
     estimated scf accuracy    <       0.00000010 Ry

     iteration #  8     ecut=    50.00 Ry     beta= 0.60
     Davidson diagonalization with overlap
     ethr =  2.02E-10,  avg # of iterations =  2.5

     total cpu time spent up to now is     2349.4 secs

     total energy              =    -470.44506057 Ry
     Harris-Foulkes estimate   =    -470.44506059 Ry
     estimated scf accuracy    <       0.00000009 Ry

     iteration #  9     ecut=    50.00 Ry     beta= 0.60
     Davidson diagonalization with overlap
     ethr =  1.75E-10,  avg # of iterations =  3.3

     total cpu time spent up to now is     2363.2 secs

     total energy              =    -470.44506058 Ry
     Harris-Foulkes estimate   =    -470.44506058 Ry
     estimated scf accuracy    <       0.00000002 Ry

     iteration # 10     ecut=    50.00 Ry     beta= 0.60
     Davidson diagonalization with overlap
     ethr =  3.66E-11,  avg # of iterations =  3.8

     total cpu time spent up to now is     2377.4 secs

     total energy              =    -470.44506058 Ry
     Harris-Foulkes estimate   =    -470.44506058 Ry
     estimated scf accuracy    <          1.9E-09 Ry

     iteration # 11     ecut=    50.00 Ry     beta= 0.60
     Davidson diagonalization with overlap
     ethr =  3.63E-12,  avg # of iterations =  3.5

     total cpu time spent up to now is     2392.6 secs

     total energy              =    -470.44506058 Ry
     Harris-Foulkes estimate   =    -470.44506058 Ry
     estimated scf accuracy    <          1.2E-10 Ry

     iteration # 12     ecut=    50.00 Ry     beta= 0.60
     Davidson diagonalization with overlap
     ethr =  2.41E-13,  avg # of iterations =  4.0

     total cpu time spent up to now is     2408.7 secs

     total energy              =    -470.44506058 Ry
     Harris-Foulkes estimate   =    -470.44506058 Ry
     estimated scf accuracy    <          7.0E-11 Ry

     iteration # 13     ecut=    50.00 Ry     beta= 0.60
     Davidson diagonalization with overlap
     ethr =  1.37E-13,  avg # of iterations =  1.2

     total cpu time spent up to now is     2420.1 secs

     total energy              =    -470.44506058 Ry
     Harris-Foulkes estimate   =    -470.44506058 Ry
     estimated scf accuracy    <          1.4E-11 Ry

     iteration # 14     ecut=    50.00 Ry     beta= 0.60
     Davidson diagonalization with overlap
     ethr =  1.00E-13,  avg # of iterations =  1.7

     total cpu time spent up to now is     2432.0 secs

     total energy              =    -470.44506058 Ry
     Harris-Foulkes estimate   =    -470.44506058 Ry
     estimated scf accuracy    <          1.1E-12 Ry

     iteration # 15     ecut=    50.00 Ry     beta= 0.60
     Davidson diagonalization with overlap
     ethr =  1.00E-13,  avg # of iterations =  1.0

     total cpu time spent up to now is     2443.3 secs

     End of self-consistent calculation

     Number of k-points >= 100: set verbosity='high' to print the bands.

     the Fermi energy is    16.8774 ev

!    total energy              =    -470.44506058 Ry
     Harris-Foulkes estimate   =    -470.44506058 Ry
     estimated scf accuracy    <          2.6E-13 Ry

     The total energy is the sum of the following terms:

     one-electron contribution =     -88.74436667 Ry
     hartree contribution      =      69.08804823 Ry
     xc contribution           =     -69.86850326 Ry
     ewald contribution        =    -380.91960719 Ry
     smearing contrib. (-TS)   =      -0.00063169 Ry

     convergence has been achieved in  15 iterations

     Forces acting on atoms (cartesian axes, Ry/au):

     atom    1 type  2   force =     0.00000000    0.00000000    0.00000000
     atom    2 type  1   force =     0.00000000    0.00000000    0.00000000
     atom    3 type  1   force =     0.00000000    0.00000000    0.00000000
     atom    4 type  1   force =     0.00000000    0.00000000    0.00000000

     Total force =     0.000000     Total SCF correction =     0.000000


     Computing stress (Cartesian axis) and pressure

          total   stress  (Ry/bohr**3)                   (kbar)     P=    0.06
  -0.00000530   0.00000000   0.00000000         -0.78      0.00      0.00
   0.00000000   0.00000330   0.00000000          0.00      0.49      0.00
   0.00000000   0.00000000   0.00000330          0.00      0.00      0.49


     number of scf cycles    =   6
     number of bfgs steps    =   5

     enthalpy old            =    -470.4450597899 Ry
     enthalpy new            =    -470.4450605802 Ry

     CASE: enthalpy_new < enthalpy_old

     new trust radius        =       0.0010969883 bohr
     new conv_thr            =            1.0E-12 Ry

     new unit-cell volume =    480.23739 a.u.^3 (    71.16384 Ang^3 )
     density =      7.62057 g/cm^3

CELL_PARAMETERS (alat=  1.88972599)
   0.000000000  -3.291532496   3.291532496
   0.000000000   3.291532496   3.291532496
  -3.284227030   0.000000000   0.000000000

ATOMIC_POSITIONS (angstrom)
Ti      -3.284227030   0.000000000   3.291532496
Nb      -1.642113515  -1.645766248   4.937298745
Nb      -3.284227030   0.000000000   6.583064993
Nb      -1.642113515   1.645766248   4.937298745


     NEW-OLD atomic charge density approx. for the potential
     extrapolated charge   50.99635, renormalised to   51.00000

     total cpu time spent up to now is     2451.7 secs

     Self-consistent Calculation

     iteration #  1     ecut=    50.00 Ry     beta= 0.60
     Davidson diagonalization with overlap
     ethr =  1.00E-06,  avg # of iterations =  2.0

     Threshold (ethr) on eigenvalues was too large:
     Diagonalizing with lowered threshold

     Davidson diagonalization with overlap
     ethr =  1.96E-09,  avg # of iterations =  2.7

     total cpu time spent up to now is     2480.1 secs

     total energy              =    -470.44506006 Ry
     Harris-Foulkes estimate   =    -470.44956880 Ry
     estimated scf accuracy    <       0.00000117 Ry

     iteration #  2     ecut=    50.00 Ry     beta= 0.60
     Davidson diagonalization with overlap
     ethr =  2.29E-09,  avg # of iterations =  5.1

     total cpu time spent up to now is     2501.6 secs

     total energy              =    -470.44505921 Ry
     Harris-Foulkes estimate   =    -470.44506429 Ry
     estimated scf accuracy    <       0.00003465 Ry

     iteration #  3     ecut=    50.00 Ry     beta= 0.60
     Davidson diagonalization with overlap
[...]
   0.00000001   0.00000000   0.00000000          0.00      0.00      0.00
   0.00000000   0.00000003   0.00000000          0.00      0.00      0.00
   0.00000000   0.00000000   0.00000003          0.00      0.00      0.00


     bfgs converged in  11 scf cycles and  10 bfgs steps
     (criteria: energy <  1.0E-10 Ry, force <  1.0E-05Ry/Bohr, cell <  1.0E-03kbar)

     End of BFGS Geometry Optimization

     Final enthalpy =    -470.4450627072 Ry
Begin final coordinates
     new unit-cell volume =    480.29541 a.u.^3 (    71.17244 Ang^3 )
     density =      7.61965 g/cm^3

CELL_PARAMETERS (alat=  1.88972599)
   0.000000000  -3.292980364   3.292980364
   0.000000000   3.292980364   3.292980364
  -3.281736062   0.000000000   0.000000000

ATOMIC_POSITIONS (angstrom)
Ti      -3.281736062   0.000000000   3.292980364
Nb      -1.640868031  -1.646490182   4.939470546
Nb      -3.281736062   0.000000000   6.585960728
Nb      -1.640868031   1.646490182   4.939470546
End final coordinates



     A final scf calculation at the relaxed structure.
     The G-vectors are recalculated for the final unit cell
     Results may differ from those at the preceding step.
 
     Parallelization info
     --------------------
     sticks:   dense  smooth     PW     G-vecs:    dense   smooth      PW
     Min         770     306     93                22678     5739     964
     Max         772     308     94                22679     5740     965
     Sum        3085    1229    373                90713    22959    3859
 


     bravais-lattice index     =            0
     lattice parameter (alat)  =       1.8897  a.u.
     unit-cell volume          =     480.2954 (a.u.)^3
     number of atoms/cell      =            4
     number of atomic types    =            2
     number of electrons       =        51.00
     number of Kohn-Sham states=           31
     kinetic-energy cutoff     =      50.0000  Ry
     charge density cutoff     =     500.0000  Ry
     convergence threshold     =      1.0E-12
     mixing beta               =       0.6000
     number of iterations used =            8  plain     mixing
     Exchange-correlation      = SLA PW PBE PBE ( 1  4  3  4 0 0)

     celldm(1)=   1.889726  celldm(2)=   0.000000  celldm(3)=   0.000000
     celldm(4)=   0.000000  celldm(5)=   0.000000  celldm(6)=   0.000000

     crystal axes: (cart. coord. in units of alat)
               a(1) = (   0.000000  -3.292980   3.292980 )  
               a(2) = (   0.000000   3.292980   3.292980 )  
               a(3) = (  -3.281736   0.000000   0.000000 )  

     reciprocal axes: (cart. coord. in units 2 pi/alat)
               b(1) = (  0.000000 -0.151838  0.151838 )  
               b(2) = (  0.000000  0.151838  0.151838 )  
               b(3) = ( -0.304717  0.000000  0.000000 )  


     PseudoPot. # 1 for Nb read from file:
     ./Nb.pbe-nsp-van.UPF
     MD5 check sum: 0a22fc7fb0ba19a08ca5db297a5d2854
     Pseudo is Ultrasoft + core correction, Zval = 13.0
     Generated by new atomic code, or converted to UPF format
     Using radial grid of  887 points,  6 beta functions with: 
                l(1) =   0
                l(2) =   0
                l(3) =   1
                l(4) =   1
                l(5) =   2
                l(6) =   2
     Q(r) pseudized with  6 coefficients,  rinner =    1.000   1.000   1.000
                                                       1.000   1.000

     PseudoPot. # 2 for Ti read from file:
     ./Ti.pbe-sp-van_ak.UPF
     MD5 check sum: f98fea3e8887528921fefa5636a534ca
     Pseudo is Ultrasoft, Zval = 12.0
     Generated by new atomic code, or converted to UPF format
     Using radial grid of  851 points,  6 beta functions with: 
                l(1) =   0
                l(2) =   0
                l(3) =   1
                l(4) =   1
                l(5) =   2
                l(6) =   2
     Q(r) pseudized with  8 coefficients,  rinner =    1.000   1.000   1.000
                                                       1.000   1.000

     atomic species   valence    mass     pseudopotential
        Nb            13.00    92.90638     Nb( 1.00)
        Ti            12.00    47.86700     Ti( 1.00)

     16 Sym. Ops., with inversion, found



   Cartesian axes

     site n.     atom                  positions (alat units)
         1           Ti  tau(   1) = (  -3.2817363   0.0000000   3.2929806  )
         2           Nb  tau(   2) = (  -1.6408682  -1.6464903   4.9394709  )
         3           Nb  tau(   3) = (  -3.2817363   0.0000000   6.5859612  )
         4           Nb  tau(   4) = (  -1.6408682   1.6464903   4.9394709  )

     number of k points=   252  Marzari-Vanderbilt smearing, width (Ry)=  0.0200

     Number of k-points >= 100: set verbosity='high' to print them.

     Dense  grid:    90713 G-vectors     FFT dimensions: (  64,  64,  45)

     Smooth grid:    22959 G-vectors     FFT dimensions: (  40,  40,  27)

     Estimated max dynamical RAM per process >     172.11 MB

     Estimated total dynamical RAM >     688.44 MB

     Initial potential from superposition of free atoms

     starting charge   49.99176, renormalised to   51.00000
     Starting wfcs are   49 randomized atomic wfcs

     total cpu time spent up to now is     3436.4 secs

     Self-consistent Calculation

     iteration #  1     ecut=    50.00 Ry     beta= 0.60
     Davidson diagonalization with overlap
     ethr =  1.00E-06,  avg # of iterations = 10.6

     total cpu time spent up to now is     3464.5 secs

     total energy              =    -457.18128724 Ry
     Harris-Foulkes estimate   =    -472.01033037 Ry
     estimated scf accuracy    <      18.63784931 Ry

     iteration #  2     ecut=    50.00 Ry     beta= 0.60
     Davidson diagonalization with overlap
     ethr =  1.00E-02,  avg # of iterations =  5.4

     total cpu time spent up to now is     3481.9 secs

     total energy              =    -457.86751183 Ry
     Harris-Foulkes estimate   =    -489.89336185 Ry
     estimated scf accuracy    <     103.82513416 Ry

     iteration #  3     ecut=    50.00 Ry     beta= 0.60
     Davidson diagonalization with overlap
     ethr =  1.00E-02,  avg # of iterations =  4.3

     total cpu time spent up to now is     3495.8 secs

     total energy              =    -470.90001844 Ry
     Harris-Foulkes estimate   =    -472.13240620 Ry
     estimated scf accuracy    <       6.75664627 Ry

     iteration #  4     ecut=    50.00 Ry     beta= 0.60
     Davidson diagonalization with overlap
     ethr =  1.00E-02,  avg # of iterations =  2.0

     total cpu time spent up to now is     3504.5 secs

     total energy              =    -471.16504321 Ry
     Harris-Foulkes estimate   =    -471.26402649 Ry
     estimated scf accuracy    <       3.75854732 Ry

     iteration #  5     ecut=    50.00 Ry     beta= 0.60
     Davidson diagonalization with overlap
     ethr =  7.37E-03,  avg # of iterations =  1.1

     total cpu time spent up to now is     3512.5 secs

     total energy              =    -470.63969477 Ry
     Harris-Foulkes estimate   =    -471.19682242 Ry
     estimated scf accuracy    <       3.53051136 Ry

     iteration #  6     ecut=    50.00 Ry     beta= 0.60
     Davidson diagonalization with overlap
     ethr =  6.92E-03,  avg # of iterations =  1.0

     total cpu time spent up to now is     3520.6 secs

     total energy              =    -470.14053909 Ry
     Harris-Foulkes estimate   =    -470.69010055 Ry
     estimated scf accuracy    <       2.15479686 Ry

     iteration #  7     ecut=    50.00 Ry     beta= 0.60
     Davidson diagonalization with overlap
     ethr =  4.23E-03,  avg # of iterations =  3.5

     total cpu time spent up to now is     3531.7 secs

     total energy              =    -470.43154815 Ry
     Harris-Foulkes estimate   =    -470.46149578 Ry
     estimated scf accuracy    <       0.12873137 Ry

     iteration #  8     ecut=    50.00 Ry     beta= 0.60
     Davidson diagonalization with overlap
     ethr =  2.52E-04,  avg # of iterations =  3.1

     total cpu time spent up to now is     3542.5 secs

     total energy              =    -470.43951550 Ry
     Harris-Foulkes estimate   =    -470.45509754 Ry
     estimated scf accuracy    <       0.04215840 Ry

     iteration #  9     ecut=    50.00 Ry     beta= 0.60
     Davidson diagonalization with overlap
     ethr =  8.27E-05,  avg # of iterations =  3.7

     total cpu time spent up to now is     3553.7 secs

     total energy              =    -470.44126593 Ry
     Harris-Foulkes estimate   =    -470.44697858 Ry
     estimated scf accuracy    <       0.01147156 Ry

     iteration # 10     ecut=    50.00 Ry     beta= 0.60
     Davidson diagonalization with overlap
     ethr =  2.25E-05,  avg # of iterations =  7.1

     total cpu time spent up to now is     3571.3 secs

     total energy              =    -470.44180682 Ry
     Harris-Foulkes estimate   =    -470.46409692 Ry
     estimated scf accuracy    <       0.18666326 Ry

     iteration # 11     ecut=    50.00 Ry     beta= 0.60
     Davidson diagonalization with overlap
     ethr =  2.25E-05,  avg # of iterations =  6.0

     total cpu time spent up to now is     3586.3 secs

     total energy              =    -470.44480186 Ry
     Harris-Foulkes estimate   =    -470.44756217 Ry
     estimated scf accuracy    <       0.03354019 Ry

     iteration # 12     ecut=    50.00 Ry     beta= 0.60
     Davidson diagonalization with overlap
     ethr =  2.25E-05,  avg # of iterations =  1.1

     total cpu time spent up to now is     3594.3 secs

     total energy              =    -470.44444789 Ry
     Harris-Foulkes estimate   =    -470.44521019 Ry
     estimated scf accuracy    <       0.01442691 Ry

     iteration # 13     ecut=    50.00 Ry     beta= 0.60
     Davidson diagonalization with overlap
     ethr =  2.25E-05,  avg # of iterations =  2.1

     total cpu time spent up to now is     3603.0 secs

     total energy              =    -470.44318170 Ry
     Harris-Foulkes estimate   =    -470.44469555 Ry
     estimated scf accuracy    <       0.00779116 Ry

     iteration # 14     ecut=    50.00 Ry     beta= 0.60
     Davidson diagonalization with overlap
     ethr =  1.53E-05,  avg # of iterations =  5.8

     total cpu time spent up to now is     3615.8 secs

     total energy              =    -470.44474408 Ry
     Harris-Foulkes estimate   =    -470.44478340 Ry
     estimated scf accuracy    <       0.00252490 Ry

     iteration # 15     ecut=    50.00 Ry     beta= 0.60
     Davidson diagonalization with overlap
     ethr =  4.95E-06,  avg # of iterations =  2.2

     total cpu time spent up to now is     3624.6 secs

     total energy              =    -470.44422003 Ry
     Harris-Foulkes estimate   =    -470.44476014 Ry
     estimated scf accuracy    <       0.00241607 Ry

     iteration # 16     ecut=    50.00 Ry     beta= 0.60
     Davidson diagonalization with overlap
     ethr =  4.74E-06,  avg # of iterations =  3.7

     total cpu time spent up to now is     3634.7 secs

     total energy              =    -470.44446187 Ry
     Harris-Foulkes estimate   =    -470.44457615 Ry
     estimated scf accuracy    <       0.00028006 Ry

     iteration # 17     ecut=    50.00 Ry     beta= 0.60
     Davidson diagonalization with overlap
     ethr =  5.49E-07,  avg # of iterations =  4.3

     total cpu time spent up to now is     3646.4 secs

     total energy              =    -470.44452022 Ry
     Harris-Foulkes estimate   =    -470.44461703 Ry
     estimated scf accuracy    <       0.00063774 Ry

     iteration # 18     ecut=    50.00 Ry     beta= 0.60
     Davidson diagonalization with overlap
     ethr =  5.49E-07,  avg # of iterations =  3.3

     total cpu time spent up to now is     3656.0 secs

     total energy              =    -470.44455294 Ry
     Harris-Foulkes estimate   =    -470.44455599 Ry
     estimated scf accuracy    <       0.00002535 Ry

     iteration # 19     ecut=    50.00 Ry     beta= 0.60
     Davidson diagonalization with overlap
     ethr =  4.97E-08,  avg # of iterations =  4.2

     total cpu time spent up to now is     3667.4 secs

     total energy              =    -470.44456006 Ry
     Harris-Foulkes estimate   =    -470.44456007 Ry
     estimated scf accuracy    <       0.00000048 Ry

     iteration # 20     ecut=    50.00 Ry     beta= 0.60
     Davidson diagonalization with overlap
     ethr =  9.45E-10,  avg # of iterations =  4.6

     total cpu time spent up to now is     3679.3 secs

     total energy              =    -470.44456004 Ry
     Harris-Foulkes estimate   =    -470.44456026 Ry
     estimated scf accuracy    <       0.00000122 Ry

     iteration # 21     ecut=    50.00 Ry     beta= 0.60
     Davidson diagonalization with overlap
     ethr =  9.45E-10,  avg # of iterations =  3.4

     total cpu time spent up to now is     3689.8 secs

     total energy              =    -470.44456013 Ry
     Harris-Foulkes estimate   =    -470.44456012 Ry
     estimated scf accuracy    <       0.00000012 Ry

     iteration # 22     ecut=    50.00 Ry     beta= 0.60
     Davidson diagonalization with overlap
     ethr =  2.41E-10,  avg # of iterations =  1.2

     total cpu time spent up to now is     3697.9 secs

     total energy              =    -470.44456011 Ry
     Harris-Foulkes estimate   =    -470.44456013 Ry
     estimated scf accuracy    <       0.00000013 Ry

     iteration # 23     ecut=    50.00 Ry     beta= 0.60
     Davidson diagonalization with overlap
     ethr =  2.41E-10,  avg # of iterations =  1.4

     total cpu time spent up to now is     3706.2 secs

     total energy              =    -470.44456011 Ry
     Harris-Foulkes estimate   =    -470.44456011 Ry
     estimated scf accuracy    <       0.00000002 Ry

     iteration # 24     ecut=    50.00 Ry     beta= 0.60
     Davidson diagonalization with overlap
     ethr =  3.96E-11,  avg # of iterations =  4.0

     total cpu time spent up to now is     3717.0 secs

     total energy              =    -470.44456012 Ry
     Harris-Foulkes estimate   =    -470.44456012 Ry
     estimated scf accuracy    <          7.4E-10 Ry

     iteration # 25     ecut=    50.00 Ry     beta= 0.60
     Davidson diagonalization with overlap
     ethr =  1.46E-12,  avg # of iterations =  3.3

     total cpu time spent up to now is     3727.1 secs

     total energy              =    -470.44456012 Ry
     Harris-Foulkes estimate   =    -470.44456012 Ry
     estimated scf accuracy    <          7.4E-10 Ry

     iteration # 26     ecut=    50.00 Ry     beta= 0.60
     Davidson diagonalization with overlap
     ethr =  1.45E-12,  avg # of iterations =  1.7

     total cpu time spent up to now is     3735.4 secs

     total energy              =    -470.44456012 Ry
     Harris-Foulkes estimate   =    -470.44456012 Ry
     estimated scf accuracy    <          1.3E-09 Ry

     iteration # 27     ecut=    50.00 Ry     beta= 0.60
     Davidson diagonalization with overlap
     ethr =  1.45E-12,  avg # of iterations =  2.0

     total cpu time spent up to now is     3744.0 secs

     total energy              =    -470.44456012 Ry
     Harris-Foulkes estimate   =    -470.44456012 Ry
     estimated scf accuracy    <          1.9E-10 Ry

     iteration # 28     ecut=    50.00 Ry     beta= 0.60
     Davidson diagonalization with overlap
     ethr =  3.75E-13,  avg # of iterations =  3.8

     total cpu time spent up to now is     3754.8 secs

     total energy              =    -470.44456012 Ry
     Harris-Foulkes estimate   =    -470.44456012 Ry
     estimated scf accuracy    <          8.3E-12 Ry

     iteration # 29     ecut=    50.00 Ry     beta= 0.60
     Davidson diagonalization with overlap
     ethr =  1.00E-13,  avg # of iterations =  2.0

     total cpu time spent up to now is     3763.4 secs

     End of self-consistent calculation

     Number of k-points >= 100: set verbosity='high' to print the bands.

     the Fermi energy is    16.8767 ev

!    total energy              =    -470.44456012 Ry
     Harris-Foulkes estimate   =    -470.44456012 Ry
     estimated scf accuracy    <          7.4E-13 Ry

     The total energy is the sum of the following terms:

     one-electron contribution =     -88.75309891 Ry
     hartree contribution      =      69.09064715 Ry
     xc contribution           =     -69.86812190 Ry
     ewald contribution        =    -380.91334595 Ry
     smearing contrib. (-TS)   =      -0.00064050 Ry

     convergence has been achieved in  29 iterations

     Forces acting on atoms (cartesian axes, Ry/au):

     atom    1 type  2   force =     0.00000000    0.00000000    0.00000000
     atom    2 type  1   force =     0.00000000    0.00000000    0.00000000
     atom    3 type  1   force =     0.00000000    0.00000000    0.00000000
     atom    4 type  1   force =     0.00000000    0.00000000    0.00000000

     Total force =     0.000000     Total SCF correction =     0.000000


     Computing stress (Cartesian axis) and pressure

          total   stress  (Ry/bohr**3)                   (kbar)     P=   -1.34
  -0.00000912   0.00000000   0.00000000         -1.34      0.00      0.00
   0.00000000  -0.00000910  -0.00000000          0.00     -1.34     -0.00
   0.00000000  -0.00000000  -0.00000910          0.00     -0.00     -1.34

 
     init_run     :     12.38s CPU     13.11s WALL (       2 calls)
     electrons    :   3561.70s CPU   3658.16s WALL (      12 calls)
     update_pot   :     11.72s CPU     11.77s WALL (      10 calls)
     forces       :     21.59s CPU     22.58s WALL (      12 calls)
     stress       :     56.27s CPU     59.07s WALL (      12 calls)

     Called by init_run:
     wfcinit      :     10.81s CPU     11.44s WALL (       2 calls)
     potinit      :      0.43s CPU      0.44s WALL (       2 calls)
     hinit0       :      0.91s CPU      0.91s WALL (       2 calls)

     Called by electrons:
     c_bands      :   3015.77s CPU   3067.85s WALL (     255 calls)
     sum_band     :    506.34s CPU    532.07s WALL (     255 calls)
     v_of_rho     :      7.26s CPU      7.32s WALL (     261 calls)
     newd         :     32.56s CPU     51.34s WALL (     261 calls)
     mix_rho      :      1.05s CPU      1.06s WALL (     255 calls)

     Called by c_bands:
     init_us_2    :     59.76s CPU     59.50s WALL (  135072 calls)
     cegterg      :   2712.65s CPU   2759.19s WALL (   64260 calls)

     Called by sum_band:
     sum_band:bec :      1.11s CPU      1.24s WALL (   64260 calls)
     addusdens    :     37.38s CPU     54.08s WALL (     255 calls)

     Called by *egterg:
     h_psi        :   1896.17s CPU   1938.05s WALL (  267095 calls)
     s_psi        :     77.25s CPU     78.91s WALL (  267095 calls)
     g_psi        :     17.90s CPU     18.38s WALL (  202331 calls)
     cdiaghg      :    421.25s CPU    423.09s WALL (  262559 calls)

     Called by h_psi:
     h_psi:pot    :   1889.89s CPU   1931.80s WALL (  267095 calls)
     h_psi:calbec :     87.50s CPU     88.73s WALL (  267095 calls)
     vloc_psi     :   1721.16s CPU   1762.61s WALL (  267095 calls)
     add_vuspsi   :     80.38s CPU     79.23s WALL (  267095 calls)

     General routines
     calbec       :    127.79s CPU    129.33s WALL (  346475 calls)
     fft          :      4.85s CPU      4.94s WALL (    3697 calls)
     ffts         :      0.17s CPU      0.17s WALL (     516 calls)
     fftw         :   1898.13s CPU   1941.54s WALL (11961500 calls)
     interpolate  :      0.43s CPU      0.44s WALL (     261 calls)
 
     Parallel routines
     fft_scatt_xy :    309.80s CPU    316.00s WALL (11965713 calls)
     fft_scatt_yz :    467.95s CPU    494.30s WALL (11965713 calls)
 
     PWSCF        :     1h 1m CPU        1h 1m WALL

       2h
 
   This run was terminated on:  20:53:22  23Feb2020            

=------------------------------------------------------------------------------=
   JOB DONE.
=------------------------------------------------------------------------------=
