
     Program PWSCF v.6.0 (svn rev. 13079) starts on  4Mar2020 at 13:31:24 

     This program is part of the open-source Quantum ESPRESSO suite
     for quantum simulation of materials; please cite
         "P. Giannozzi et al., J. Phys.:Condens. Matter 21 395502 (2009);
          URL http://www.quantum-espresso.org", 
     in publications or presentations arising from this work. More details at
     http://www.quantum-espresso.org/quote

     Parallel version (MPI), running on     1 processors
     Waiting for input...
     Reading input from standard input

     Current dimensions of program PWSCF are:
     Max number of different atomic species (ntypx) = 10
     Max number of k-points (npk) =  40000
     Max angular momentum in pseudopotentials (lmaxx) =  3

     Subspace diagonalization in iterative solution of the eigenvalue problem:
     a serial algorithm will be used


     G-vector sticks info
     --------------------
     sticks:   dense  smooth     PW     G-vecs:    dense   smooth      PW
     Sum        1949     781    259               109279    27659    5417



     bravais-lattice index     =            0
     lattice parameter (alat)  =       1.8897  a.u.
     unit-cell volume          =     808.3427 (a.u.)^3
     number of atoms/cell      =            6
     number of atomic types    =            2
     number of electrons       =        76.00
     number of Kohn-Sham states=           46
     kinetic-energy cutoff     =      40.0000  Ry
     charge density cutoff     =     400.0000  Ry
     convergence threshold     =      1.0E-10
     mixing beta               =       0.6000
     number of iterations used =            8  plain     mixing
     Exchange-correlation      = SLA  PW   PBE  PBE ( 1  4  3  4 0 0)
     nstep                     =           50


     celldm(1)=   1.889726  celldm(2)=   0.000000  celldm(3)=   0.000000
     celldm(4)=   0.000000  celldm(5)=   0.000000  celldm(6)=   0.000000

     crystal axes: (cart. coord. in units of alat)
               a(1) = (  -3.045004   0.000000   4.972461 )  
               a(2) = (  -1.522502   2.637051   4.972461 )  
               a(3) = (  -4.567506   2.637051  -4.972461 )  

     reciprocal axes: (cart. coord. in units 2 pi/alat)
               b(1) = ( -0.218938 -0.252808  0.067036 )  
               b(2) = (  0.109469  0.316010  0.067036 )  
               b(3) = ( -0.109469  0.063202 -0.067036 )  


     PseudoPot. # 1 for Nb read from file:
     ./Nb.pbe-nsp-van.UPF
     MD5 check sum: 0a22fc7fb0ba19a08ca5db297a5d2854
     Pseudo is Ultrasoft + core correction, Zval = 13.0
     Generated by new atomic code, or converted to UPF format
     Using radial grid of  887 points,  6 beta functions with: 
                l(1) =   0
                l(2) =   0
                l(3) =   1
                l(4) =   1
                l(5) =   2
                l(6) =   2
     Q(r) pseudized with  6 coefficients,  rinner =    1.000   1.000   1.000
                                                       1.000   1.000

     PseudoPot. # 2 for Ti read from file:
     ./Ti.pbe-sp-van_ak.UPF
     MD5 check sum: f98fea3e8887528921fefa5636a534ca
     Pseudo is Ultrasoft, Zval = 12.0
     Generated by new atomic code, or converted to UPF format
     Using radial grid of  851 points,  6 beta functions with: 
                l(1) =   0
                l(2) =   0
                l(3) =   1
                l(4) =   1
                l(5) =   2
                l(6) =   2
     Q(r) pseudized with  8 coefficients,  rinner =    1.000   1.000   1.000
                                                       1.000   1.000

     atomic species   valence    mass     pseudopotential
        Nb            13.00    92.90638     Nb( 1.00)
        Ti            12.00    47.86700     Ti( 1.00)

      2 Sym. Ops. (no inversion) found



   Cartesian axes

     site n.     atom                  positions (alat units)
         1           Ti  tau(   1) = (  -4.5675063   2.6370512   0.0000000  )
         2           Ti  tau(   2) = (  -6.0900069   3.5160674   2.4862307  )
         3           Nb  tau(   3) = (  -4.5675063   2.6370512   4.9724614  )
         4           Nb  tau(   4) = (  -6.0900069   3.5160674   7.4586921  )
         5           Nb  tau(   5) = (  -9.1350127   5.2741024   4.9724614  )
         6           Nb  tau(   6) = (  -1.5225006   0.8790162   2.4862307  )

     number of k points=   398  Marzari-Vanderbilt smearing, width (Ry)=  0.0200

     Number of k-points >= 100: set verbosity='high' to print them.

     Dense  grid:   109279 G-vectors     FFT dimensions: (  72,  72,  90)

     Smooth grid:    27659 G-vectors     FFT dimensions: (  45,  45,  60)

     Estimated max dynamical RAM per process >    1070.09Mb

     Initial potential from superposition of free atoms

     starting charge   73.98898, renormalised to   76.00000
     Starting wfc are   72 randomized atomic wfcs

     total cpu time spent up to now is      245.9 secs

     per-process dynamical memory:  1085.5 Mb

     Self-consistent Calculation

     iteration #  1     ecut=    40.00 Ry     beta=0.60
     Davidson diagonalization with overlap
     ethr =  1.00E-02,  avg # of iterations =  3.1

     total cpu time spent up to now is      706.9 secs

     total energy              =    -630.42765137 Ry
     Harris-Foulkes estimate   =    -712.11425745 Ry
     estimated scf accuracy    <     100.63755090 Ry

     iteration #  2     ecut=    40.00 Ry     beta=0.60
     Davidson diagonalization with overlap
     ethr =  1.00E-02,  avg # of iterations =  8.6

     total cpu time spent up to now is     1807.2 secs

     total energy              =    -680.71828404 Ry
     Harris-Foulkes estimate   =    -859.09689028 Ry
     estimated scf accuracy    <     575.38703319 Ry

     iteration #  3     ecut=    40.00 Ry     beta=0.60
     Davidson diagonalization with overlap
     ethr =  1.00E-02,  avg # of iterations =  7.2

     total cpu time spent up to now is     2693.0 secs

     total energy              =    -710.44048893 Ry
     Harris-Foulkes estimate   =    -716.02582808 Ry
     estimated scf accuracy    <      45.44681493 Ry

     iteration #  4     ecut=    40.00 Ry     beta=0.60
     Davidson diagonalization with overlap
     ethr =  1.00E-02,  avg # of iterations =  2.3

     total cpu time spent up to now is     3043.2 secs

     total energy              =    -707.70499403 Ry
     Harris-Foulkes estimate   =    -712.42500377 Ry
     estimated scf accuracy    <      41.01184087 Ry

     iteration #  5     ecut=    40.00 Ry     beta=0.60
     Davidson diagonalization with overlap
     ethr =  1.00E-02,  avg # of iterations =  2.1

     total cpu time spent up to now is     3386.3 secs

     total energy              =    -707.08791513 Ry
     Harris-Foulkes estimate   =    -708.45866711 Ry
     estimated scf accuracy    <      20.56052465 Ry

     iteration #  6     ecut=    40.00 Ry     beta=0.60
     Davidson diagonalization with overlap
     ethr =  1.00E-02,  avg # of iterations =  1.0

     total cpu time spent up to now is     3714.3 secs

     total energy              =    -705.17340224 Ry
     Harris-Foulkes estimate   =    -707.16994401 Ry
     estimated scf accuracy    <      16.37898973 Ry

     iteration #  7     ecut=    40.00 Ry     beta=0.60
     Davidson diagonalization with overlap
     ethr =  1.00E-02,  avg # of iterations =  2.3

     total cpu time spent up to now is     4053.2 secs

     total energy              =    -705.33593212 Ry
     Harris-Foulkes estimate   =    -705.44786373 Ry
     estimated scf accuracy    <       7.76039035 Ry

     iteration #  8     ecut=    40.00 Ry     beta=0.60
     Davidson diagonalization with overlap
     ethr =  1.00E-02,  avg # of iterations =  1.1

     total cpu time spent up to now is     4381.4 secs

     total energy              =    -705.38521150 Ry
     Harris-Foulkes estimate   =    -705.39947972 Ry
     estimated scf accuracy    <       6.94541225 Ry

     iteration #  9     ecut=    40.00 Ry     beta=0.60
     Davidson diagonalization with overlap
     ethr =  9.14E-03,  avg # of iterations =  1.0

     total cpu time spent up to now is     4708.7 secs

     total energy              =    -705.48069677 Ry
     Harris-Foulkes estimate   =    -705.41419602 Ry
     estimated scf accuracy    <       6.24442748 Ry

     iteration # 10     ecut=    40.00 Ry     beta=0.60
     Davidson diagonalization with overlap
     ethr =  8.22E-03,  avg # of iterations =  1.0

     total cpu time spent up to now is     5036.2 secs

     total energy              =    -703.39869389 Ry
     Harris-Foulkes estimate   =    -705.49450975 Ry
     estimated scf accuracy    <       6.24752497 Ry

     iteration # 11     ecut=    40.00 Ry     beta=0.60
     Davidson diagonalization with overlap
     ethr =  8.22E-03,  avg # of iterations =  5.0

     total cpu time spent up to now is     5588.5 secs

     total energy              =    -702.74728355 Ry
     Harris-Foulkes estimate   =    -707.47000324 Ry
     estimated scf accuracy    <      64.10268927 Ry

     iteration # 12     ecut=    40.00 Ry     beta=0.60
     Davidson diagonalization with overlap
     ethr =  8.22E-03,  avg # of iterations =  3.4

     total cpu time spent up to now is     5953.1 secs

     total energy              =    -704.82123005 Ry
     Harris-Foulkes estimate   =    -704.91194155 Ry
     estimated scf accuracy    <       1.00848264 Ry

     iteration # 13     ecut=    40.00 Ry     beta=0.60
     Davidson diagonalization with overlap
     ethr =  1.33E-03,  avg # of iterations =  5.6

     total cpu time spent up to now is     6428.5 secs

     total energy              =    -704.94887342 Ry
     Harris-Foulkes estimate   =    -704.95500726 Ry
     estimated scf accuracy    <       0.22685273 Ry

     iteration # 14     ecut=    40.00 Ry     beta=0.60
     Davidson diagonalization with overlap
     ethr =  2.98E-04,  avg # of iterations =  2.9

     total cpu time spent up to now is     6776.3 secs

     total energy              =    -704.98045688 Ry
     Harris-Foulkes estimate   =    -704.95966541 Ry
     estimated scf accuracy    <       0.23495473 Ry

     iteration # 15     ecut=    40.00 Ry     beta=0.60
     Davidson diagonalization with overlap
     ethr =  2.98E-04,  avg # of iterations =  2.9

     total cpu time spent up to now is     7120.6 secs

     total energy              =    -704.92697797 Ry
     Harris-Foulkes estimate   =    -704.99792706 Ry
     estimated scf accuracy    <       0.54577362 Ry

     iteration # 16     ecut=    40.00 Ry     beta=0.60
     Davidson diagonalization with overlap
     ethr =  2.98E-04,  avg # of iterations =  2.9

     total cpu time spent up to now is     7464.0 secs

     total energy              =    -704.93834604 Ry
     Harris-Foulkes estimate   =    -704.95636236 Ry
     estimated scf accuracy    <       0.22590860 Ry

     iteration # 17     ecut=    40.00 Ry     beta=0.60
     Davidson diagonalization with overlap
     ethr =  2.97E-04,  avg # of iterations =  2.8

     total cpu time spent up to now is     7814.2 secs

     total energy              =    -704.97974835 Ry
     Harris-Foulkes estimate   =    -704.97176217 Ry
     estimated scf accuracy    <       0.57158843 Ry

     iteration # 18     ecut=    40.00 Ry     beta=0.60
     Davidson diagonalization with overlap
     ethr =  2.97E-04,  avg # of iterations =  4.4

     total cpu time spent up to now is     8281.0 secs

     total energy              =    -704.90751617 Ry
     Harris-Foulkes estimate   =    -705.06592782 Ry
     estimated scf accuracy    <       2.03843344 Ry

     iteration # 19     ecut=    40.00 Ry     beta=0.60
     Davidson diagonalization with overlap
     ethr =  2.97E-04,  avg # of iterations =  3.6

     total cpu time spent up to now is     8665.3 secs

     total energy              =    -704.91674229 Ry
     Harris-Foulkes estimate   =    -704.95303417 Ry
     estimated scf accuracy    <       0.63696277 Ry

     iteration # 20     ecut=    40.00 Ry     beta=0.60
     Davidson diagonalization with overlap
     ethr =  2.97E-04,  avg # of iterations =  2.1

     total cpu time spent up to now is     8999.9 secs

     total energy              =    -704.83202204 Ry
     Harris-Foulkes estimate   =    -704.92326000 Ry
     estimated scf accuracy    <       0.32472214 Ry

     iteration # 21     ecut=    40.00 Ry     beta=0.60
     Davidson diagonalization with overlap
     ethr =  2.97E-04,  avg # of iterations =  5.2

     total cpu time spent up to now is     9550.3 secs

     total energy              =    -704.85003769 Ry
     Harris-Foulkes estimate   =    -704.93633912 Ry
     estimated scf accuracy    <       0.76305470 Ry

     iteration # 22     ecut=    40.00 Ry     beta=0.60
     Davidson diagonalization with overlap
     ethr =  2.97E-04,  avg # of iterations =  4.0

     total cpu time spent up to now is     9928.1 secs

     total energy              =    -704.89654271 Ry
     Harris-Foulkes estimate   =    -704.89978353 Ry
     estimated scf accuracy    <       0.02985710 Ry

     iteration # 23     ecut=    40.00 Ry     beta=0.60
     Davidson diagonalization with overlap
     ethr =  3.93E-05,  avg # of iterations =  5.5

     total cpu time spent up to now is    10391.8 secs

     total energy              =    -704.89924140 Ry
     Harris-Foulkes estimate   =    -704.90136277 Ry
     estimated scf accuracy    <       0.02519145 Ry

     iteration # 24     ecut=    40.00 Ry     beta=0.60
     Davidson diagonalization with overlap
     ethr =  3.31E-05,  avg # of iterations =  1.1

     total cpu time spent up to now is    10720.5 secs

     total energy              =    -704.89947053 Ry
     Harris-Foulkes estimate   =    -704.89992797 Ry
     estimated scf accuracy    <       0.00697931 Ry

     iteration # 25     ecut=    40.00 Ry     beta=0.60
     Davidson diagonalization with overlap
     ethr =  9.18E-06,  avg # of iterations =  3.5

     total cpu time spent up to now is    11083.7 secs

     total energy              =    -704.89972657 Ry
     Harris-Foulkes estimate   =    -704.89989892 Ry
     estimated scf accuracy    <       0.00130412 Ry

     iteration # 26     ecut=    40.00 Ry     beta=0.60
     Davidson diagonalization with overlap
     ethr =  1.72E-06,  avg # of iterations =  5.4

     total cpu time spent up to now is    11553.8 secs

     total energy              =    -704.89991997 Ry
     Harris-Foulkes estimate   =    -704.89993503 Ry
     estimated scf accuracy    <       0.00036052 Ry

     iteration # 27     ecut=    40.00 Ry     beta=0.60
     Davidson diagonalization with overlap
     ethr =  4.74E-07,  avg # of iterations =  1.5

     total cpu time spent up to now is    11885.8 secs

     total energy              =    -704.89990721 Ry
     Harris-Foulkes estimate   =    -704.89993720 Ry
     estimated scf accuracy    <       0.00030714 Ry

     iteration # 28     ecut=    40.00 Ry     beta=0.60
     Davidson diagonalization with overlap
     ethr =  4.04E-07,  avg # of iterations =  1.0

     total cpu time spent up to now is    12213.4 secs

     total energy              =    -704.89991425 Ry
     Harris-Foulkes estimate   =    -704.89991763 Ry
     estimated scf accuracy    <       0.00006691 Ry

     iteration # 29     ecut=    40.00 Ry     beta=0.60
     Davidson diagonalization with overlap
     ethr =  8.80E-08,  avg # of iterations =  3.4

     total cpu time spent up to now is    12575.2 secs

     total energy              =    -704.89991607 Ry
     Harris-Foulkes estimate   =    -704.89991773 Ry
     estimated scf accuracy    <       0.00001258 Ry

     iteration # 30     ecut=    40.00 Ry     beta=0.60
     Davidson diagonalization with overlap
     ethr =  1.65E-08,  avg # of iterations =  4.1

     total cpu time spent up to now is    12990.3 secs

     total energy              =    -704.89991790 Ry
     Harris-Foulkes estimate   =    -704.89991811 Ry
     estimated scf accuracy    <       0.00000299 Ry

     iteration # 31     ecut=    40.00 Ry     beta=0.60
     Davidson diagonalization with overlap
     ethr =  3.94E-09,  avg # of iterations =  1.8

     total cpu time spent up to now is    13325.0 secs

     total energy              =    -704.89991788 Ry
     Harris-Foulkes estimate   =    -704.89991803 Ry
     estimated scf accuracy    <       0.00000128 Ry

     iteration # 32     ecut=    40.00 Ry     beta=0.60
     Davidson diagonalization with overlap
     ethr =  1.69E-09,  avg # of iterations =  2.9

     total cpu time spent up to now is    13677.9 secs

     total energy              =    -704.89991795 Ry
     Harris-Foulkes estimate   =    -704.89991796 Ry
     estimated scf accuracy    <       0.00000012 Ry

     iteration # 33     ecut=    40.00 Ry     beta=0.60
     Davidson diagonalization with overlap
     ethr =  1.64E-10,  avg # of iterations =  4.0

     total cpu time spent up to now is    14099.2 secs

     total energy              =    -704.89991797 Ry
     Harris-Foulkes estimate   =    -704.89991797 Ry
     estimated scf accuracy    <          7.8E-09 Ry

     iteration # 34     ecut=    40.00 Ry     beta=0.60
     Davidson diagonalization with overlap
     ethr =  1.03E-11,  avg # of iterations =  3.8

     total cpu time spent up to now is    14529.5 secs

     total energy              =    -704.89991797 Ry
     Harris-Foulkes estimate   =    -704.89991797 Ry
     estimated scf accuracy    <          6.1E-09 Ry

     iteration # 35     ecut=    40.00 Ry     beta=0.60
     Davidson diagonalization with overlap
     ethr =  8.02E-12,  avg # of iterations =  3.9

     total cpu time spent up to now is    14945.9 secs

     total energy              =    -704.89991797 Ry
     Harris-Foulkes estimate   =    -704.89991797 Ry
     estimated scf accuracy    <       0.00000002 Ry

     iteration # 36     ecut=    40.00 Ry     beta=0.60
     Davidson diagonalization with overlap
     ethr =  8.02E-12,  avg # of iterations =  2.2

     total cpu time spent up to now is    15281.1 secs

     total energy              =    -704.89991797 Ry
     Harris-Foulkes estimate   =    -704.89991797 Ry
     estimated scf accuracy    <          8.7E-10 Ry

     iteration # 37     ecut=    40.00 Ry     beta=0.60
     Davidson diagonalization with overlap
     ethr =  1.14E-12,  avg # of iterations =  4.4

     total cpu time spent up to now is    15735.8 secs

     total energy              =    -704.89991797 Ry
     Harris-Foulkes estimate   =    -704.89991797 Ry
     estimated scf accuracy    <          9.8E-10 Ry

     iteration # 38     ecut=    40.00 Ry     beta=0.60
     Davidson diagonalization with overlap
     ethr =  1.14E-12,  avg # of iterations =  1.0

     total cpu time spent up to now is    16065.0 secs

     total energy              =    -704.89991797 Ry
     Harris-Foulkes estimate   =    -704.89991797 Ry
     estimated scf accuracy    <          2.2E-10 Ry

     iteration # 39     ecut=    40.00 Ry     beta=0.60
     Davidson diagonalization with overlap
     ethr =  2.95E-13,  avg # of iterations =  3.8

     total cpu time spent up to now is    16468.8 secs

     End of self-consistent calculation

     Number of k-points >= 100: set verbosity='high' to print the bands.

     the Fermi energy is    14.6595 ev

!    total energy              =    -704.89991797 Ry
     Harris-Foulkes estimate   =    -704.89991797 Ry
     estimated scf accuracy    <          7.4E-11 Ry

     The total energy is the sum of the following terms:

     one-electron contribution =    -177.93673364 Ry
     hartree contribution      =     117.70247181 Ry
     xc contribution           =    -102.16847768 Ry
     ewald contribution        =    -542.49360568 Ry
     smearing contrib. (-TS)   =      -0.00357279 Ry

     convergence has been achieved in  39 iterations

     Forces acting on atoms (Ry/au):

     atom    1 type  2   force =     0.00228162   -0.00131729   -0.00165404
     atom    2 type  2   force =    -0.00228166    0.00131732    0.00165399
     atom    3 type  1   force =    -0.00644262    0.00371965   -0.00647956
     atom    4 type  1   force =    -0.00232156    0.00134035   -0.00945792
     atom    5 type  1   force =     0.00232159   -0.00134037    0.00945801
     atom    6 type  1   force =     0.00644264   -0.00371966    0.00647951

     Total force =     0.020181     Total SCF correction =     0.000022


     entering subroutine stress ...

          total   stress  (Ry/bohr**3)                   (kbar)     P= -117.12
  -0.00087802  -0.00003744   0.00000989       -129.16     -5.51      1.45
  -0.00003744  -0.00092126  -0.00000571         -5.51   -135.52     -0.84
   0.00000989  -0.00000571  -0.00058914          1.45     -0.84    -86.66


     BFGS Geometry Optimization

     number of scf cycles    =   1
     number of bfgs steps    =   0

     enthalpy new            =    -704.8999179680 Ry

     new trust radius        =       0.1310733587 bohr
     new conv_thr            =            1.0E-10 Ry

     new unit-cell volume =    761.01380 a.u.^3 (   112.77061 Ang^3 )

CELL_PARAMETERS (alat=  1.88972599)
  -2.976935462   0.002140677   4.898471969
  -1.490321612   2.577031582   4.898471969
  -4.470944648   2.581301281  -4.900730142

ATOMIC_POSITIONS (angstrom)
Ti      -4.468534144   2.579909576  -0.002367438
Ti      -5.960185859   3.441115157   2.448467048
Nb      -4.471823407   2.581808633   4.894339787
Nb      -5.958978782   3.440418251   7.341898171
Nb      -8.936998257   5.159778720   4.901145449
Nb      -1.485951916   0.857914801   2.452489962


     NEW-OLD atomic charge density approx. for the potential

     Check: negative/imaginary core charge=   -0.000001    0.000000
     extrapolated charge   71.39848, renormalised to   76.00000

     total cpu time spent up to now is    16638.6 secs

     per-process dynamical memory:  1125.2 Mb

     Self-consistent Calculation

     iteration #  1     ecut=    40.00 Ry     beta=0.60
     Davidson diagonalization with overlap
     c_bands:  1 eigenvalues not converged
     c_bands:  1 eigenvalues not converged
     c_bands:  1 eigenvalues not converged
     c_bands:  1 eigenvalues not converged
     c_bands:  1 eigenvalues not converged
     c_bands:  1 eigenvalues not converged
     c_bands:  1 eigenvalues not converged
     c_bands:  1 eigenvalues not converged
     c_bands:  1 eigenvalues not converged
     c_bands:  1 eigenvalues not converged
     c_bands:  1 eigenvalues not converged
     c_bands:  1 eigenvalues not converged
     c_bands:  1 eigenvalues not converged
     c_bands:  1 eigenvalues not converged
     c_bands:  1 eigenvalues not converged
     c_bands:  1 eigenvalues not converged
     c_bands:  3 eigenvalues not converged
     c_bands:  1 eigenvalues not converged
     c_bands:  1 eigenvalues not converged
     c_bands:  1 eigenvalues not converged
     c_bands:  2 eigenvalues not converged
     c_bands:  1 eigenvalues not converged
     c_bands:  1 eigenvalues not converged
     c_bands:  1 eigenvalues not converged
     c_bands:  1 eigenvalues not converged
     c_bands:  1 eigenvalues not converged
     c_bands:  2 eigenvalues not converged
     c_bands:  1 eigenvalues not converged
     c_bands:  1 eigenvalues not converged
     c_bands:  1 eigenvalues not converged
     c_bands:  1 eigenvalues not converged
     c_bands:  1 eigenvalues not converged
     c_bands:  1 eigenvalues not converged
     c_bands:  1 eigenvalues not converged
     c_bands:  1 eigenvalues not converged
     c_bands:  1 eigenvalues not converged
     c_bands:  1 eigenvalues not converged
     c_bands:  1 eigenvalues not converged
     c_bands:  1 eigenvalues not converged
     c_bands:  1 eigenvalues not converged
     c_bands:  2 eigenvalues not converged
     c_bands:  1 eigenvalues not converged
     c_bands:  1 eigenvalues not converged
     c_bands:  1 eigenvalues not converged
     c_bands:  2 eigenvalues not converged
     c_bands:  1 eigenvalues not converged
     c_bands:  1 eigenvalues not converged
     c_bands:  1 eigenvalues not converged
     c_bands:  1 eigenvalues not converged
     c_bands:  1 eigenvalues not converged
     c_bands:  1 eigenvalues not converged
     c_bands:  1 eigenvalues not converged
     c_bands:  1 eigenvalues not converged
     c_bands:  1 eigenvalues not converged
     c_bands:  1 eigenvalues not converged
     c_bands:  1 eigenvalues not converged
     c_bands:  1 eigenvalues not converged
     c_bands:  1 eigenvalues not converged
     c_bands:  1 eigenvalues not converged
     c_bands:  1 eigenvalues not converged
     c_bands:  1 eigenvalues not converged
     c_bands:  1 eigenvalues not converged
     c_bands:  2 eigenvalues not converged
     c_bands:  1 eigenvalues not converged
     c_bands:  2 eigenvalues not converged
     c_bands:  1 eigenvalues not converged
     c_bands:  1 eigenvalues not converged
     c_bands:  1 eigenvalues not converged
     c_bands:  1 eigenvalues not converged
     c_bands:  1 eigenvalues not converged
     c_bands:  1 eigenvalues not converged
     c_bands:  1 eigenvalues not converged
     c_bands:  1 eigenvalues not converged
     c_bands:  1 eigenvalues not converged
     c_bands:  1 eigenvalues not converged
     c_bands:  1 eigenvalues not converged
     c_bands:  1 eigenvalues not converged
     c_bands:  1 eigenvalues not converged
     c_bands:  1 eigenvalues not converged
     c_bands:  1 eigenvalues not converged
     c_bands:  1 eigenvalues not converged
     c_bands:  1 eigenvalues not converged
     c_bands:  1 eigenvalues not converged
     c_bands:  1 eigenvalues not converged
     c_bands:  1 eigenvalues not converged
     c_bands:  1 eigenvalues not converged
     ethr =  1.00E-06,  avg # of iterations = 16.2

     total cpu time spent up to now is    18090.4 secs

     total energy              =    -701.93589125 Ry
     Harris-Foulkes estimate   =    -712.10130145 Ry
     estimated scf accuracy    <       2.91510134 Ry

     iteration #  2     ecut=    40.00 Ry     beta=0.60
     Davidson diagonalization with overlap
     ethr =  3.84E-03,  avg # of iterations =  6.2

     total cpu time spent up to now is    18812.5 secs

     total energy              =    -703.72189608 Ry
     Harris-Foulkes estimate   =    -709.97207888 Ry
     estimated scf accuracy    <      26.06370178 Ry

     iteration #  3     ecut=    40.00 Ry     beta=0.60
     Davidson diagonalization with overlap
     ethr =  3.84E-03,  avg # of iterations =  5.0

     total cpu time spent up to now is    19358.5 secs

     total energy              =    -704.98830446 Ry
     Harris-Foulkes estimate   =    -705.81700946 Ry
     estimated scf accuracy    <       2.68592062 Ry

     iteration #  4     ecut=    40.00 Ry     beta=0.60
     Davidson diagonalization with overlap
     ethr =  3.53E-03,  avg # of iterations =  2.0

     total cpu time spent up to now is    19710.7 secs

     total energy              =    -705.09449702 Ry
     Harris-Foulkes estimate   =    -705.27098400 Ry
     estimated scf accuracy    <       2.58143788 Ry

     iteration #  5     ecut=    40.00 Ry     beta=0.60
     Davidson diagonalization with overlap
     ethr =  3.40E-03,  avg # of iterations =  1.0

     total cpu time spent up to now is    20038.6 secs

     total energy              =    -704.80079915 Ry
     Harris-Foulkes estimate   =    -705.13953740 Ry
     estimated scf accuracy    <       1.68545052 Ry

     iteration #  6     ecut=    40.00 Ry     beta=0.60
     Davidson diagonalization with overlap
     ethr =  2.22E-03,  avg # of iterations =  2.8

     total cpu time spent up to now is    20383.8 secs

     total energy              =    -704.91872810 Ry
     Harris-Foulkes estimate   =    -704.91006009 Ry
     estimated scf accuracy    <       0.10451496 Ry

     iteration #  7     ecut=    40.00 Ry     beta=0.60
     Davidson diagonalization with overlap
     ethr =  1.38E-04,  avg # of iterations =  5.1

     total cpu time spent up to now is    20935.3 secs

     total energy              =    -704.95444729 Ry
     Harris-Foulkes estimate   =    -704.95623525 Ry
     estimated scf accuracy    <       0.11964885 Ry

     iteration #  8     ecut=    40.00 Ry     beta=0.60
     Davidson diagonalization with overlap
     ethr =  1.38E-04,  avg # of iterations =  1.0

     total cpu time spent up to now is    21263.3 secs

     total energy              =    -704.93751899 Ry
     Harris-Foulkes estimate   =    -704.95554807 Ry
     estimated scf accuracy    <       0.16629452 Ry

     iteration #  9     ecut=    40.00 Ry     beta=0.60
     Davidson diagonalization with overlap
     ethr =  1.38E-04,  avg # of iterations =  1.0

     total cpu time spent up to now is    68178.8 secs

     total energy              =    -704.92821701 Ry
     Harris-Foulkes estimate   =    -704.93945305 Ry
     estimated scf accuracy    <       0.07559124 Ry

     iteration # 10     ecut=    40.00 Ry     beta=0.60
     Davidson diagonalization with overlap
     ethr =  9.95E-05,  avg # of iterations =  1.7

     total cpu time spent up to now is    68512.9 secs

     total energy              =    -704.92302610 Ry
     Harris-Foulkes estimate   =    -704.93065425 Ry
     estimated scf accuracy    <       0.01796392 Ry

     iteration # 11     ecut=    40.00 Ry     beta=0.60
     Davidson diagonalization with overlap
     ethr =  2.36E-05,  avg # of iterations =  5.4

     total cpu time spent up to now is    69081.7 secs

     total energy              =    -704.92750478 Ry
     Harris-Foulkes estimate   =    -704.93090271 Ry
     estimated scf accuracy    <       0.03509564 Ry

     iteration # 12     ecut=    40.00 Ry     beta=0.60
     Davidson diagonalization with overlap
     ethr =  2.36E-05,  avg # of iterations =  1.0

     total cpu time spent up to now is    71425.5 secs

     total energy              =    -704.92815316 Ry
     Harris-Foulkes estimate   =    -704.92862128 Ry
     estimated scf accuracy    <       0.00323067 Ry

     iteration # 13     ecut=    40.00 Ry     beta=0.60
     Davidson diagonalization with overlap
     ethr =  4.25E-06,  avg # of iterations =  4.9

     total cpu time spent up to now is    71949.8 secs

     total energy              =    -704.92887477 Ry
     Harris-Foulkes estimate   =    -704.92918365 Ry
     estimated scf accuracy    <       0.00320350 Ry

     iteration # 14     ecut=    40.00 Ry     beta=0.60
     Davidson diagonalization with overlap
     ethr =  4.22E-06,  avg # of iterations =  1.0

     total cpu time spent up to now is    72283.8 secs

     total energy              =    -704.92895592 Ry
     Harris-Foulkes estimate   =    -704.92897641 Ry
     estimated scf accuracy    <       0.00028424 Ry

     iteration # 15     ecut=    40.00 Ry     beta=0.60
     Davidson diagonalization with overlap
     ethr =  3.74E-07,  avg # of iterations =  4.4

     total cpu time spent up to now is    72721.6 secs

     total energy              =    -704.92900795 Ry
     Harris-Foulkes estimate   =    -704.92901703 Ry
     estimated scf accuracy    <       0.00007585 Ry

     iteration # 16     ecut=    40.00 Ry     beta=0.60
     Davidson diagonalization with overlap
     ethr =  9.98E-08,  avg # of iterations =  1.6

     total cpu time spent up to now is    73069.0 secs

     total energy              =    -704.92901048 Ry
     Harris-Foulkes estimate   =    -704.92901247 Ry
     estimated scf accuracy    <       0.00001757 Ry

     iteration # 17     ecut=    40.00 Ry     beta=0.60
     Davidson diagonalization with overlap
     ethr =  2.31E-08,  avg # of iterations =  3.6

     total cpu time spent up to now is    73474.0 secs

     total energy              =    -704.92901225 Ry
     Harris-Foulkes estimate   =    -704.92901277 Ry
     estimated scf accuracy    <       0.00000368 Ry

     iteration # 18     ecut=    40.00 Ry     beta=0.60
     Davidson diagonalization with overlap
     ethr =  4.84E-09,  avg # of iterations =  3.5

     total cpu time spent up to now is    73893.0 secs

     total energy              =    -704.92901244 Ry
     Harris-Foulkes estimate   =    -704.92901290 Ry
     estimated scf accuracy    <       0.00000607 Ry

     iteration # 19     ecut=    40.00 Ry     beta=0.60
     Davidson diagonalization with overlap
     ethr =  4.84E-09,  avg # of iterations =  1.0

     total cpu time spent up to now is    74240.7 secs

     total energy              =    -704.92901234 Ry
     Harris-Foulkes estimate   =    -704.92901257 Ry
     estimated scf accuracy    <       0.00000249 Ry

     iteration # 20     ecut=    40.00 Ry     beta=0.60
     Davidson diagonalization with overlap
     ethr =  3.27E-09,  avg # of iterations =  2.6

     total cpu time spent up to now is    74612.3 secs

     total energy              =    -704.92901246 Ry
     Harris-Foulkes estimate   =    -704.92901250 Ry
     estimated scf accuracy    <       0.00000065 Ry

     iteration # 21     ecut=    40.00 Ry     beta=0.60
     Davidson diagonalization with overlap
     ethr =  8.59E-10,  avg # of iterations =  2.1

     total cpu time spent up to now is    74951.8 secs

     total energy              =    -704.92901247 Ry
     Harris-Foulkes estimate   =    -704.92901250 Ry
     estimated scf accuracy    <       0.00000044 Ry

     iteration # 22     ecut=    40.00 Ry     beta=0.60
     Davidson diagonalization with overlap
     ethr =  5.72E-10,  avg # of iterations =  1.0

     total cpu time spent up to now is    75279.1 secs

     total energy              =    -704.92901246 Ry
     Harris-Foulkes estimate   =    -704.92901248 Ry
     estimated scf accuracy    <       0.00000023 Ry

     iteration # 23     ecut=    40.00 Ry     beta=0.60
     Davidson diagonalization with overlap
     ethr =  3.09E-10,  avg # of iterations =  2.9

     total cpu time spent up to now is    75631.8 secs

     total energy              =    -704.92901247 Ry
     Harris-Foulkes estimate   =    -704.92901248 Ry
     estimated scf accuracy    <       0.00000002 Ry

     iteration # 24     ecut=    40.00 Ry     beta=0.60
     Davidson diagonalization with overlap
     ethr =  2.14E-11,  avg # of iterations =  4.2

     total cpu time spent up to now is    76070.6 secs

     total energy              =    -704.92901248 Ry
     Harris-Foulkes estimate   =    -704.92901248 Ry
     estimated scf accuracy    <          6.0E-09 Ry

     iteration # 25     ecut=    40.00 Ry     beta=0.60
     Davidson diagonalization with overlap
     ethr =  7.87E-12,  avg # of iterations =  1.4

     total cpu time spent up to now is    76401.1 secs

     total energy              =    -704.92901248 Ry
     Harris-Foulkes estimate   =    -704.92901248 Ry
     estimated scf accuracy    <          7.6E-10 Ry

     iteration # 26     ecut=    40.00 Ry     beta=0.60
     Davidson diagonalization with overlap
     ethr =  1.01E-12,  avg # of iterations =  4.2

     total cpu time spent up to now is    76862.1 secs

     total energy              =    -704.92901248 Ry
     Harris-Foulkes estimate   =    -704.92901248 Ry
     estimated scf accuracy    <          6.2E-10 Ry

     iteration # 27     ecut=    40.00 Ry     beta=0.60
     Davidson diagonalization with overlap
     ethr =  8.14E-13,  avg # of iterations =  1.0

     total cpu time spent up to now is    77189.2 secs

     End of self-consistent calculation

     Number of k-points >= 100: set verbosity='high' to print the bands.

     the Fermi energy is    15.7300 ev

!    total energy              =    -704.92901248 Ry
     Harris-Foulkes estimate   =    -704.92901248 Ry
     estimated scf accuracy    <          8.2E-11 Ry

     The total energy is the sum of the following terms:

     one-electron contribution =    -161.88058089 Ry
     hartree contribution      =     113.01840751 Ry
     xc contribution           =    -102.50217277 Ry
     ewald contribution        =    -553.56238395 Ry
     smearing contrib. (-TS)   =      -0.00228239 Ry

     convergence has been achieved in  27 iterations

     Forces acting on atoms (Ry/au):

     atom    1 type  2   force =     0.00192554   -0.00111171   -0.00311114
     atom    2 type  2   force =    -0.00192528    0.00111156    0.00311127
     atom    3 type  1   force =    -0.01084268    0.00626002   -0.00941580
     atom    4 type  1   force =    -0.00523229    0.00302086   -0.01303138
     atom    5 type  1   force =     0.00523246   -0.00302096    0.01303113
     atom    6 type  1   force =     0.01084225   -0.00625977    0.00941592

     Total force =     0.030540     Total SCF correction =     0.000030


     entering subroutine stress ...

          total   stress  (Ry/bohr**3)                   (kbar)     P=  -48.06
  -0.00041811  -0.00004583   0.00001520        -61.51     -6.74      2.24
  -0.00004583  -0.00047103  -0.00000877         -6.74    -69.29     -1.29
   0.00001520  -0.00000877  -0.00009103          2.24     -1.29    -13.39


     number of scf cycles    =   2
     number of bfgs steps    =   1

     enthalpy old            =    -704.8999179680 Ry
     enthalpy new            =    -704.9290124770 Ry

     CASE: enthalpy_new < enthalpy_old

     new trust radius        =       0.1244133720 bohr
     new conv_thr            =            1.0E-10 Ry

     new unit-cell volume =    725.25849 a.u.^3 (   107.47222 Ang^3 )

CELL_PARAMETERS (alat=  1.88972599)
  -2.914025012   0.006438032   4.871079390
  -1.462588006   2.520400862   4.871079390
  -4.390190509   2.534677861  -4.879404549

ATOMIC_POSITIONS (angstrom)
Ti      -4.382727842   2.530369289  -0.009269278
Ti      -5.848225162   3.376474624   2.433246345
Nb      -4.394174342   2.536977928   4.856184560
Nb      -5.846630418   3.375553898   7.286349729
Nb      -8.760935640   5.058128929   4.879785860
Nb      -1.446588723   0.835188452   2.447197041


     NEW-OLD atomic charge density approx. for the potential

     Check: negative/imaginary core charge=   -0.000001    0.000000
     extrapolated charge   72.35234, renormalised to   76.00000

     total cpu time spent up to now is    77360.5 secs

     per-process dynamical memory:  1080.0 Mb

     Self-consistent Calculation

     iteration #  1     ecut=    40.00 Ry     beta=0.60
     Davidson diagonalization with overlap
     c_bands:  1 eigenvalues not converged
     c_bands:  1 eigenvalues not converged
     c_bands:  2 eigenvalues not converged
     c_bands:  1 eigenvalues not converged
     c_bands:  1 eigenvalues not converged
     c_bands:  1 eigenvalues not converged
     c_bands:  1 eigenvalues not converged
     c_bands:  1 eigenvalues not converged
     c_bands:  2 eigenvalues not converged
     c_bands:  1 eigenvalues not converged
     c_bands:  2 eigenvalues not converged
     c_bands:  1 eigenvalues not converged
     c_bands:  1 eigenvalues not converged
     c_bands:  2 eigenvalues not converged
     c_bands:  1 eigenvalues not converged
     c_bands:  1 eigenvalues not converged
     c_bands:  1 eigenvalues not converged
     c_bands:  1 eigenvalues not converged
     c_bands:  1 eigenvalues not converged
     c_bands:  1 eigenvalues not converged
     c_bands:  1 eigenvalues not converged
     c_bands:  1 eigenvalues not converged
     c_bands:  1 eigenvalues not converged
     c_bands:  1 eigenvalues not converged
     c_bands:  1 eigenvalues not converged
     c_bands:  1 eigenvalues not converged
     c_bands:  1 eigenvalues not converged
     c_bands:  1 eigenvalues not converged
     c_bands:  1 eigenvalues not converged
     c_bands:  1 eigenvalues not converged
     c_bands:  1 eigenvalues not converged
     c_bands:  1 eigenvalues not converged
     c_bands:  2 eigenvalues not converged
     c_bands:  1 eigenvalues not converged
     c_bands:  1 eigenvalues not converged
     c_bands:  1 eigenvalues not converged
     c_bands:  1 eigenvalues not converged
     c_bands:  1 eigenvalues not converged
     c_bands:  1 eigenvalues not converged
     c_bands:  1 eigenvalues not converged
     c_bands:  1 eigenvalues not converged
     c_bands:  1 eigenvalues not converged
     c_bands:  1 eigenvalues not converged
     c_bands:  1 eigenvalues not converged
     c_bands:  1 eigenvalues not converged
     c_bands:  1 eigenvalues not converged
     c_bands:  1 eigenvalues not converged
     c_bands:  1 eigenvalues not converged
     c_bands:  2 eigenvalues not converged
     c_bands:  1 eigenvalues not converged
     c_bands:  2 eigenvalues not converged
     c_bands:  2 eigenvalues not converged
     c_bands:  1 eigenvalues not converged
     c_bands:  1 eigenvalues not converged
     c_bands:  1 eigenvalues not converged
     c_bands:  1 eigenvalues not converged
     c_bands:  1 eigenvalues not converged
     c_bands:  1 eigenvalues not converged
     c_bands:  1 eigenvalues not converged
     c_bands:  1 eigenvalues not converged
     c_bands:  1 eigenvalues not converged
     c_bands:  1 eigenvalues not converged
     c_bands:  1 eigenvalues not converged
     c_bands:  1 eigenvalues not converged
     c_bands:  1 eigenvalues not converged
     c_bands:  1 eigenvalues not converged
     c_bands:  1 eigenvalues not converged
     c_bands:  1 eigenvalues not converged
     c_bands:  1 eigenvalues not converged
     c_bands:  1 eigenvalues not converged
     c_bands:  1 eigenvalues not converged
     c_bands:  1 eigenvalues not converged
     c_bands:  1 eigenvalues not converged
     c_bands:  1 eigenvalues not converged
     c_bands:  1 eigenvalues not converged
     c_bands:  1 eigenvalues not converged
     c_bands:  1 eigenvalues not converged
     c_bands:  1 eigenvalues not converged
     ethr =  1.00E-06,  avg # of iterations = 14.7

     total cpu time spent up to now is    78745.5 secs

     total energy              =    -703.50436697 Ry
     Harris-Foulkes estimate   =    -710.16811538 Ry
     estimated scf accuracy    <       1.33838783 Ry

     iteration #  2     ecut=    40.00 Ry     beta=0.60
     Davidson diagonalization with overlap
     ethr =  1.76E-03,  avg # of iterations =  6.3

     total cpu time spent up to now is    79504.4 secs

     total energy              =    -704.05587098 Ry
     Harris-Foulkes estimate   =    -707.49423009 Ry
     estimated scf accuracy    <      16.81311282 Ry

     iteration #  3     ecut=    40.00 Ry     beta=0.60
     Davidson diagonalization with overlap
     ethr =  1.76E-03,  avg # of iterations =  5.0

     total cpu time spent up to now is    80098.1 secs

     total energy              =    -704.93402383 Ry
     Harris-Foulkes estimate   =    -705.36433060 Ry
     estimated scf accuracy    <       1.29095369 Ry

     iteration #  4     ecut=    40.00 Ry     beta=0.60
     Davidson diagonalization with overlap
     ethr =  1.70E-03,  avg # of iterations =  2.0

     total cpu time spent up to now is    80456.7 secs

     total energy              =    -705.00775295 Ry
     Harris-Foulkes estimate   =    -705.08459614 Ry
     estimated scf accuracy    <       1.17576726 Ry

     iteration #  5     ecut=    40.00 Ry     beta=0.60
     Davidson diagonalization with overlap
     ethr =  1.55E-03,  avg # of iterations =  1.0

     total cpu time spent up to now is    80783.7 secs

     total energy              =    -704.90837355 Ry
     Harris-Foulkes estimate   =    -705.02788390 Ry
     estimated scf accuracy    <       0.73190623 Ry

     iteration #  6     ecut=    40.00 Ry     beta=0.60
     Davidson diagonalization with overlap
     ethr =  9.63E-04,  avg # of iterations =  1.3

     total cpu time spent up to now is    81112.2 secs

     total energy              =    -704.92761487 Ry
     Harris-Foulkes estimate   =    -704.93600554 Ry
     estimated scf accuracy    <       0.12906830 Ry

     iteration #  7     ecut=    40.00 Ry     beta=0.60
     Davidson diagonalization with overlap
     ethr =  1.70E-04,  avg # of iterations =  4.3

     total cpu time spent up to now is    81546.4 secs

     total energy              =    -704.94838732 Ry
     Harris-Foulkes estimate   =    -704.94483420 Ry
     estimated scf accuracy    <       0.02252583 Ry

     iteration #  8     ecut=    40.00 Ry     beta=0.60
     Davidson diagonalization with overlap
     ethr =  2.96E-05,  avg # of iterations =  3.8

     total cpu time spent up to now is    81915.1 secs

     total energy              =    -704.94913758 Ry
     Harris-Foulkes estimate   =    -704.95097625 Ry
     estimated scf accuracy    <       0.08122935 Ry

     iteration #  9     ecut=    40.00 Ry     beta=0.60
     Davidson diagonalization with overlap
     ethr =  2.96E-05,  avg # of iterations =  1.0

     total cpu time spent up to now is    82242.2 secs

     total energy              =    -704.93698286 Ry
     Harris-Foulkes estimate   =    -704.94940584 Ry
     estimated scf accuracy    <       0.07348938 Ry

     iteration # 10     ecut=    40.00 Ry     beta=0.60
     Davidson diagonalization with overlap
     ethr =  2.96E-05,  avg # of iterations =  3.4

     total cpu time spent up to now is    82600.3 secs

     total energy              =    -704.93500788 Ry
     Harris-Foulkes estimate   =    -704.93945154 Ry
     estimated scf accuracy    <       0.01264119 Ry

     iteration # 11     ecut=    40.00 Ry     beta=0.60
     Davidson diagonalization with overlap
     ethr =  1.66E-05,  avg # of iterations =  5.3

     total cpu time spent up to now is    83118.8 secs

     total energy              =    -704.93734298 Ry
     Harris-Foulkes estimate   =    -704.93825561 Ry
     estimated scf accuracy    <       0.00713349 Ry

     iteration # 12     ecut=    40.00 Ry     beta=0.60
     Davidson diagonalization with overlap
     ethr =  9.39E-06,  avg # of iterations =  1.1

     total cpu time spent up to now is    83446.0 secs

     total energy              =    -704.93773409 Ry
     Harris-Foulkes estimate   =    -704.93775210 Ry
     estimated scf accuracy    <       0.00007187 Ry

     iteration # 13     ecut=    40.00 Ry     beta=0.60
     Davidson diagonalization with overlap
     ethr =  9.46E-08,  avg # of iterations =  5.2

     total cpu time spent up to now is    84014.0 secs

     total energy              =    -704.93784413 Ry
     Harris-Foulkes estimate   =    -704.93791088 Ry
     estimated scf accuracy    <       0.00075843 Ry

     iteration # 14     ecut=    40.00 Ry     beta=0.60
     Davidson diagonalization with overlap
     ethr =  9.46E-08,  avg # of iterations =  3.7

     total cpu time spent up to now is    84450.1 secs

     total energy              =    -704.93786263 Ry
     Harris-Foulkes estimate   =    -704.93787431 Ry
     estimated scf accuracy    <       0.00021243 Ry

     iteration # 15     ecut=    40.00 Ry     beta=0.60
     Davidson diagonalization with overlap
     ethr =  9.46E-08,  avg # of iterations =  1.0

     total cpu time spent up to now is    84776.7 secs

     total energy              =    -704.93785547 Ry
     Harris-Foulkes estimate   =    -704.93786547 Ry
     estimated scf accuracy    <       0.00010429 Ry

     iteration # 16     ecut=    40.00 Ry     beta=0.60
     Davidson diagonalization with overlap
     ethr =  9.46E-08,  avg # of iterations =  2.7

     total cpu time spent up to now is    85132.7 secs

     total energy              =    -704.93785822 Ry
     Harris-Foulkes estimate   =    -704.93786104 Ry
     estimated scf accuracy    <       0.00000958 Ry

     iteration # 17     ecut=    40.00 Ry     beta=0.60
     Davidson diagonalization with overlap
     ethr =  1.26E-08,  avg # of iterations =  4.2

     total cpu time spent up to now is    85568.5 secs

     total energy              =    -704.93785928 Ry
     Harris-Foulkes estimate   =    -704.93786176 Ry
     estimated scf accuracy    <       0.00001832 Ry

     iteration # 18     ecut=    40.00 Ry     beta=0.60
     Davidson diagonalization with overlap
     ethr =  1.26E-08,  avg # of iterations =  3.1

     total cpu time spent up to now is    86764.0 secs

     total energy              =    -704.93786003 Ry
     Harris-Foulkes estimate   =    -704.93786046 Ry
     estimated scf accuracy    <       0.00000322 Ry

     iteration # 19     ecut=    40.00 Ry     beta=0.60
     Davidson diagonalization with overlap
     ethr =  4.24E-09,  avg # of iterations =  3.2

     total cpu time spent up to now is    87142.1 secs

     total energy              =    -704.93786042 Ry
     Harris-Foulkes estimate   =    -704.93786045 Ry
     estimated scf accuracy    <       0.00000019 Ry

     iteration # 20     ecut=    40.00 Ry     beta=0.60
     Davidson diagonalization with overlap
     ethr =  2.47E-10,  avg # of iterations =  4.2

     total cpu time spent up to now is    87592.2 secs

     total energy              =    -704.93786042 Ry
     Harris-Foulkes estimate   =    -704.93786049 Ry
     estimated scf accuracy    <       0.00000060 Ry

     iteration # 21     ecut=    40.00 Ry     beta=0.60
     Davidson diagonalization with overlap
     ethr =  2.47E-10,  avg # of iterations =  3.6

     total cpu time spent up to now is    87952.9 secs

     total energy              =    -704.93786044 Ry
     Harris-Foulkes estimate   =    -704.93786045 Ry
     estimated scf accuracy    <       0.00000003 Ry

     iteration # 22     ecut=    40.00 Ry     beta=0.60
     Davidson diagonalization with overlap
     ethr =  4.02E-11,  avg # of iterations =  3.8

     total cpu time spent up to now is    88344.2 secs

     total energy              =    -704.93786045 Ry
     Harris-Foulkes estimate   =    -704.93786045 Ry
     estimated scf accuracy    <          7.1E-10 Ry

     iteration # 23     ecut=    40.00 Ry     beta=0.60
     Davidson diagonalization with overlap
     ethr =  9.30E-13,  avg # of iterations =  4.9

     total cpu time spent up to now is    88853.9 secs

     total energy              =    -704.93786045 Ry
     Harris-Foulkes estimate   =    -704.93786045 Ry
     estimated scf accuracy    <          4.4E-10 Ry

     iteration # 24     ecut=    40.00 Ry     beta=0.60
     Davidson diagonalization with overlap
     ethr =  5.78E-13,  avg # of iterations =  1.1

     total cpu time spent up to now is    89178.1 secs

     total energy              =    -704.93786045 Ry
     Harris-Foulkes estimate   =    -704.93786045 Ry
     estimated scf accuracy    <          4.1E-10 Ry

     iteration # 25     ecut=    40.00 Ry     beta=0.60
     Davidson diagonalization with overlap
     ethr =  5.45E-13,  avg # of iterations =  1.5

     total cpu time spent up to now is    89505.9 secs

     End of self-consistent calculation

     Number of k-points >= 100: set verbosity='high' to print the bands.

     the Fermi energy is    16.6154 ev

!    total energy              =    -704.93786045 Ry
     Harris-Foulkes estimate   =    -704.93786045 Ry
     estimated scf accuracy    <          2.9E-11 Ry

     The total energy is the sum of the following terms:

     one-electron contribution =    -148.86924461 Ry
     hartree contribution      =     109.30176548 Ry
     xc contribution           =    -102.78514433 Ry
     ewald contribution        =    -562.58414086 Ry
     smearing contrib. (-TS)   =      -0.00109613 Ry

     convergence has been achieved in  25 iterations

     Forces acting on atoms (Ry/au):

     atom    1 type  2   force =     0.00055600   -0.00032101   -0.00459911
     atom    2 type  2   force =    -0.00055554    0.00032074    0.00459944
     atom    3 type  1   force =    -0.01299781    0.00750429   -0.01124533
     atom    4 type  1   force =    -0.00536572    0.00309790   -0.01458100
     atom    5 type  1   force =     0.00536556   -0.00309781    0.01458121
     atom    6 type  1   force =     0.01299750   -0.00750411    0.01124479

     Total force =     0.035335     Total SCF correction =     0.000021


     entering subroutine stress ...

          total   stress  (Ry/bohr**3)                   (kbar)     P=   17.76
   0.00004031  -0.00005783   0.00003231          5.93     -8.51      4.75
  -0.00005783  -0.00002647  -0.00001865         -8.51     -3.89     -2.74
   0.00003231  -0.00001865   0.00034834          4.75     -2.74     51.24


     number of scf cycles    =   3
     number of bfgs steps    =   2

     enthalpy old            =    -704.9290124770 Ry
     enthalpy new            =    -704.9378604501 Ry

     CASE: enthalpy_new < enthalpy_old

     new trust radius        =       0.0356432204 bohr
     new conv_thr            =            1.0E-10 Ry

     new unit-cell volume =    723.52886 a.u.^3 (   107.21591 Ang^3 )

CELL_PARAMETERS (alat=  1.88972599)
  -2.899853420   0.009217976   4.900264224
  -1.457909712   2.506737931   4.900264224
  -4.384262877   2.531255542  -4.916593361

ATOMIC_POSITIONS (angstrom)
Ti      -4.371918602   2.524128571  -0.017485546
Ti      -5.832998657   3.367683598   2.444938581
Nb      -4.387638734   2.533204593   4.875264492
Nb      -5.829916097   3.365903881   7.317260083
Nb      -8.732764645   5.041864399   4.910721049
Nb      -1.433016671   0.827352625   2.468781426


     NEW-OLD atomic charge density approx. for the potential

     Check: negative/imaginary core charge=   -0.000001    0.000000
     extrapolated charge   75.82313, renormalised to   76.00000

     total cpu time spent up to now is    89674.3 secs

     per-process dynamical memory:  1080.0 Mb

     Self-consistent Calculation

     iteration #  1     ecut=    40.00 Ry     beta=0.60
     Davidson diagonalization with overlap
     c_bands:  1 eigenvalues not converged
     c_bands:  1 eigenvalues not converged
     c_bands:  1 eigenvalues not converged
     c_bands:  1 eigenvalues not converged
     ethr =  1.00E-06,  avg # of iterations =  8.1

     total cpu time spent up to now is    90628.9 secs

     total energy              =    -704.93550195 Ry
     Harris-Foulkes estimate   =    -705.18691169 Ry
     estimated scf accuracy    <       0.00614259 Ry

     iteration #  2     ecut=    40.00 Ry     beta=0.60
     Davidson diagonalization with overlap
     ethr =  8.08E-06,  avg # of iterations =  5.9

     total cpu time spent up to now is    91347.3 secs

     total energy              =    -704.91826748 Ry
     Harris-Foulkes estimate   =    -704.96908401 Ry
     estimated scf accuracy    <       0.48814273 Ry

     iteration #  3     ecut=    40.00 Ry     beta=0.60
     Davidson diagonalization with overlap
     ethr =  8.08E-06,  avg # of iterations =  5.6

     total cpu time spent up to now is    91958.3 secs

     total energy              =    -704.94063826 Ry
     Harris-Foulkes estimate   =    -704.94179844 Ry
     estimated scf accuracy    <       0.00390862 Ry

     iteration #  4     ecut=    40.00 Ry     beta=0.60
     Davidson diagonalization with overlap
     ethr =  5.14E-06,  avg # of iterations =  3.1

     total cpu time spent up to now is    92347.4 secs

     total energy              =    -704.94089693 Ry
     Harris-Foulkes estimate   =    -704.94138838 Ry
     estimated scf accuracy    <       0.00358691 Ry

     iteration #  5     ecut=    40.00 Ry     beta=0.60
     Davidson diagonalization with overlap
     ethr =  4.72E-06,  avg # of iterations =  1.0

     total cpu time spent up to now is    92671.1 secs

     total energy              =    -704.94094437 Ry
     Harris-Foulkes estimate   =    -704.94107657 Ry
     estimated scf accuracy    <       0.00095863 Ry

     iteration #  6     ecut=    40.00 Ry     beta=0.60
     Davidson diagonalization with overlap
     ethr =  1.26E-06,  avg # of iterations =  3.1

     total cpu time spent up to now is    93041.1 secs

     total energy              =    -704.94098671 Ry
     Harris-Foulkes estimate   =    -704.94102281 Ry
     estimated scf accuracy    <       0.00017404 Ry

     iteration #  7     ecut=    40.00 Ry     beta=0.60
     Davidson diagonalization with overlap
     ethr =  2.29E-07,  avg # of iterations =  3.4

     total cpu time spent up to now is    93423.7 secs

     total energy              =    -704.94100110 Ry
     Harris-Foulkes estimate   =    -704.94100883 Ry
     estimated scf accuracy    <       0.00005408 Ry

     iteration #  8     ecut=    40.00 Ry     beta=0.60
     Davidson diagonalization with overlap
     ethr =  7.12E-08,  avg # of iterations =  3.2

     total cpu time spent up to now is    93779.6 secs

     total energy              =    -704.94100416 Ry
     Harris-Foulkes estimate   =    -704.94100796 Ry
     estimated scf accuracy    <       0.00002629 Ry

     iteration #  9     ecut=    40.00 Ry     beta=0.60
     Davidson diagonalization with overlap
     ethr =  3.46E-08,  avg # of iterations =  2.4

     total cpu time spent up to now is    94130.4 secs

     total energy              =    -704.94100574 Ry
     Harris-Foulkes estimate   =    -704.94100689 Ry
     estimated scf accuracy    <       0.00000624 Ry

     iteration # 10     ecut=    40.00 Ry     beta=0.60
     Davidson diagonalization with overlap
     ethr =  8.21E-09,  avg # of iterations =  3.3

     total cpu time spent up to now is    94526.6 secs

     total energy              =    -704.94100596 Ry
     Harris-Foulkes estimate   =    -704.94100721 Ry
     estimated scf accuracy    <       0.00000854 Ry

     iteration # 11     ecut=    40.00 Ry     beta=0.60
     Davidson diagonalization with overlap
     ethr =  8.21E-09,  avg # of iterations =  1.7

     total cpu time spent up to now is    94855.7 secs

     total energy              =    -704.94100638 Ry
     Harris-Foulkes estimate   =    -704.94100648 Ry
     estimated scf accuracy    <       0.00000040 Ry

     iteration # 12     ecut=    40.00 Ry     beta=0.60
     Davidson diagonalization with overlap
     ethr =  5.31E-10,  avg # of iterations =  4.3

     total cpu time spent up to now is    95323.5 secs

     total energy              =    -704.94100650 Ry
     Harris-Foulkes estimate   =    -704.94100665 Ry
     estimated scf accuracy    <       0.00000108 Ry

     iteration # 13     ecut=    40.00 Ry     beta=0.60
     Davidson diagonalization with overlap
     ethr =  5.31E-10,  avg # of iterations =  2.9

     total cpu time spent up to now is    95698.8 secs

     total energy              =    -704.94100654 Ry
     Harris-Foulkes estimate   =    -704.94100658 Ry
     estimated scf accuracy    <       0.00000025 Ry

     iteration # 14     ecut=    40.00 Ry     beta=0.60
     Davidson diagonalization with overlap
     ethr =  3.28E-10,  avg # of iterations =  1.2

     total cpu time spent up to now is    96023.9 secs

     total energy              =    -704.94100655 Ry
     Harris-Foulkes estimate   =    -704.94100656 Ry
     estimated scf accuracy    <       0.00000004 Ry

     iteration # 15     ecut=    40.00 Ry     beta=0.60
     Davidson diagonalization with overlap
     ethr =  4.79E-11,  avg # of iterations =  4.0

     total cpu time spent up to now is    96459.4 secs

     total energy              =    -704.94100656 Ry
     Harris-Foulkes estimate   =    -704.94100656 Ry
     estimated scf accuracy    <       0.00000001 Ry

     iteration # 16     ecut=    40.00 Ry     beta=0.60
     Davidson diagonalization with overlap
     ethr =  1.32E-11,  avg # of iterations =  1.1

     total cpu time spent up to now is    96783.2 secs

     total energy              =    -704.94100656 Ry
     Harris-Foulkes estimate   =    -704.94100656 Ry
     estimated scf accuracy    <          1.9E-09 Ry

     iteration # 17     ecut=    40.00 Ry     beta=0.60
     Davidson diagonalization with overlap
     ethr =  2.53E-12,  avg # of iterations =  3.8

     total cpu time spent up to now is    97204.5 secs

     total energy              =    -704.94100656 Ry
     Harris-Foulkes estimate   =    -704.94100656 Ry
     estimated scf accuracy    <          2.1E-09 Ry

     iteration # 18     ecut=    40.00 Ry     beta=0.60
     Davidson diagonalization with overlap
     ethr =  2.53E-12,  avg # of iterations =  1.0

     total cpu time spent up to now is    97531.9 secs

     End of self-consistent calculation

     Number of k-points >= 100: set verbosity='high' to print the bands.

     the Fermi energy is    16.6492 ev

!    total energy              =    -704.94100656 Ry
     Harris-Foulkes estimate   =    -704.94100656 Ry
     estimated scf accuracy    <          6.1E-11 Ry

     The total energy is the sum of the following terms:

     one-electron contribution =    -148.25270851 Ry
     hartree contribution      =     109.13431000 Ry
     xc contribution           =    -102.80008863 Ry
     ewald contribution        =    -563.02167780 Ry
     smearing contrib. (-TS)   =      -0.00084162 Ry

     convergence has been achieved in  18 iterations

     Forces acting on atoms (Ry/au):

     atom    1 type  2   force =    -0.00059470    0.00034335   -0.00465177
     atom    2 type  2   force =     0.00059338   -0.00034259    0.00465188
     atom    3 type  1   force =    -0.01168920    0.00674876   -0.01044455
     atom    4 type  1   force =    -0.00314835    0.00181770   -0.01329035
     atom    5 type  1   force =     0.00314980   -0.00181854    0.01328929
     atom    6 type  1   force =     0.01168906   -0.00674868    0.01044551

     Total force =     0.031725     Total SCF correction =     0.000022


     entering subroutine stress ...

          total   stress  (Ry/bohr**3)                   (kbar)     P=   19.74
   0.00007573  -0.00006145   0.00004581         11.14     -9.04      6.74
  -0.00006145   0.00000477  -0.00002645         -9.04      0.70     -3.89
   0.00004581  -0.00002645   0.00032198          6.74     -3.89     47.36


     number of scf cycles    =   4
     number of bfgs steps    =   3

     enthalpy old            =    -704.9378604501 Ry
     enthalpy new            =    -704.9410065592 Ry

     CASE: enthalpy_new < enthalpy_old


     WARNING: bfgs curvature condition failed, Theta= 0.931
     new trust radius        =       0.0530490360 bohr
     new conv_thr            =            1.0E-10 Ry

     new unit-cell volume =    723.73017 a.u.^3 (   107.24574 Ang^3 )

CELL_PARAMETERS (alat=  1.88972599)
  -2.882738959   0.012555880   4.942300208
  -1.452243191   2.490247423   4.942300208
  -4.386880969   2.532767097  -4.974475660

ATOMIC_POSITIONS (angstrom)
Ti      -4.366005464   2.520714620  -0.032523086
Ti      -5.821033392   3.360775449   2.458985479
Nb      -4.384528549   2.531408927   4.901124014
Nb      -5.813134194   3.356214846   7.360120534
Nb      -8.708885528   5.028077785   4.950941092
Nb      -1.415629813   0.817314319   2.499813993


     NEW-OLD atomic charge density approx. for the potential

     Check: negative/imaginary core charge=   -0.000001    0.000000
     extrapolated charge   76.02058, renormalised to   76.00000

     total cpu time spent up to now is    97700.9 secs

     per-process dynamical memory:  1080.0 Mb

     Self-consistent Calculation

     iteration #  1     ecut=    40.00 Ry     beta=0.60
     Davidson diagonalization with overlap
     c_bands:  1 eigenvalues not converged
     c_bands:  1 eigenvalues not converged
     c_bands:  1 eigenvalues not converged
     c_bands:  1 eigenvalues not converged
     ethr =  1.00E-06,  avg # of iterations =  8.8

     total cpu time spent up to now is    98689.3 secs

     total energy              =    -704.94063581 Ry
     Harris-Foulkes estimate   =    -704.91666364 Ry
     estimated scf accuracy    <       0.00602517 Ry

     iteration #  2     ecut=    40.00 Ry     beta=0.60
     Davidson diagonalization with overlap
     ethr =  7.93E-06,  avg # of iterations =  5.7

     total cpu time spent up to now is    99319.7 secs

     total energy              =    -704.91881079 Ry
     Harris-Foulkes estimate   =    -704.97283141 Ry
     estimated scf accuracy    <       0.50350754 Ry

     iteration #  3     ecut=    40.00 Ry     beta=0.60
     Davidson diagonalization with overlap
     ethr =  7.93E-06,  avg # of iterations =  5.7

     total cpu time spent up to now is    99941.0 secs

     total energy              =    -704.94461132 Ry
     Harris-Foulkes estimate   =    -704.94502912 Ry
     estimated scf accuracy    <       0.00161202 Ry

     iteration #  4     ecut=    40.00 Ry     beta=0.60
     Davidson diagonalization with overlap
     ethr =  2.12E-06,  avg # of iterations =  3.2

     total cpu time spent up to now is   100334.5 secs

     total energy              =    -704.94480799 Ry
     Harris-Foulkes estimate   =    -704.94495569 Ry
     estimated scf accuracy    <       0.00071954 Ry

     iteration #  5     ecut=    40.00 Ry     beta=0.60
     Davidson diagonalization with overlap
     ethr =  9.47E-07,  avg # of iterations =  2.4

     total cpu time spent up to now is   100689.8 secs

     total energy              =    -704.94487988 Ry
     Harris-Foulkes estimate   =    -704.94488712 Ry
     estimated scf accuracy    <       0.00002091 Ry

     iteration #  6     ecut=    40.00 Ry     beta=0.60
     Davidson diagonalization with overlap
     ethr =  2.75E-08,  avg # of iterations =  4.3

     total cpu time spent up to now is   101163.8 secs

     total energy              =    -704.94488761 Ry
     Harris-Foulkes estimate   =    -704.94489195 Ry
     estimated scf accuracy    <       0.00001774 Ry

     iteration #  7     ecut=    40.00 Ry     beta=0.60
     Davidson diagonalization with overlap
     ethr =  2.33E-08,  avg # of iterations =  3.9

     total cpu time spent up to now is   101571.6 secs

     total energy              =    -704.94488622 Ry
     Harris-Foulkes estimate   =    -704.94489414 Ry
     estimated scf accuracy    <       0.00006429 Ry

     iteration #  8     ecut=    40.00 Ry     beta=0.60
     Davidson diagonalization with overlap
     ethr =  2.33E-08,  avg # of iterations =  3.7

     total cpu time spent up to now is   101931.5 secs

     total energy              =    -704.94488975 Ry
     Harris-Foulkes estimate   =    -704.94489023 Ry
     estimated scf accuracy    <       0.00000176 Ry

     iteration #  9     ecut=    40.00 Ry     beta=0.60
     Davidson diagonalization with overlap
     ethr =  2.32E-09,  avg # of iterations =  4.1

     total cpu time spent up to now is   102387.1 secs

     total energy              =    -704.94488959 Ry
     Harris-Foulkes estimate   =    -704.94489110 Ry
     estimated scf accuracy    <       0.00001137 Ry

     iteration # 10     ecut=    40.00 Ry     beta=0.60
     Davidson diagonalization with overlap
     ethr =  2.32E-09,  avg # of iterations =  3.7

     total cpu time spent up to now is   102806.6 secs

     total energy              =    -704.94489033 Ry
     Harris-Foulkes estimate   =    -704.94489037 Ry
     estimated scf accuracy    <       0.00000036 Ry

     iteration # 11     ecut=    40.00 Ry     beta=0.60
     Davidson diagonalization with overlap
     ethr =  4.76E-10,  avg # of iterations =  1.8

     total cpu time spent up to now is   103137.2 secs

     total energy              =    -704.94489034 Ry
     Harris-Foulkes estimate   =    -704.94489035 Ry
     estimated scf accuracy    <       0.00000008 Ry

     iteration # 12     ecut=    40.00 Ry     beta=0.60
     Davidson diagonalization with overlap
     ethr =  1.04E-10,  avg # of iterations =  3.6

     total cpu time spent up to now is   103548.2 secs

     total energy              =    -704.94489034 Ry
     Harris-Foulkes estimate   =    -704.94489035 Ry
     estimated scf accuracy    <       0.00000006 Ry

     iteration # 13     ecut=    40.00 Ry     beta=0.60
     Davidson diagonalization with overlap
     ethr =  7.31E-11,  avg # of iterations =  2.6

     total cpu time spent up to now is   103891.6 secs

     total energy              =    -704.94489035 Ry
     Harris-Foulkes estimate   =    -704.94489035 Ry
     estimated scf accuracy    <       0.00000002 Ry

     iteration # 14     ecut=    40.00 Ry     beta=0.60
     Davidson diagonalization with overlap
     ethr =  2.22E-11,  avg # of iterations =  3.4

     total cpu time spent up to now is   104297.7 secs

     total energy              =    -704.94489035 Ry
     Harris-Foulkes estimate   =    -704.94489035 Ry
     estimated scf accuracy    <       0.00000003 Ry

     iteration # 15     ecut=    40.00 Ry     beta=0.60
     Davidson diagonalization with overlap
     ethr =  2.22E-11,  avg # of iterations =  2.2

     total cpu time spent up to now is   104634.7 secs

     total energy              =    -704.94489035 Ry
     Harris-Foulkes estimate   =    -704.94489035 Ry
     estimated scf accuracy    <          1.8E-09 Ry

     iteration # 16     ecut=    40.00 Ry     beta=0.60
     Davidson diagonalization with overlap
     ethr =  2.34E-12,  avg # of iterations =  3.9

     total cpu time spent up to now is   105068.0 secs

     total energy              =    -704.94489035 Ry
     Harris-Foulkes estimate   =    -704.94489035 Ry
     estimated scf accuracy    <          3.4E-10 Ry

     iteration # 17     ecut=    40.00 Ry     beta=0.60
     Davidson diagonalization with overlap
     ethr =  4.44E-13,  avg # of iterations =  3.8

     total cpu time spent up to now is   105468.2 secs

     total energy              =    -704.94489035 Ry
     Harris-Foulkes estimate   =    -704.94489035 Ry
     estimated scf accuracy    <          7.4E-10 Ry

     iteration # 18     ecut=    40.00 Ry     beta=0.60
     Davidson diagonalization with overlap
     ethr =  4.44E-13,  avg # of iterations =  1.1

     total cpu time spent up to now is   105791.9 secs

     total energy              =    -704.94489035 Ry
     Harris-Foulkes estimate   =    -704.94489035 Ry
     estimated scf accuracy    <          1.1E-10 Ry

     iteration # 19     ecut=    40.00 Ry     beta=0.60
     Davidson diagonalization with overlap
     ethr =  1.46E-13,  avg # of iterations =  3.8

     total cpu time spent up to now is   106188.3 secs

     End of self-consistent calculation

     Number of k-points >= 100: set verbosity='high' to print the bands.

     the Fermi energy is    16.6288 ev

!    total energy              =    -704.94489035 Ry
     Harris-Foulkes estimate   =    -704.94489035 Ry
     estimated scf accuracy    <          1.7E-11 Ry

     The total energy is the sum of the following terms:

     one-electron contribution =    -148.54993880 Ry
     hartree contribution      =     109.26551378 Ry
     xc contribution           =    -102.80155020 Ry
     ewald contribution        =    -562.85818774 Ry
     smearing contrib. (-TS)   =      -0.00072739 Ry

     convergence has been achieved in  19 iterations

     Forces acting on atoms (Ry/au):

     atom    1 type  2   force =    -0.00229537    0.00132523   -0.00416918
     atom    2 type  2   force =     0.00229535   -0.00132522    0.00416921
     atom    3 type  1   force =    -0.00950133    0.00548559   -0.00876258
     atom    4 type  1   force =    -0.00029292    0.00016912   -0.01102387
     atom    5 type  1   force =     0.00029285   -0.00016908    0.01102397
     atom    6 type  1   force =     0.00950142   -0.00548565    0.00876245

     Total force =     0.026199     Total SCF correction =     0.000013


     entering subroutine stress ...

          total   stress  (Ry/bohr**3)                   (kbar)     P=   17.78
   0.00009439  -0.00006069   0.00006181         13.89     -8.93      9.09
  -0.00006069   0.00002431  -0.00003569         -8.93      3.58     -5.25
   0.00006181  -0.00003569   0.00024389          9.09     -5.25     35.88


     number of scf cycles    =   5
     number of bfgs steps    =   4

     enthalpy old            =    -704.9410065592 Ry
     enthalpy new            =    -704.9448903506 Ry

     CASE: enthalpy_new < enthalpy_old

     new trust radius        =       0.0787973198 bohr
     new conv_thr            =            1.0E-10 Ry

     new unit-cell volume =    725.95384 a.u.^3 (   107.57526 Ang^3 )

CELL_PARAMETERS (alat=  1.88972599)
  -2.857964167   0.016221674   5.000925359
  -1.443030466   2.466958928   5.000925360
  -4.404680025   2.543043387  -5.065724249

ATOMIC_POSITIONS (angstrom)
Ti      -4.368003419   2.521868140  -0.061552138
Ti      -5.811657066   3.355362025   2.472016968
Nb      -4.384838698   2.531587992   4.931618800
Nb      -5.791897145   3.343953631   7.413475165
Nb      -8.688756502   5.016456287   4.998838968
Nb      -1.390142306   0.802599101   2.544569916


     NEW-OLD atomic charge density approx. for the potential

     Check: negative/imaginary core charge=   -0.000001    0.000000
     extrapolated charge   76.22664, renormalised to   76.00000

     total cpu time spent up to now is   106357.1 secs

     per-process dynamical memory:  1080.0 Mb

     Self-consistent Calculation

     iteration #  1     ecut=    40.00 Ry     beta=0.60
     Davidson diagonalization with overlap
     c_bands:  1 eigenvalues not converged
     c_bands:  1 eigenvalues not converged
     c_bands:  1 eigenvalues not converged
     c_bands:  1 eigenvalues not converged
     c_bands:  1 eigenvalues not converged
     c_bands:  1 eigenvalues not converged
     c_bands:  1 eigenvalues not converged
     c_bands:  1 eigenvalues not converged
     ethr =  1.00E-06,  avg # of iterations = 10.3

     total cpu time spent up to now is   164439.6 secs

     total energy              =    -704.94080532 Ry
     Harris-Foulkes estimate   =    -704.63149069 Ry
     estimated scf accuracy    <       0.01123760 Ry

     iteration #  2     ecut=    40.00 Ry     beta=0.60
     Davidson diagonalization with overlap
     ethr =  1.48E-05,  avg # of iterations =  5.6

     total cpu time spent up to now is   165084.9 secs

     total energy              =    -704.90837325 Ry
     Harris-Foulkes estimate   =    -704.98555061 Ry
     estimated scf accuracy    <       0.63946397 Ry

     iteration #  3     ecut=    40.00 Ry     beta=0.60
     Davidson diagonalization with overlap
     ethr =  1.48E-05,  avg # of iterations =  5.8

     total cpu time spent up to now is   165701.1 secs

     total energy              =    -704.94839705 Ry
     Harris-Foulkes estimate   =    -704.95093253 Ry
     estimated scf accuracy    <       0.02176676 Ry

     iteration #  4     ecut=    40.00 Ry     beta=0.60
     Davidson diagonalization with overlap
     ethr =  1.48E-05,  avg # of iterations =  1.0

     total cpu time spent up to now is   166023.1 secs

     total energy              =    -704.94877032 Ry
     Harris-Foulkes estimate   =    -704.94910290 Ry
     estimated scf accuracy    <       0.00486724 Ry

     iteration #  5     ecut=    40.00 Ry     beta=0.60
     Davidson diagonalization with overlap
     ethr =  6.40E-06,  avg # of iterations =  3.2

     total cpu time spent up to now is   166384.1 secs

     total energy              =    -704.94895215 Ry
     Harris-Foulkes estimate   =    -704.94912625 Ry
     estimated scf accuracy    <       0.00122607 Ry

     iteration #  6     ecut=    40.00 Ry     beta=0.60
     Davidson diagonalization with overlap
     ethr =  1.61E-06,  avg # of iterations =  5.0

     total cpu time spent up to now is   166762.7 secs

     total energy              =    -704.94901724 Ry
     Harris-Foulkes estimate   =    -704.94904180 Ry
     estimated scf accuracy    <       0.00007790 Ry

     iteration #  7     ecut=    40.00 Ry     beta=0.60
     Davidson diagonalization with overlap
     ethr =  1.03E-07,  avg # of iterations =  4.9

     total cpu time spent up to now is   167261.5 secs

     total energy              =    -704.94904299 Ry
     Harris-Foulkes estimate   =    -704.94906802 Ry
     estimated scf accuracy    <       0.00024237 Ry

     iteration #  8     ecut=    40.00 Ry     beta=0.60
     Davidson diagonalization with overlap
     ethr =  1.03E-07,  avg # of iterations =  2.7

     total cpu time spent up to now is   167598.4 secs

     total energy              =    -704.94905068 Ry
     Harris-Foulkes estimate   =    -704.94905489 Ry
     estimated scf accuracy    <       0.00005219 Ry

     iteration #  9     ecut=    40.00 Ry     beta=0.60
     Davidson diagonalization with overlap
     ethr =  6.87E-08,  avg # of iterations =  3.0

     total cpu time spent up to now is   167959.6 secs

     total energy              =    -704.94905174 Ry
     Harris-Foulkes estimate   =    -704.94905568 Ry
     estimated scf accuracy    <       0.00003523 Ry

     iteration # 10     ecut=    40.00 Ry     beta=0.60
     Davidson diagonalization with overlap
     ethr =  4.64E-08,  avg # of iterations =  1.1

     total cpu time spent up to now is   168282.5 secs

     total energy              =    -704.94905238 Ry
     Harris-Foulkes estimate   =    -704.94905356 Ry
     estimated scf accuracy    <       0.00000895 Ry

     iteration # 11     ecut=    40.00 Ry     beta=0.60
     Davidson diagonalization with overlap
     ethr =  1.18E-08,  avg # of iterations =  3.3

     total cpu time spent up to now is   168659.9 secs

     total energy              =    -704.94905304 Ry
     Harris-Foulkes estimate   =    -704.94905338 Ry
     estimated scf accuracy    <       0.00000220 Ry

     iteration # 12     ecut=    40.00 Ry     beta=0.60
     Davidson diagonalization with overlap
     ethr =  2.90E-09,  avg # of iterations =  2.1

     total cpu time spent up to now is   169024.7 secs

     total energy              =    -704.94905316 Ry
     Harris-Foulkes estimate   =    -704.94905326 Ry
     estimated scf accuracy    <       0.00000064 Ry

     iteration # 13     ecut=    40.00 Ry     beta=0.60
     Davidson diagonalization with overlap
     ethr =  8.46E-10,  avg # of iterations =  2.6

     total cpu time spent up to now is   169388.1 secs

     total energy              =    -704.94905323 Ry
     Harris-Foulkes estimate   =    -704.94905324 Ry
     estimated scf accuracy    <       0.00000006 Ry

     iteration # 14     ecut=    40.00 Ry     beta=0.60
     Davidson diagonalization with overlap
     ethr =  8.29E-11,  avg # of iterations =  2.9

     total cpu time spent up to now is   169771.4 secs

     total energy              =    -704.94905323 Ry
     Harris-Foulkes estimate   =    -704.94905324 Ry
     estimated scf accuracy    <       0.00000001 Ry

     iteration # 15     ecut=    40.00 Ry     beta=0.60
     Davidson diagonalization with overlap
     ethr =  1.64E-11,  avg # of iterations =  3.2

     total cpu time spent up to now is   176809.9 secs

     total energy              =    -704.94905323 Ry
     Harris-Foulkes estimate   =    -704.94905323 Ry
     estimated scf accuracy    <          2.8E-09 Ry

     iteration # 16     ecut=    40.00 Ry     beta=0.60
     Davidson diagonalization with overlap
     ethr =  3.69E-12,  avg # of iterations =  3.6

     total cpu time spent up to now is   177270.4 secs

     total energy              =    -704.94905323 Ry
     Harris-Foulkes estimate   =    -704.94905323 Ry
     estimated scf accuracy    <          4.9E-09 Ry

     iteration # 17     ecut=    40.00 Ry     beta=0.60
     Davidson diagonalization with overlap
     ethr =  3.69E-12,  avg # of iterations =  2.4

     total cpu time spent up to now is   177666.8 secs

     total energy              =    -704.94905323 Ry
     Harris-Foulkes estimate   =    -704.94905323 Ry
     estimated scf accuracy    <          5.9E-10 Ry

     iteration # 18     ecut=    40.00 Ry     beta=0.60
     Davidson diagonalization with overlap
     ethr =  7.75E-13,  avg # of iterations =  2.2

     total cpu time spent up to now is   178058.5 secs

     End of self-consistent calculation

     Number of k-points >= 100: set verbosity='high' to print the bands.

     the Fermi energy is    16.5513 ev

!    total energy              =    -704.94905323 Ry
     Harris-Foulkes estimate   =    -704.94905323 Ry
     estimated scf accuracy    <          5.5E-11 Ry

     The total energy is the sum of the following terms:

     one-electron contribution =    -150.07229153 Ry
[...]
     c_bands:  1 eigenvalues not converged
     c_bands:  1 eigenvalues not converged
     c_bands:  1 eigenvalues not converged
     c_bands:  1 eigenvalues not converged
     c_bands:  1 eigenvalues not converged
     c_bands:  1 eigenvalues not converged
     c_bands:  1 eigenvalues not converged
     c_bands:  1 eigenvalues not converged
     c_bands:  1 eigenvalues not converged
     c_bands:  1 eigenvalues not converged
     c_bands:  1 eigenvalues not converged
     c_bands:  1 eigenvalues not converged
     c_bands:  1 eigenvalues not converged
     c_bands:  1 eigenvalues not converged
     c_bands:  1 eigenvalues not converged
     c_bands:  1 eigenvalues not converged
     c_bands:  1 eigenvalues not converged
     c_bands:  1 eigenvalues not converged
     c_bands:  1 eigenvalues not converged
     c_bands:  1 eigenvalues not converged
     ethr =  1.00E-06,  avg # of iterations = 14.6

     total cpu time spent up to now is   624115.9 secs

     total energy              =    -618.29293596 Ry
     Harris-Foulkes estimate   =    -713.36587197 Ry
     estimated scf accuracy    <     116.74258993 Ry

     iteration #  2     ecut=    40.00 Ry     beta=0.60
     Davidson diagonalization with overlap
     c_bands:  2 eigenvalues not converged
     ethr =  1.00E-02,  avg # of iterations =  9.5

     total cpu time spent up to now is   625172.5 secs

     total energy              =    -682.36002177 Ry
     Harris-Foulkes estimate   =    -890.53870816 Ry
     estimated scf accuracy    <     672.69310029 Ry

     iteration #  3     ecut=    40.00 Ry     beta=0.60
     Davidson diagonalization with overlap
     ethr =  1.00E-02,  avg # of iterations =  7.5

     total cpu time spent up to now is   626051.1 secs

     total energy              =    -710.40491788 Ry
     Harris-Foulkes estimate   =    -717.93327429 Ry
     estimated scf accuracy    <      49.62592457 Ry

     iteration #  4     ecut=    40.00 Ry     beta=0.60
     Davidson diagonalization with overlap
     ethr =  1.00E-02,  avg # of iterations =  2.2

     total cpu time spent up to now is   626378.4 secs

     total energy              =    -708.64658189 Ry
     Harris-Foulkes estimate   =    -712.04593089 Ry
     estimated scf accuracy    <      42.11557259 Ry

     iteration #  5     ecut=    40.00 Ry     beta=0.60
     Davidson diagonalization with overlap
     ethr =  1.00E-02,  avg # of iterations =  1.5

     total cpu time spent up to now is   626692.5 secs

     total energy              =    -707.64228335 Ry
     Harris-Foulkes estimate   =    -709.39262523 Ry
     estimated scf accuracy    <      26.51073874 Ry

     iteration #  6     ecut=    40.00 Ry     beta=0.60
     Davidson diagonalization with overlap
     ethr =  1.00E-02,  avg # of iterations =  1.0

     total cpu time spent up to now is   677705.5 secs

     total energy              =    -706.46159117 Ry
     Harris-Foulkes estimate   =    -707.74483314 Ry
     estimated scf accuracy    <      20.69914279 Ry

     iteration #  7     ecut=    40.00 Ry     beta=0.60
     Davidson diagonalization with overlap
     ethr =  1.00E-02,  avg # of iterations =  1.1

     total cpu time spent up to now is   678024.3 secs

     total energy              =    -705.36926603 Ry
     Harris-Foulkes estimate   =    -706.56067380 Ry
     estimated scf accuracy    <      16.03684539 Ry

     iteration #  8     ecut=    40.00 Ry     beta=0.60
     Davidson diagonalization with overlap
     ethr =  1.00E-02,  avg # of iterations =  2.2

     total cpu time spent up to now is   678348.9 secs

     total energy              =    -705.57380168 Ry
     Harris-Foulkes estimate   =    -705.55595854 Ry
     estimated scf accuracy    <       9.00709398 Ry

     iteration #  9     ecut=    40.00 Ry     beta=0.60
     Davidson diagonalization with overlap
     ethr =  1.00E-02,  avg # of iterations =  1.1

     total cpu time spent up to now is   678663.2 secs

     total energy              =    -705.15593216 Ry
     Harris-Foulkes estimate   =    -705.61831700 Ry
     estimated scf accuracy    <       8.44705453 Ry

     iteration # 10     ecut=    40.00 Ry     beta=0.60
     Davidson diagonalization with overlap
     ethr =  1.00E-02,  avg # of iterations =  1.3

     total cpu time spent up to now is   678978.1 secs

     total energy              =    -702.42427312 Ry
     Harris-Foulkes estimate   =    -705.23663313 Ry
     estimated scf accuracy    <       5.12923197 Ry

     iteration # 11     ecut=    40.00 Ry     beta=0.60
     Davidson diagonalization with overlap
     ethr =  6.75E-03,  avg # of iterations =  4.7

     total cpu time spent up to now is   679547.9 secs

     total energy              =    -702.99997371 Ry
     Harris-Foulkes estimate   =    -715.07855711 Ry
     estimated scf accuracy    <     132.86702820 Ry

     iteration # 12     ecut=    40.00 Ry     beta=0.60
     Davidson diagonalization with overlap
     ethr =  6.75E-03,  avg # of iterations =  3.6

     total cpu time spent up to now is   679952.1 secs

     total energy              =    -704.69206637 Ry
     Harris-Foulkes estimate   =    -705.64214481 Ry
     estimated scf accuracy    <      15.47314102 Ry

     iteration # 13     ecut=    40.00 Ry     beta=0.60
     Davidson diagonalization with overlap
     ethr =  6.75E-03,  avg # of iterations =  1.8

     total cpu time spent up to now is   680270.8 secs

     total energy              =    -704.95555656 Ry
     Harris-Foulkes estimate   =    -705.05883593 Ry
     estimated scf accuracy    <       2.20680881 Ry

     iteration # 14     ecut=    40.00 Ry     beta=0.60
     Davidson diagonalization with overlap
     ethr =  2.90E-03,  avg # of iterations =  4.5

     total cpu time spent up to now is   680629.2 secs

     total energy              =    -705.03969421 Ry
     Harris-Foulkes estimate   =    -705.07729858 Ry
     estimated scf accuracy    <       0.47308402 Ry

     iteration # 15     ecut=    40.00 Ry     beta=0.60
     Davidson diagonalization with overlap
     ethr =  6.22E-04,  avg # of iterations =  5.7

     total cpu time spent up to now is   681096.8 secs

     total energy              =    -704.97364421 Ry
     Harris-Foulkes estimate   =    -705.15964544 Ry
     estimated scf accuracy    <       1.30101218 Ry

     iteration # 16     ecut=    40.00 Ry     beta=0.60
     Davidson diagonalization with overlap
     ethr =  6.22E-04,  avg # of iterations =  2.5

     total cpu time spent up to now is   681423.9 secs

     total energy              =    -705.05360542 Ry
     Harris-Foulkes estimate   =    -705.02608887 Ry
     estimated scf accuracy    <       0.25277730 Ry

     iteration # 17     ecut=    40.00 Ry     beta=0.60
     Davidson diagonalization with overlap
     ethr =  3.33E-04,  avg # of iterations =  2.7

     total cpu time spent up to now is   681752.3 secs

     total energy              =    -705.13301809 Ry
     Harris-Foulkes estimate   =    -705.08618643 Ry
     estimated scf accuracy    <       0.82133929 Ry

     iteration # 18     ecut=    40.00 Ry     beta=0.60
     Davidson diagonalization with overlap
     ethr =  3.33E-04,  avg # of iterations =  1.9

     total cpu time spent up to now is   682071.9 secs

     total energy              =    -704.92775712 Ry
     Harris-Foulkes estimate   =    -705.14719893 Ry
     estimated scf accuracy    <       1.48184325 Ry

     iteration # 19     ecut=    40.00 Ry     beta=0.60
     Davidson diagonalization with overlap
     ethr =  3.33E-04,  avg # of iterations =  4.2

     total cpu time spent up to now is   682462.3 secs

     total energy              =    -704.98171707 Ry
     Harris-Foulkes estimate   =    -705.00805082 Ry
     estimated scf accuracy    <       0.13455945 Ry

     iteration # 20     ecut=    40.00 Ry     beta=0.60
     Davidson diagonalization with overlap
     ethr =  1.77E-04,  avg # of iterations =  4.5

     total cpu time spent up to now is   682841.0 secs

     total energy              =    -704.96631843 Ry
     Harris-Foulkes estimate   =    -704.99227411 Ry
     estimated scf accuracy    <       0.13235945 Ry

     iteration # 21     ecut=    40.00 Ry     beta=0.60
     Davidson diagonalization with overlap
     ethr =  1.74E-04,  avg # of iterations =  2.8

     total cpu time spent up to now is   683220.1 secs

     total energy              =    -704.95124622 Ry
     Harris-Foulkes estimate   =    -704.98408476 Ry
     estimated scf accuracy    <       0.17331042 Ry

     iteration # 22     ecut=    40.00 Ry     beta=0.60
     Davidson diagonalization with overlap
     ethr =  1.74E-04,  avg # of iterations =  2.6

     total cpu time spent up to now is   683557.7 secs

     total energy              =    -704.96429671 Ry
     Harris-Foulkes estimate   =    -704.97754766 Ry
     estimated scf accuracy    <       0.08827155 Ry

     iteration # 23     ecut=    40.00 Ry     beta=0.60
     Davidson diagonalization with overlap
     ethr =  1.16E-04,  avg # of iterations =  4.4

     total cpu time spent up to now is   683953.6 secs

     total energy              =    -704.95466870 Ry
     Harris-Foulkes estimate   =    -704.98812744 Ry
     estimated scf accuracy    <       0.26923007 Ry

     iteration # 24     ecut=    40.00 Ry     beta=0.60
     Davidson diagonalization with overlap
     ethr =  1.16E-04,  avg # of iterations =  3.2

     total cpu time spent up to now is   684310.9 secs

     total energy              =    -704.97052246 Ry
     Harris-Foulkes estimate   =    -704.97131076 Ry
     estimated scf accuracy    <       0.00559421 Ry

     iteration # 25     ecut=    40.00 Ry     beta=0.60
     Davidson diagonalization with overlap
     c_bands:  2 eigenvalues not converged
     c_bands:  1 eigenvalues not converged
     ethr =  7.36E-06,  avg # of iterations =  6.5

     total cpu time spent up to now is   684835.3 secs

     total energy              =    -704.97178700 Ry
     Harris-Foulkes estimate   =    -704.97208943 Ry
     estimated scf accuracy    <       0.00243947 Ry

     iteration # 26     ecut=    40.00 Ry     beta=0.60
     Davidson diagonalization with overlap
     ethr =  3.21E-06,  avg # of iterations =  1.1

     total cpu time spent up to now is   685146.1 secs

     total energy              =    -704.97184724 Ry
     Harris-Foulkes estimate   =    -704.97190585 Ry
     estimated scf accuracy    <       0.00030569 Ry

     iteration # 27     ecut=    40.00 Ry     beta=0.60
     Davidson diagonalization with overlap
     c_bands:  1 eigenvalues not converged
     ethr =  4.02E-07,  avg # of iterations =  4.3

     total cpu time spent up to now is   685566.7 secs

     total energy              =    -704.97189124 Ry
     Harris-Foulkes estimate   =    -704.97196460 Ry
     estimated scf accuracy    <       0.00050299 Ry

     iteration # 28     ecut=    40.00 Ry     beta=0.60
     Davidson diagonalization with overlap
     ethr =  4.02E-07,  avg # of iterations =  2.7

     total cpu time spent up to now is   685913.6 secs

     total energy              =    -704.97191073 Ry
     Harris-Foulkes estimate   =    -704.97193913 Ry
     estimated scf accuracy    <       0.00021566 Ry

     iteration # 29     ecut=    40.00 Ry     beta=0.60
     Davidson diagonalization with overlap
     ethr =  2.84E-07,  avg # of iterations =  1.8

     total cpu time spent up to now is   696771.8 secs

     total energy              =    -704.97192144 Ry
     Harris-Foulkes estimate   =    -704.97192810 Ry
     estimated scf accuracy    <       0.00004681 Ry

     iteration # 30     ecut=    40.00 Ry     beta=0.60
     Davidson diagonalization with overlap
     ethr =  6.16E-08,  avg # of iterations =  2.9

     total cpu time spent up to now is   697175.4 secs

     total energy              =    -704.97192577 Ry
     Harris-Foulkes estimate   =    -704.97192658 Ry
     estimated scf accuracy    <       0.00000409 Ry

     iteration # 31     ecut=    40.00 Ry     beta=0.60
     Davidson diagonalization with overlap
     ethr =  5.38E-09,  avg # of iterations =  4.0

     total cpu time spent up to now is   697653.0 secs

     total energy              =    -704.97192656 Ry
     Harris-Foulkes estimate   =    -704.97192681 Ry
     estimated scf accuracy    <       0.00000199 Ry

     iteration # 32     ecut=    40.00 Ry     beta=0.60
     Davidson diagonalization with overlap
     ethr =  2.62E-09,  avg # of iterations =  1.1

     total cpu time spent up to now is   697979.3 secs

     total energy              =    -704.97192661 Ry
     Harris-Foulkes estimate   =    -704.97192667 Ry
     estimated scf accuracy    <       0.00000033 Ry

     iteration # 33     ecut=    40.00 Ry     beta=0.60
     Davidson diagonalization with overlap
     ethr =  4.30E-10,  avg # of iterations =  3.4

     total cpu time spent up to now is   698385.7 secs

     total energy              =    -704.97192663 Ry
     Harris-Foulkes estimate   =    -704.97192670 Ry
     estimated scf accuracy    <       0.00000047 Ry

     iteration # 34     ecut=    40.00 Ry     beta=0.60
     Davidson diagonalization with overlap
     ethr =  4.30E-10,  avg # of iterations =  2.0

     total cpu time spent up to now is   698719.8 secs

     total energy              =    -704.97192666 Ry
     Harris-Foulkes estimate   =    -704.97192667 Ry
     estimated scf accuracy    <       0.00000002 Ry

     iteration # 35     ecut=    40.00 Ry     beta=0.60
     Davidson diagonalization with overlap
     ethr =  3.06E-11,  avg # of iterations =  3.7

     total cpu time spent up to now is   699146.3 secs

     total energy              =    -704.97192667 Ry
     Harris-Foulkes estimate   =    -704.97192667 Ry
     estimated scf accuracy    <          9.5E-09 Ry

     iteration # 36     ecut=    40.00 Ry     beta=0.60
     Davidson diagonalization with overlap
     ethr =  1.25E-11,  avg # of iterations =  1.6

     total cpu time spent up to now is   699500.1 secs

     total energy              =    -704.97192667 Ry
     Harris-Foulkes estimate   =    -704.97192667 Ry
     estimated scf accuracy    <          2.4E-09 Ry

     iteration # 37     ecut=    40.00 Ry     beta=0.60
     Davidson diagonalization with overlap
     ethr =  3.21E-12,  avg # of iterations =  3.1

     total cpu time spent up to now is   700038.6 secs

     total energy              =    -704.97192667 Ry
     Harris-Foulkes estimate   =    -704.97192667 Ry
     estimated scf accuracy    <          1.4E-09 Ry

     iteration # 38     ecut=    40.00 Ry     beta=0.60
     Davidson diagonalization with overlap
     ethr =  1.87E-12,  avg # of iterations =  1.2

     total cpu time spent up to now is   700461.0 secs

     total energy              =    -704.97192667 Ry
     Harris-Foulkes estimate   =    -704.97192667 Ry
     estimated scf accuracy    <          8.0E-11 Ry

     iteration # 39     ecut=    40.00 Ry     beta=0.60
     Davidson diagonalization with overlap
     ethr =  1.05E-13,  avg # of iterations =  4.2

     total cpu time spent up to now is   700937.1 secs

     total energy              =    -704.97192667 Ry
     Harris-Foulkes estimate   =    -704.97192667 Ry
     estimated scf accuracy    <          7.6E-11 Ry

     iteration # 40     ecut=    40.00 Ry     beta=0.60
     Davidson diagonalization with overlap
     ethr =  1.00E-13,  avg # of iterations =  1.0

     total cpu time spent up to now is   701272.5 secs

     total energy              =    -704.97192667 Ry
     Harris-Foulkes estimate   =    -704.97192667 Ry
     estimated scf accuracy    <          1.7E-11 Ry

     iteration # 41     ecut=    40.00 Ry     beta=0.60
     Davidson diagonalization with overlap
     ethr =  1.00E-13,  avg # of iterations =  1.0

     total cpu time spent up to now is   701618.9 secs

     End of self-consistent calculation

     Number of k-points >= 100: set verbosity='high' to print the bands.

     the Fermi energy is    16.3743 ev

!    total energy              =    -704.97192667 Ry
     Harris-Foulkes estimate   =    -704.97192667 Ry
     estimated scf accuracy    <          1.2E-12 Ry

     The total energy is the sum of the following terms:

     one-electron contribution =    -151.66440093 Ry
     hartree contribution      =     110.28346499 Ry
     xc contribution           =    -102.77815416 Ry
     ewald contribution        =    -560.81315452 Ry
     smearing contrib. (-TS)   =       0.00031795 Ry

     convergence has been achieved in  41 iterations

     Forces acting on atoms (Ry/au):

     atom    1 type  2   force =     0.00009513   -0.00005492   -0.00011726
     atom    2 type  2   force =    -0.00009497    0.00005483    0.00011730
     atom    3 type  1   force =    -0.00000015    0.00000008   -0.00003439
     atom    4 type  1   force =    -0.00000624    0.00000360    0.00000646
     atom    5 type  1   force =     0.00000621   -0.00000359   -0.00000657
     atom    6 type  1   force =     0.00000002   -0.00000001    0.00003447

     Total force =     0.000233     Total SCF correction =     0.000005


     entering subroutine stress ...

          total   stress  (Ry/bohr**3)                   (kbar)     P=   -1.18
  -0.00000247  -0.00000943   0.00000154         -0.36     -1.39      0.23
  -0.00000943  -0.00001337  -0.00000089         -1.39     -1.97     -0.13
   0.00000154  -0.00000089  -0.00000823          0.23     -0.13     -1.21


     init_run     :    445.55s CPU    447.75s WALL (       2 calls)
     electrons    : 331964.48s CPU 694416.59s WALL (      40 calls)
     update_pot   :    341.05s CPU    341.98s WALL (      38 calls)
     forces       :   2617.54s CPU   2627.60s WALL (      40 calls)
     stress       :   3860.59s CPU   3889.70s WALL (      40 calls)

     Called by init_run:
     wfcinit      :    433.13s CPU    434.91s WALL (       2 calls)
     potinit      :      4.14s CPU      4.20s WALL (       2 calls)

     Called by electrons:
     c_bands      : 290225.09s CPU 599617.85s WALL (     765 calls)
     sum_band     :  40793.15s CPU  93715.55s WALL (     765 calls)
     v_of_rho     :    218.69s CPU    225.32s WALL (     796 calls)
     newd         :    751.10s CPU    888.77s WALL (     796 calls)
     mix_rho      :     14.72s CPU     14.85s WALL (     765 calls)

     Called by c_bands:
     init_us_2    :   1390.80s CPU   1396.09s WALL (  641576 calls)
     cegterg      : 285948.70s CPU 595332.57s WALL (  304470 calls)

     Called by sum_band:
     sum_band:bec :     60.38s CPU     60.56s WALL (  304470 calls)
     addusdens    :    755.42s CPU    891.84s WALL (     765 calls)

     Called by *egterg:
     h_psi        : 180835.98s CPU 364697.37s WALL ( 1265388 calls)
     s_psi        :  25140.00s CPU  33801.59s WALL ( 1265388 calls)
     g_psi        :    306.03s CPU    307.07s WALL (  960122 calls)
     cdiaghg      :   8592.20s CPU   8600.04s WALL ( 1245886 calls)

     Called by h_psi:
     h_psi:pot    : 180453.11s CPU 364311.64s WALL ( 1265388 calls)
     h_psi:calbec :  27463.63s CPU  27484.58s WALL ( 1265388 calls)
     vloc_psi     : 128094.82s CPU 166764.27s WALL ( 1265388 calls)
     add_vuspsi   :  24883.81s CPU 170055.91s WALL ( 1265388 calls)

     General routines
     calbec       :  41068.89s CPU  93708.02s WALL ( 1649458 calls)
     fft          :     90.30s CPU     91.96s WALL (   13650 calls)
     ffts         :      2.97s CPU      2.98s WALL (    1561 calls)
     fftw         : 131303.71s CPU 169881.73s WALL (85306288 calls)
     interpolate  :     15.58s CPU     15.62s WALL (    1561 calls)

     Parallel routines
     fft_scatter  :   7237.45s CPU   7254.16s WALL (85321499 calls)

     PWSCF        :     3d   22h14m CPU        8d    2h56m WALL


   This run was terminated on:  16:27:33  12Mar2020            

=------------------------------------------------------------------------------=
   JOB DONE.
=------------------------------------------------------------------------------=
