
     Program PWSCF v.6.3MaX starts on 26Mar2020 at 18:16:19 

     This program is part of the open-source Quantum ESPRESSO suite
     for quantum simulation of materials; please cite
         "P. Giannozzi et al., J. Phys.:Condens. Matter 21 395502 (2009);
         "P. Giannozzi et al., J. Phys.:Condens. Matter 29 465901 (2017);
          URL http://www.quantum-espresso.org", 
     in publications or presentations arising from this work. More details at
     http://www.quantum-espresso.org/quote

     Parallel version (MPI), running on     4 processors

     MPI processes distributed on     1 nodes
     R & G space division:  proc/nbgrp/npool/nimage =       4
     Waiting for input...
     Reading input from standard input

     Current dimensions of program PWSCF are:
     Max number of different atomic species (ntypx) = 10
     Max number of k-points (npk) =  40000
     Max angular momentum in pseudopotentials (lmaxx) =  3
     Message from routine iosys:
     minimal I/O required, wf_collect reset to FALSE

     Subspace diagonalization in iterative solution of the eigenvalue problem:
     a serial algorithm will be used

 
     Parallelization info
     --------------------
     sticks:   dense  smooth     PW     G-vecs:    dense   smooth      PW
     Min         431     171     53                36427     9205    1551
     Max         432     172     54                36434     9212    1556
     Sum        1727     687    213               145721    36835    6213
 


     bravais-lattice index     =            0
     lattice parameter (alat)  =       1.8897  a.u.
     unit-cell volume          =    1077.7903 (a.u.)^3
     number of atoms/cell      =            8
     number of atomic types    =            2
     number of electrons       =        97.00
     number of Kohn-Sham states=           59
     kinetic-energy cutoff     =      40.0000  Ry
     charge density cutoff     =     400.0000  Ry
     convergence threshold     =      1.0E-10
     mixing beta               =       0.6000
     number of iterations used =            8  plain     mixing
     Exchange-correlation      = SLA PW PBE PBE ( 1  4  3  4 0 0)
     nstep                     =           50


     celldm(1)=   1.889726  celldm(2)=   0.000000  celldm(3)=   0.000000
     celldm(4)=   0.000000  celldm(5)=   0.000000  celldm(6)=   0.000000

     crystal axes: (cart. coord. in units of alat)
               a(1) = (   1.522502  -2.637051   0.000000 )  
               a(2) = (   0.000000   0.000000  -4.972461 )  
               a(3) = (   9.135012   5.274102   0.000000 )  

     reciprocal axes: (cart. coord. in units 2 pi/alat)
               b(1) = (  0.164203 -0.284409  0.000000 )  
               b(2) = (  0.000000  0.000000 -0.201108 )  
               b(3) = (  0.082102  0.047401  0.000000 )  


     PseudoPot. # 1 for Nb read from file:
     ./Nb.pbe-nsp-van.UPF
     MD5 check sum: 0a22fc7fb0ba19a08ca5db297a5d2854
     Pseudo is Ultrasoft + core correction, Zval = 13.0
     Generated by new atomic code, or converted to UPF format
     Using radial grid of  887 points,  6 beta functions with: 
                l(1) =   0
                l(2) =   0
                l(3) =   1
                l(4) =   1
                l(5) =   2
                l(6) =   2
     Q(r) pseudized with  6 coefficients,  rinner =    1.000   1.000   1.000
                                                       1.000   1.000

     PseudoPot. # 2 for Ti read from file:
     ./Ti.pbe-sp-van_ak.UPF
     MD5 check sum: f98fea3e8887528921fefa5636a534ca
     Pseudo is Ultrasoft, Zval = 12.0
     Generated by new atomic code, or converted to UPF format
     Using radial grid of  851 points,  6 beta functions with: 
                l(1) =   0
                l(2) =   0
                l(3) =   1
                l(4) =   1
                l(5) =   2
                l(6) =   2
     Q(r) pseudized with  8 coefficients,  rinner =    1.000   1.000   1.000
                                                       1.000   1.000

     atomic species   valence    mass     pseudopotential
        Nb            13.00    92.90638     Nb( 1.00)
        Ti            12.00    47.86700     Ti( 1.00)

      4 Sym. Ops. (no inversion) found



   Cartesian axes

     site n.     atom                  positions (alat units)
         1           Ti  tau(   1) = (   3.0450042   0.0000000  -4.9724614  )
         2           Ti  tau(   2) = (   3.0450058  -1.7580350  -2.4862307  )
         3           Ti  tau(   3) = (   6.0900085   0.0000000  -4.9724614  )
         4           Ti  tau(   4) = (   4.5675079   0.8790162  -2.4862307  )
         5           Ti  tau(   5) = (   7.6125106   2.6370512  -4.9724614  )
         6           Ti  tau(   6) = (   7.6125121   0.8790162  -2.4862307  )
         7           Ti  tau(   7) = (  10.6575148   2.6370512  -4.9724614  )
         8           Nb  tau(   8) = (   9.1350142   3.5160674  -2.4862307  )

     number of k points=   240  Marzari-Vanderbilt smearing, width (Ry)=  0.0200

     Number of k-points >= 100: set verbosity='high' to print them.

     Dense  grid:   145721 G-vectors     FFT dimensions: (  40,  60, 128)

     Smooth grid:    36835 G-vectors     FFT dimensions: (  24,  40,  81)

     Estimated max dynamical RAM per process >     391.47 MB

     Estimated total dynamical RAM >       1.53 GB

     Initial potential from superposition of free atoms

     starting charge   89.99696, renormalised to   97.00000
     Starting wfcs are   83 randomized atomic wfcs

     total cpu time spent up to now is       17.8 secs

     Self-consistent Calculation

     iteration #  1     ecut=    40.00 Ry     beta= 0.60
     Davidson diagonalization with overlap
     ethr =  1.00E-02,  avg # of iterations =  4.3

     total cpu time spent up to now is       74.7 secs

     total energy              =    -840.23318240 Ry
     Harris-Foulkes estimate   =    -942.20100411 Ry
     estimated scf accuracy    <     123.99258714 Ry

     iteration #  2     ecut=    40.00 Ry     beta= 0.60
     Davidson diagonalization with overlap
     ethr =  1.00E-02,  avg # of iterations = 11.5

     total cpu time spent up to now is      204.1 secs

     total energy              =    -856.88372101 Ry
     Harris-Foulkes estimate   =   -1270.82501543 Ry
     estimated scf accuracy    <    1888.69834992 Ry

     iteration #  3     ecut=    40.00 Ry     beta= 0.60
     Davidson diagonalization with overlap
     ethr =  1.00E-02,  avg # of iterations =  9.8

     total cpu time spent up to now is      320.1 secs

     total energy              =    -938.25692984 Ry
     Harris-Foulkes estimate   =    -964.82924975 Ry
     estimated scf accuracy    <     140.66261006 Ry

     iteration #  4     ecut=    40.00 Ry     beta= 0.60
     Davidson diagonalization with overlap
     ethr =  1.00E-02,  avg # of iterations =  5.0

     total cpu time spent up to now is      376.8 secs

     total energy              =    -940.36987860 Ry
     Harris-Foulkes estimate   =    -949.54290164 Ry
     estimated scf accuracy    <     152.84676576 Ry

     iteration #  5     ecut=    40.00 Ry     beta= 0.60
     Davidson diagonalization with overlap
     ethr =  1.00E-02,  avg # of iterations =  2.1

     total cpu time spent up to now is      409.3 secs

     total energy              =    -936.39157820 Ry
     Harris-Foulkes estimate   =    -943.24201985 Ry
     estimated scf accuracy    <     130.01448023 Ry

     iteration #  6     ecut=    40.00 Ry     beta= 0.60
     Davidson diagonalization with overlap
     ethr =  1.00E-02,  avg # of iterations =  2.9

     total cpu time spent up to now is      444.1 secs

     total energy              =    -935.47814574 Ry
     Harris-Foulkes estimate   =    -939.00826003 Ry
     estimated scf accuracy    <      80.31073266 Ry

     iteration #  7     ecut=    40.00 Ry     beta= 0.60
     Davidson diagonalization with overlap
     ethr =  1.00E-02,  avg # of iterations =  3.6

     total cpu time spent up to now is      480.8 secs

     total energy              =    -935.86496092 Ry
     Harris-Foulkes estimate   =    -936.50234857 Ry
     estimated scf accuracy    <      42.98250387 Ry

     iteration #  8     ecut=    40.00 Ry     beta= 0.60
     Davidson diagonalization with overlap
     ethr =  1.00E-02,  avg # of iterations =  1.2

     total cpu time spent up to now is      511.2 secs

     total energy              =    -937.17463310 Ry
     Harris-Foulkes estimate   =    -935.97912798 Ry
     estimated scf accuracy    <      36.70107494 Ry

     iteration #  9     ecut=    40.00 Ry     beta= 0.60
     Davidson diagonalization with overlap
     ethr =  1.00E-02,  avg # of iterations =  1.1

     total cpu time spent up to now is      541.4 secs

     total energy              =    -931.57656251 Ry
     Harris-Foulkes estimate   =    -937.33772676 Ry
     estimated scf accuracy    <      36.12826720 Ry

     iteration # 10     ecut=    40.00 Ry     beta= 0.60
     Davidson diagonalization with overlap
     ethr =  1.00E-02,  avg # of iterations =  6.0

     total cpu time spent up to now is      602.3 secs

     total energy              =    -936.72750840 Ry
     Harris-Foulkes estimate   =    -935.37565131 Ry
     estimated scf accuracy    <      36.09268839 Ry

     iteration # 11     ecut=    40.00 Ry     beta= 0.60
     Davidson diagonalization with overlap
     ethr =  1.00E-02,  avg # of iterations =  5.1

     total cpu time spent up to now is      650.4 secs

     total energy              =    -935.69218093 Ry
     Harris-Foulkes estimate   =    -939.63207646 Ry
     estimated scf accuracy    <     129.11230906 Ry

     iteration # 12     ecut=    40.00 Ry     beta= 0.60
     Davidson diagonalization with overlap
     ethr =  1.00E-02,  avg # of iterations =  1.0

     total cpu time spent up to now is      680.4 secs

     total energy              =    -934.49239180 Ry
     Harris-Foulkes estimate   =    -936.16449194 Ry
     estimated scf accuracy    <      62.17661662 Ry

     iteration # 13     ecut=    40.00 Ry     beta= 0.60
     Davidson diagonalization with overlap
     ethr =  1.00E-02,  avg # of iterations =  1.1

     total cpu time spent up to now is      710.5 secs

     total energy              =    -933.79354879 Ry
     Harris-Foulkes estimate   =    -935.05071518 Ry
     estimated scf accuracy    <      27.50403156 Ry

     iteration # 14     ecut=    40.00 Ry     beta= 0.60
     Davidson diagonalization with overlap
     ethr =  1.00E-02,  avg # of iterations =  1.0

     total cpu time spent up to now is      740.5 secs

     total energy              =    -934.37369128 Ry
     Harris-Foulkes estimate   =    -934.40098571 Ry
     estimated scf accuracy    <       2.74734364 Ry

     iteration # 15     ecut=    40.00 Ry     beta= 0.60
     Davidson diagonalization with overlap
     ethr =  2.83E-03,  avg # of iterations =  5.3

     total cpu time spent up to now is      786.0 secs

     total energy              =    -933.96647681 Ry
     Harris-Foulkes estimate   =    -934.81945109 Ry
     estimated scf accuracy    <       8.58700755 Ry

     iteration # 16     ecut=    40.00 Ry     beta= 0.60
     Davidson diagonalization with overlap
     ethr =  2.83E-03,  avg # of iterations =  5.9

     total cpu time spent up to now is      834.1 secs

     total energy              =    -934.39871846 Ry
     Harris-Foulkes estimate   =    -934.59480020 Ry
     estimated scf accuracy    <       4.55584618 Ry

     iteration # 17     ecut=    40.00 Ry     beta= 0.60
     Davidson diagonalization with overlap
     ethr =  2.83E-03,  avg # of iterations =  1.4

     total cpu time spent up to now is      864.9 secs

     total energy              =    -934.49298062 Ry
     Harris-Foulkes estimate   =    -934.54369615 Ry
     estimated scf accuracy    <       2.08828542 Ry

     iteration # 18     ecut=    40.00 Ry     beta= 0.60
     Davidson diagonalization with overlap
     ethr =  2.15E-03,  avg # of iterations =  1.1

     total cpu time spent up to now is      895.2 secs

     total energy              =    -934.29981465 Ry
     Harris-Foulkes estimate   =    -934.54164118 Ry
     estimated scf accuracy    <       2.60903244 Ry

     iteration # 19     ecut=    40.00 Ry     beta= 0.60
     Davidson diagonalization with overlap
     ethr =  2.15E-03,  avg # of iterations =  3.1

     total cpu time spent up to now is      930.1 secs

     total energy              =    -934.30155368 Ry
     Harris-Foulkes estimate   =    -934.50249353 Ry
     estimated scf accuracy    <       2.48904323 Ry

     iteration # 20     ecut=    40.00 Ry     beta= 0.60
     Davidson diagonalization with overlap
     ethr =  2.15E-03,  avg # of iterations =  1.1

     total cpu time spent up to now is      960.4 secs

     total energy              =    -934.39441424 Ry
     Harris-Foulkes estimate   =    -934.41799376 Ry
     estimated scf accuracy    <       0.49728697 Ry

     iteration # 21     ecut=    40.00 Ry     beta= 0.60
     Davidson diagonalization with overlap
     ethr =  5.13E-04,  avg # of iterations =  4.8

     total cpu time spent up to now is     1000.2 secs

     total energy              =    -934.37998051 Ry
     Harris-Foulkes estimate   =    -934.41688797 Ry
     estimated scf accuracy    <       0.39472001 Ry

     iteration # 22     ecut=    40.00 Ry     beta= 0.60
     Davidson diagonalization with overlap
     ethr =  4.07E-04,  avg # of iterations =  5.8

     total cpu time spent up to now is     1053.7 secs

     total energy              =    -934.33019029 Ry
     Harris-Foulkes estimate   =    -934.51077128 Ry
     estimated scf accuracy    <       1.92613072 Ry

     iteration # 23     ecut=    40.00 Ry     beta= 0.60
     Davidson diagonalization with overlap
     ethr =  4.07E-04,  avg # of iterations =  4.7

     total cpu time spent up to now is     1097.2 secs

     total energy              =    -934.38232412 Ry
     Harris-Foulkes estimate   =    -934.42121232 Ry
     estimated scf accuracy    <       0.39941897 Ry

     iteration # 24     ecut=    40.00 Ry     beta= 0.60
     Davidson diagonalization with overlap
     ethr =  4.07E-04,  avg # of iterations =  1.3

     total cpu time spent up to now is     1127.8 secs

     total energy              =    -934.39572336 Ry
     Harris-Foulkes estimate   =    -934.40562919 Ry
     estimated scf accuracy    <       0.04781993 Ry

     iteration # 25     ecut=    40.00 Ry     beta= 0.60
     Davidson diagonalization with overlap
     c_bands:  1 eigenvalues not converged
     c_bands:  2 eigenvalues not converged
     ethr =  4.93E-05,  avg # of iterations =  7.2

     total cpu time spent up to now is     1198.3 secs

     total energy              =    -934.38075037 Ry
     Harris-Foulkes estimate   =    -934.44030081 Ry
     estimated scf accuracy    <       0.77762989 Ry

     iteration # 26     ecut=    40.00 Ry     beta= 0.60
     Davidson diagonalization with overlap
     ethr =  4.93E-05,  avg # of iterations =  6.3

     total cpu time spent up to now is     1256.5 secs

     total energy              =    -934.40688564 Ry
     Harris-Foulkes estimate   =    -934.41248209 Ry
     estimated scf accuracy    <       0.06874425 Ry

     iteration # 27     ecut=    40.00 Ry     beta= 0.60
     Davidson diagonalization with overlap
     ethr =  4.93E-05,  avg # of iterations =  1.2

     total cpu time spent up to now is     1286.9 secs

     total energy              =    -934.40850228 Ry
     Harris-Foulkes estimate   =    -934.40911527 Ry
     estimated scf accuracy    <       0.00778579 Ry

     iteration # 28     ecut=    40.00 Ry     beta= 0.60
     Davidson diagonalization with overlap
     c_bands:  1 eigenvalues not converged
     c_bands:  1 eigenvalues not converged
     ethr =  8.03E-06,  avg # of iterations =  8.2

     total cpu time spent up to now is     1350.1 secs

     total energy              =    -934.40913094 Ry
     Harris-Foulkes estimate   =    -934.41008679 Ry
     estimated scf accuracy    <       0.01112425 Ry

     iteration # 29     ecut=    40.00 Ry     beta= 0.60
     Davidson diagonalization with overlap
     ethr =  8.03E-06,  avg # of iterations =  1.0

     total cpu time spent up to now is     1380.1 secs

     total energy              =    -934.40935843 Ry
     Harris-Foulkes estimate   =    -934.40955699 Ry
     estimated scf accuracy    <       0.00325421 Ry

     iteration # 30     ecut=    40.00 Ry     beta= 0.60
     Davidson diagonalization with overlap
     ethr =  3.35E-06,  avg # of iterations =  4.5

     total cpu time spent up to now is     1420.8 secs

     total energy              =    -934.40945112 Ry
     Harris-Foulkes estimate   =    -934.40972519 Ry
     estimated scf accuracy    <       0.00230632 Ry

     iteration # 31     ecut=    40.00 Ry     beta= 0.60
     Davidson diagonalization with overlap
     c_bands:  1 eigenvalues not converged
     ethr =  2.38E-06,  avg # of iterations =  1.4

     total cpu time spent up to now is     1451.7 secs

     total energy              =    -934.40950265 Ry
     Harris-Foulkes estimate   =    -934.40956438 Ry
     estimated scf accuracy    <       0.00044603 Ry

     iteration # 32     ecut=    40.00 Ry     beta= 0.60
     Davidson diagonalization with overlap
     ethr =  4.60E-07,  avg # of iterations =  5.3

     total cpu time spent up to now is     1502.6 secs

     total energy              =    -934.40959695 Ry
     Harris-Foulkes estimate   =    -934.40962517 Ry
     estimated scf accuracy    <       0.00033012 Ry

     iteration # 33     ecut=    40.00 Ry     beta= 0.60
     Davidson diagonalization with overlap
     ethr =  3.40E-07,  avg # of iterations =  1.0

     total cpu time spent up to now is     1532.5 secs

     total energy              =    -934.40958940 Ry
     Harris-Foulkes estimate   =    -934.40960507 Ry
     estimated scf accuracy    <       0.00010727 Ry

     iteration # 34     ecut=    40.00 Ry     beta= 0.60
     Davidson diagonalization with overlap
     ethr =  1.11E-07,  avg # of iterations =  4.1

     total cpu time spent up to now is     1576.5 secs

     total energy              =    -934.40959939 Ry
     Harris-Foulkes estimate   =    -934.40961286 Ry
     estimated scf accuracy    <       0.00013855 Ry

     iteration # 35     ecut=    40.00 Ry     beta= 0.60
     Davidson diagonalization with overlap
     ethr =  1.11E-07,  avg # of iterations =  1.1

     total cpu time spent up to now is     1606.7 secs

     total energy              =    -934.40960135 Ry
     Harris-Foulkes estimate   =    -934.40960812 Ry
     estimated scf accuracy    <       0.00007956 Ry

     iteration # 36     ecut=    40.00 Ry     beta= 0.60
     Davidson diagonalization with overlap
     ethr =  8.20E-08,  avg # of iterations =  1.0

     total cpu time spent up to now is     1636.6 secs

     total energy              =    -934.40960473 Ry
     Harris-Foulkes estimate   =    -934.40960677 Ry
     estimated scf accuracy    <       0.00003242 Ry

     iteration # 37     ecut=    40.00 Ry     beta= 0.60
     Davidson diagonalization with overlap
     ethr =  3.34E-08,  avg # of iterations =  3.6

     total cpu time spent up to now is     1674.1 secs

     total energy              =    -934.40960493 Ry
     Harris-Foulkes estimate   =    -934.40960784 Ry
     estimated scf accuracy    <       0.00002891 Ry

     iteration # 38     ecut=    40.00 Ry     beta= 0.60
     Davidson diagonalization with overlap
     ethr =  2.98E-08,  avg # of iterations =  1.2

     total cpu time spent up to now is     1704.4 secs

     total energy              =    -934.40960553 Ry
     Harris-Foulkes estimate   =    -934.40960634 Ry
     estimated scf accuracy    <       0.00000636 Ry

     iteration # 39     ecut=    40.00 Ry     beta= 0.60
     Davidson diagonalization with overlap
     ethr =  6.55E-09,  avg # of iterations =  4.8

     total cpu time spent up to now is     1751.2 secs

     total energy              =    -934.40960655 Ry
     Harris-Foulkes estimate   =    -934.40960681 Ry
     estimated scf accuracy    <       0.00000225 Ry

     iteration # 40     ecut=    40.00 Ry     beta= 0.60
     Davidson diagonalization with overlap
     ethr =  2.31E-09,  avg # of iterations =  2.2

     total cpu time spent up to now is     1783.4 secs

     total energy              =    -934.40960660 Ry
     Harris-Foulkes estimate   =    -934.40960667 Ry
     estimated scf accuracy    <       0.00000034 Ry

     iteration # 41     ecut=    40.00 Ry     beta= 0.60
     Davidson diagonalization with overlap
     ethr =  3.47E-10,  avg # of iterations =  5.5

     total cpu time spent up to now is     1836.8 secs

     total energy              =    -934.40960669 Ry
     Harris-Foulkes estimate   =    -934.40960681 Ry
     estimated scf accuracy    <       0.00000166 Ry

     iteration # 42     ecut=    40.00 Ry     beta= 0.60
     Davidson diagonalization with overlap
     ethr =  3.47E-10,  avg # of iterations =  2.5

     total cpu time spent up to now is     1870.0 secs

     total energy              =    -934.40960668 Ry
     Harris-Foulkes estimate   =    -934.40960672 Ry
     estimated scf accuracy    <       0.00000054 Ry

     iteration # 43     ecut=    40.00 Ry     beta= 0.60
     Davidson diagonalization with overlap
     ethr =  3.47E-10,  avg # of iterations =  3.8

     total cpu time spent up to now is     1909.8 secs

     total energy              =    -934.40960671 Ry
     Harris-Foulkes estimate   =    -934.40960671 Ry
     estimated scf accuracy    <       0.00000006 Ry

     iteration # 44     ecut=    40.00 Ry     beta= 0.60
     Davidson diagonalization with overlap
     ethr =  6.17E-11,  avg # of iterations =  5.0

     total cpu time spent up to now is     1954.4 secs

     total energy              =    -934.40960671 Ry
     Harris-Foulkes estimate   =    -934.40960672 Ry
     estimated scf accuracy    <       0.00000002 Ry

     iteration # 45     ecut=    40.00 Ry     beta= 0.60
     Davidson diagonalization with overlap
     ethr =  1.66E-11,  avg # of iterations =  4.1

     total cpu time spent up to now is     1996.0 secs

     total energy              =    -934.40960672 Ry
     Harris-Foulkes estimate   =    -934.40960672 Ry
     estimated scf accuracy    <          8.6E-09 Ry

     iteration # 46     ecut=    40.00 Ry     beta= 0.60
     Davidson diagonalization with overlap
     ethr =  8.84E-12,  avg # of iterations =  4.5

     total cpu time spent up to now is     2038.7 secs

     total energy              =    -934.40960672 Ry
     Harris-Foulkes estimate   =    -934.40960672 Ry
     estimated scf accuracy    <       0.00000007 Ry

     iteration # 47     ecut=    40.00 Ry     beta= 0.60
     Davidson diagonalization with overlap
     ethr =  8.84E-12,  avg # of iterations =  4.5

     total cpu time spent up to now is     2080.0 secs

     total energy              =    -934.40960672 Ry
     Harris-Foulkes estimate   =    -934.40960672 Ry
     estimated scf accuracy    <       0.00000003 Ry

     iteration # 48     ecut=    40.00 Ry     beta= 0.60
     Davidson diagonalization with overlap
     ethr =  8.84E-12,  avg # of iterations =  3.4

     total cpu time spent up to now is     2115.8 secs

     total energy              =    -934.40960672 Ry
     Harris-Foulkes estimate   =    -934.40960672 Ry
     estimated scf accuracy    <          1.9E-09 Ry

     iteration # 49     ecut=    40.00 Ry     beta= 0.60
     Davidson diagonalization with overlap
     ethr =  1.96E-12,  avg # of iterations =  5.2

     total cpu time spent up to now is     2165.9 secs

     total energy              =    -934.40960672 Ry
     Harris-Foulkes estimate   =    -934.40960672 Ry
     estimated scf accuracy    <          1.4E-09 Ry

     iteration # 50     ecut=    40.00 Ry     beta= 0.60
     Davidson diagonalization with overlap
     ethr =  1.43E-12,  avg # of iterations =  1.0

     total cpu time spent up to now is     2195.8 secs

     total energy              =    -934.40960672 Ry
     Harris-Foulkes estimate   =    -934.40960672 Ry
     estimated scf accuracy    <          6.3E-10 Ry

     iteration # 51     ecut=    40.00 Ry     beta= 0.60
     Davidson diagonalization with overlap
     ethr =  6.49E-13,  avg # of iterations =  1.9

     total cpu time spent up to now is     2227.7 secs

     total energy              =    -934.40960672 Ry
     Harris-Foulkes estimate   =    -934.40960672 Ry
     estimated scf accuracy    <          1.7E-10 Ry

     iteration # 52     ecut=    40.00 Ry     beta= 0.60
     Davidson diagonalization with overlap
     ethr =  1.77E-13,  avg # of iterations =  5.0

     total cpu time spent up to now is     2276.6 secs

     total energy              =    -934.40960672 Ry
     Harris-Foulkes estimate   =    -934.40960672 Ry
     estimated scf accuracy    <          1.6E-10 Ry

     iteration # 53     ecut=    40.00 Ry     beta= 0.60
     Davidson diagonalization with overlap
     ethr =  1.67E-13,  avg # of iterations =  1.0

     total cpu time spent up to now is     2306.5 secs

     End of self-consistent calculation

     Number of k-points >= 100: set verbosity='high' to print the bands.

     the Fermi energy is    11.9187 ev

!    total energy              =    -934.40960672 Ry
     Harris-Foulkes estimate   =    -934.40960672 Ry
     estimated scf accuracy    <          5.8E-11 Ry

     The total energy is the sum of the following terms:

     one-electron contribution =    -353.09125127 Ry
     hartree contribution      =     200.62730880 Ry
     xc contribution           =    -119.27649337 Ry
     ewald contribution        =    -662.66691718 Ry
     smearing contrib. (-TS)   =      -0.00225370 Ry

     convergence has been achieved in  53 iterations

     Forces acting on atoms (cartesian axes, Ry/au):

     atom    1 type  2   force =     0.00086816    0.00050123    0.00000000
     atom    2 type  2   force =    -0.00040142   -0.00023176    0.00000000
     atom    3 type  2   force =    -0.00025275   -0.00014593    0.00000000
     atom    4 type  2   force =    -0.00009072   -0.00005238    0.00000000
     atom    5 type  2   force =     0.00013817    0.00007977    0.00000000
     atom    6 type  2   force =     0.00131184    0.00075739    0.00000000
     atom    7 type  2   force =    -0.00049390   -0.00028516    0.00000000
     atom    8 type  1   force =    -0.00107938   -0.00062318    0.00000000

     Total force =     0.002348     Total SCF correction =     0.000007


     Computing stress (Cartesian axis) and pressure

          total   stress  (Ry/bohr**3)                   (kbar)     P= -133.91
  -0.00086499   0.00000863   0.00000000       -127.24      1.27      0.00
   0.00000863  -0.00087495   0.00000000          1.27   -128.71      0.00
   0.00000000   0.00000000  -0.00099102          0.00      0.00   -145.78


     BFGS Geometry Optimization

     number of scf cycles    =   1
     number of bfgs steps    =   0

     enthalpy new            =    -934.4096067177 Ry

     new trust radius        =       0.1626744080 bohr
     new conv_thr            =            1.0E-10 Ry

     new unit-cell volume =   1005.86391 a.u.^3 (   149.05365 Ang^3 )
     density =      4.76788 g/cm^3

CELL_PARAMETERS (alat=  1.88972599)
   1.489009497  -2.579040287   0.000000000
   0.000000000   0.000000000  -4.849265884
   8.938607273   5.160707686   0.000000000

ATOMIC_POSITIONS (angstrom)
Ti       2.979606100   0.000916316  -4.849265884
Ti       2.978571011  -1.719043204  -2.424632942
Ti       5.958182259   0.001237996  -4.849265884
Ti       4.468878961   0.860746745  -2.424632942
Ti       7.448531750   2.581051928  -4.849265884
Ti       7.448761770   0.861822819  -2.424632942
Ti      10.427361026   2.581519745  -4.849265884
Nb       8.937670670   3.440805027  -2.424632942


     NEW-OLD atomic charge density approx. for the potential
     extrapolated charge   90.56458, renormalised to   97.00000

     total cpu time spent up to now is     2329.9 secs

     Self-consistent Calculation

     iteration #  1     ecut=    40.00 Ry     beta= 0.60
     Davidson diagonalization with overlap
     c_bands:  3 eigenvalues not converged
     c_bands:  1 eigenvalues not converged
     c_bands:  3 eigenvalues not converged
     c_bands:  3 eigenvalues not converged
     c_bands:  2 eigenvalues not converged
     c_bands:  2 eigenvalues not converged
     c_bands:  4 eigenvalues not converged
     c_bands:  4 eigenvalues not converged
     c_bands:  2 eigenvalues not converged
     c_bands:  4 eigenvalues not converged
     c_bands:  1 eigenvalues not converged
     c_bands:  5 eigenvalues not converged
     c_bands:  5 eigenvalues not converged
     c_bands:  4 eigenvalues not converged
     c_bands:  5 eigenvalues not converged
     c_bands:  2 eigenvalues not converged
     c_bands:  4 eigenvalues not converged
     c_bands:  4 eigenvalues not converged
     c_bands:  5 eigenvalues not converged
     c_bands:  5 eigenvalues not converged
     c_bands:  5 eigenvalues not converged
     c_bands:  5 eigenvalues not converged
     c_bands:  4 eigenvalues not converged
     c_bands:  5 eigenvalues not converged
     c_bands:  1 eigenvalues not converged
     c_bands:  1 eigenvalues not converged
     c_bands:  1 eigenvalues not converged
     c_bands:  1 eigenvalues not converged
     c_bands:  1 eigenvalues not converged
     c_bands:  2 eigenvalues not converged
     c_bands:  1 eigenvalues not converged
     c_bands:  1 eigenvalues not converged
     c_bands:  1 eigenvalues not converged
     c_bands:  1 eigenvalues not converged
     c_bands:  2 eigenvalues not converged
     c_bands:  2 eigenvalues not converged
     c_bands:  1 eigenvalues not converged
     c_bands:  2 eigenvalues not converged
     c_bands:  2 eigenvalues not converged
     c_bands:  1 eigenvalues not converged
     c_bands:  1 eigenvalues not converged
     c_bands:  1 eigenvalues not converged
     c_bands:  1 eigenvalues not converged
     c_bands:  2 eigenvalues not converged
     c_bands:  1 eigenvalues not converged
     c_bands:  1 eigenvalues not converged
     c_bands:  2 eigenvalues not converged
     c_bands:  1 eigenvalues not converged
     c_bands:  2 eigenvalues not converged
     c_bands:  2 eigenvalues not converged
     c_bands:  1 eigenvalues not converged
     c_bands:  1 eigenvalues not converged
     c_bands:  1 eigenvalues not converged
     c_bands:  2 eigenvalues not converged
     c_bands:  1 eigenvalues not converged
     c_bands:  1 eigenvalues not converged
     c_bands:  1 eigenvalues not converged
     c_bands:  1 eigenvalues not converged
     c_bands:  1 eigenvalues not converged
     c_bands:  1 eigenvalues not converged
     c_bands:  1 eigenvalues not converged
     ethr =  1.00E-06,  avg # of iterations = 16.9

     total cpu time spent up to now is     2481.2 secs

     total energy              =    -916.80909084 Ry
     Harris-Foulkes estimate   =    -951.32505344 Ry
     estimated scf accuracy    <      19.87603451 Ry

     iteration #  2     ecut=    40.00 Ry     beta= 0.60
     Davidson diagonalization with overlap
     ethr =  1.00E-02,  avg # of iterations =  6.6

     total cpu time spent up to now is     2557.9 secs

     total energy              =    -904.07815729 Ry
     Harris-Foulkes estimate   =    -997.17611795 Ry
     estimated scf accuracy    <     598.93311381 Ry

     iteration #  3     ecut=    40.00 Ry     beta= 0.60
     Davidson diagonalization with overlap
     ethr =  1.00E-02,  avg # of iterations =  8.5

     total cpu time spent up to now is     2639.0 secs

     total energy              =    -932.68124058 Ry
     Harris-Foulkes estimate   =    -942.05787571 Ry
     estimated scf accuracy    <      38.80541926 Ry

     iteration #  4     ecut=    40.00 Ry     beta= 0.60
     Davidson diagonalization with overlap
     ethr =  1.00E-02,  avg # of iterations =  4.4

     total cpu time spent up to now is     2683.6 secs

     total energy              =    -933.92941616 Ry
     Harris-Foulkes estimate   =    -937.54599642 Ry
     estimated scf accuracy    <      45.55716822 Ry

     iteration #  5     ecut=    40.00 Ry     beta= 0.60
     Davidson diagonalization with overlap
     ethr =  1.00E-02,  avg # of iterations =  2.5

     total cpu time spent up to now is     2718.3 secs

     total energy              =    -934.14581604 Ry
     Harris-Foulkes estimate   =    -936.83584792 Ry
     estimated scf accuracy    <      42.50535184 Ry

     iteration #  6     ecut=    40.00 Ry     beta= 0.60
     Davidson diagonalization with overlap
     ethr =  1.00E-02,  avg # of iterations =  1.2

     total cpu time spent up to now is     2748.5 secs

     total energy              =    -934.82367170 Ry
     Harris-Foulkes estimate   =    -935.49251322 Ry
     estimated scf accuracy    <       7.20967674 Ry

     iteration #  7     ecut=    40.00 Ry     beta= 0.60
     Davidson diagonalization with overlap
     ethr =  7.43E-03,  avg # of iterations =  1.0

     total cpu time spent up to now is     2778.5 secs

     total energy              =    -934.78087787 Ry
     Harris-Foulkes estimate   =    -935.03110620 Ry
     estimated scf accuracy    <       3.51273715 Ry

     iteration #  8     ecut=    40.00 Ry     beta= 0.60
     Davidson diagonalization with overlap
     ethr =  3.62E-03,  avg # of iterations =  1.1

     total cpu time spent up to now is     2808.2 secs

     total energy              =    -934.65571258 Ry
     Harris-Foulkes estimate   =    -934.83394138 Ry
     estimated scf accuracy    <       3.02446172 Ry

     iteration #  9     ecut=    40.00 Ry     beta= 0.60
     Davidson diagonalization with overlap
     ethr =  3.12E-03,  avg # of iterations =  1.0

     total cpu time spent up to now is     2837.9 secs

     total energy              =    -934.54273473 Ry
     Harris-Foulkes estimate   =    -934.68913516 Ry
     estimated scf accuracy    <       2.26171378 Ry

     iteration # 10     ecut=    40.00 Ry     beta= 0.60
     Davidson diagonalization with overlap
     ethr =  2.33E-03,  avg # of iterations =  1.2

     total cpu time spent up to now is     2868.1 secs

     total energy              =    -933.92060515 Ry
     Harris-Foulkes estimate   =    -934.57502483 Ry
     estimated scf accuracy    <       1.50255311 Ry

     iteration # 11     ecut=    40.00 Ry     beta= 0.60
     Davidson diagonalization with overlap
     ethr =  1.55E-03,  avg # of iterations =  6.1

     total cpu time spent up to now is     2934.6 secs

     total energy              =    -934.53724320 Ry
     Harris-Foulkes estimate   =    -935.20894700 Ry
     estimated scf accuracy    <      23.38450155 Ry

     iteration # 12     ecut=    40.00 Ry     beta= 0.60
     Davidson diagonalization with overlap
     ethr =  1.55E-03,  avg # of iterations =  1.4

     total cpu time spent up to now is     2965.1 secs

     total energy              =    -934.44215547 Ry
     Harris-Foulkes estimate   =    -934.71982589 Ry
     estimated scf accuracy    <       6.16938111 Ry

     iteration # 13     ecut=    40.00 Ry     beta= 0.60
     Davidson diagonalization with overlap
     ethr =  1.55E-03,  avg # of iterations =  1.4

     total cpu time spent up to now is     2996.0 secs

     total energy              =    -934.45920745 Ry
     Harris-Foulkes estimate   =    -934.54118485 Ry
     estimated scf accuracy    <       3.36327913 Ry

     iteration # 14     ecut=    40.00 Ry     beta= 0.60
     Davidson diagonalization with overlap
     ethr =  1.55E-03,  avg # of iterations =  1.1

     total cpu time spent up to now is     3025.9 secs

     total energy              =    -934.49832944 Ry
     Harris-Foulkes estimate   =    -934.49256526 Ry
     estimated scf accuracy    <       2.41387426 Ry

     iteration # 15     ecut=    40.00 Ry     beta= 0.60
     Davidson diagonalization with overlap
     ethr =  1.55E-03,  avg # of iterations =  1.0

     total cpu time spent up to now is     3055.7 secs

     total energy              =    -934.41697653 Ry
     Harris-Foulkes estimate   =    -934.52914692 Ry
     estimated scf accuracy    <       2.75503826 Ry

     iteration # 16     ecut=    40.00 Ry     beta= 0.60
     Davidson diagonalization with overlap
     ethr =  1.55E-03,  avg # of iterations =  1.1

     total cpu time spent up to now is     3085.7 secs

     total energy              =    -934.40817170 Ry
     Harris-Foulkes estimate   =    -934.45722876 Ry
     estimated scf accuracy    <       0.79791252 Ry

     iteration # 17     ecut=    40.00 Ry     beta= 0.60
     Davidson diagonalization with overlap
     ethr =  8.23E-04,  avg # of iterations =  4.9

     total cpu time spent up to now is     3126.9 secs

     total energy              =    -934.44425518 Ry
     Harris-Foulkes estimate   =    -934.46375278 Ry
     estimated scf accuracy    <       0.17096623 Ry

     iteration # 18     ecut=    40.00 Ry     beta= 0.60
     Davidson diagonalization with overlap
     ethr =  1.76E-04,  avg # of iterations =  6.7

     total cpu time spent up to now is     3183.8 secs

     total energy              =    -934.46051115 Ry
     Harris-Foulkes estimate   =    -934.47127577 Ry
     estimated scf accuracy    <       0.13897734 Ry

     iteration # 19     ecut=    40.00 Ry     beta= 0.60
     Davidson diagonalization with overlap
     ethr =  1.43E-04,  avg # of iterations =  1.1

     total cpu time spent up to now is     3213.9 secs

     total energy              =    -934.46046365 Ry
     Harris-Foulkes estimate   =    -934.46453983 Ry
     estimated scf accuracy    <       0.07275946 Ry

     iteration # 20     ecut=    40.00 Ry     beta= 0.60
     Davidson diagonalization with overlap
     ethr =  7.50E-05,  avg # of iterations =  1.1

     total cpu time spent up to now is     3244.1 secs

     total energy              =    -934.44630859 Ry
     Harris-Foulkes estimate   =    -934.46276618 Ry
     estimated scf accuracy    <       0.03989949 Ry

     iteration # 21     ecut=    40.00 Ry     beta= 0.60
     Davidson diagonalization with overlap
     ethr =  4.11E-05,  avg # of iterations =  6.7

     total cpu time spent up to now is     3312.7 secs

     total energy              =    -934.43432695 Ry
     Harris-Foulkes estimate   =    -934.49658139 Ry
     estimated scf accuracy    <       0.59646965 Ry

     iteration # 22     ecut=    40.00 Ry     beta= 0.60
     Davidson diagonalization with overlap
     ethr =  4.11E-05,  avg # of iterations =  6.3

     total cpu time spent up to now is     3373.8 secs

     total energy              =    -934.46103923 Ry
     Harris-Foulkes estimate   =    -934.46284045 Ry
     estimated scf accuracy    <       0.02000445 Ry

     iteration # 23     ecut=    40.00 Ry     beta= 0.60
     Davidson diagonalization with overlap
     ethr =  2.06E-05,  avg # of iterations =  1.4

     total cpu time spent up to now is     3404.5 secs

     total energy              =    -934.46086391 Ry
     Harris-Foulkes estimate   =    -934.46147703 Ry
     estimated scf accuracy    <       0.00671028 Ry

     iteration # 24     ecut=    40.00 Ry     beta= 0.60
     Davidson diagonalization with overlap
     ethr =  6.92E-06,  avg # of iterations =  5.4

     total cpu time spent up to now is     3450.8 secs

     total energy              =    -934.46112145 Ry
     Harris-Foulkes estimate   =    -934.46164177 Ry
     estimated scf accuracy    <       0.00551470 Ry

     iteration # 25     ecut=    40.00 Ry     beta= 0.60
     Davidson diagonalization with overlap
     c_bands:  1 eigenvalues not converged
     ethr =  5.69E-06,  avg # of iterations =  2.8

     total cpu time spent up to now is     3484.7 secs

     total energy              =    -934.46109086 Ry
     Harris-Foulkes estimate   =    -934.46172671 Ry
     estimated scf accuracy    <       0.00758515 Ry

     iteration # 26     ecut=    40.00 Ry     beta= 0.60
     Davidson diagonalization with overlap
     ethr =  5.69E-06,  avg # of iterations =  3.2

     total cpu time spent up to now is     3520.4 secs

     total energy              =    -934.46123948 Ry
     Harris-Foulkes estimate   =    -934.46175842 Ry
     estimated scf accuracy    <       0.00582130 Ry

     iteration # 27     ecut=    40.00 Ry     beta= 0.60
     Davidson diagonalization with overlap
     ethr =  5.69E-06,  avg # of iterations =  1.0

     total cpu time spent up to now is     3550.1 secs

     total energy              =    -934.46142386 Ry
     Harris-Foulkes estimate   =    -934.46151844 Ry
     estimated scf accuracy    <       0.00078410 Ry

     iteration # 28     ecut=    40.00 Ry     beta= 0.60
     Davidson diagonalization with overlap
     c_bands:  1 eigenvalues not converged
     c_bands:  1 eigenvalues not converged
     c_bands:  1 eigenvalues not converged
     ethr =  8.08E-07,  avg # of iterations =  6.0

     total cpu time spent up to now is     3597.6 secs

     total energy              =    -934.46147038 Ry
     Harris-Foulkes estimate   =    -934.46153572 Ry
     estimated scf accuracy    <       0.00087478 Ry

     iteration # 29     ecut=    40.00 Ry     beta= 0.60
     Davidson diagonalization with overlap
     c_bands:  1 eigenvalues not converged
     ethr =  8.08E-07,  avg # of iterations =  1.1

     total cpu time spent up to now is     3627.5 secs

     total energy              =    -934.46147825 Ry
     Harris-Foulkes estimate   =    -934.46149702 Ry
     estimated scf accuracy    <       0.00027391 Ry

     iteration # 30     ecut=    40.00 Ry     beta= 0.60
     Davidson diagonalization with overlap
     ethr =  2.82E-07,  avg # of iterations =  1.5

     total cpu time spent up to now is     3658.4 secs

     total energy              =    -934.46147381 Ry
     Harris-Foulkes estimate   =    -934.46148861 Ry
     estimated scf accuracy    <       0.00010633 Ry

     iteration # 31     ecut=    40.00 Ry     beta= 0.60
     Davidson diagonalization with overlap
     ethr =  1.10E-07,  avg # of iterations =  4.8

     total cpu time spent up to now is     3704.6 secs

     total energy              =    -934.46149102 Ry
     Harris-Foulkes estimate   =    -934.46149513 Ry
     estimated scf accuracy    <       0.00003821 Ry

     iteration # 32     ecut=    40.00 Ry     beta= 0.60
     Davidson diagonalization with overlap
     ethr =  3.94E-08,  avg # of iterations =  1.4

     total cpu time spent up to now is     3735.1 secs

     total energy              =    -934.46149145 Ry
     Harris-Foulkes estimate   =    -934.46149247 Ry
     estimated scf accuracy    <       0.00000768 Ry

     iteration # 33     ecut=    40.00 Ry     beta= 0.60
     Davidson diagonalization with overlap
     ethr =  7.92E-09,  avg # of iterations =  4.6

     total cpu time spent up to now is     3782.0 secs

     total energy              =    -934.46149296 Ry
     Harris-Foulkes estimate   =    -934.46149344 Ry
     estimated scf accuracy    <       0.00000471 Ry

     iteration # 34     ecut=    40.00 Ry     beta= 0.60
     Davidson diagonalization with overlap
     c_bands:  1 eigenvalues not converged
     ethr =  4.85E-09,  avg # of iterations =  1.1

     total cpu time spent up to now is     3811.9 secs

     total energy              =    -934.46149289 Ry
     Harris-Foulkes estimate   =    -934.46149310 Ry
     estimated scf accuracy    <       0.00000107 Ry

     iteration # 35     ecut=    40.00 Ry     beta= 0.60
     Davidson diagonalization with overlap
     ethr =  1.10E-09,  avg # of iterations =  4.9

     total cpu time spent up to now is     3860.4 secs

     total energy              =    -934.46149301 Ry
     Harris-Foulkes estimate   =    -934.46149331 Ry
     estimated scf accuracy    <       0.00000246 Ry

     iteration # 36     ecut=    40.00 Ry     beta= 0.60
     Davidson diagonalization with overlap
     ethr =  1.10E-09,  avg # of iterations =  3.7

     total cpu time spent up to now is     3897.3 secs

     total energy              =    -934.46149315 Ry
     Harris-Foulkes estimate   =    -934.46149316 Ry
     estimated scf accuracy    <       0.00000030 Ry

     iteration # 37     ecut=    40.00 Ry     beta= 0.60
     Davidson diagonalization with overlap
     ethr =  3.11E-10,  avg # of iterations =  3.6

     total cpu time spent up to now is     3936.1 secs

     total energy              =    -934.46149316 Ry
     Harris-Foulkes estimate   =    -934.46149319 Ry
     estimated scf accuracy    <       0.00000025 Ry

     iteration # 38     ecut=    40.00 Ry     beta= 0.60
     Davidson diagonalization with overlap
     ethr =  2.63E-10,  avg # of iterations =  1.1

     total cpu time spent up to now is     3966.1 secs

     total energy              =    -934.46149316 Ry
     Harris-Foulkes estimate   =    -934.46149317 Ry
     estimated scf accuracy    <       0.00000009 Ry

     iteration # 39     ecut=    40.00 Ry     beta= 0.60
     Davidson diagonalization with overlap
     ethr =  9.51E-11,  avg # of iterations =  4.3

     total cpu time spent up to now is     4011.0 secs

     total energy              =    -934.46149317 Ry
     Harris-Foulkes estimate   =    -934.46149318 Ry
     estimated scf accuracy    <       0.00000005 Ry

     iteration # 40     ecut=    40.00 Ry     beta= 0.60
     Davidson diagonalization with overlap
     ethr =  4.86E-11,  avg # of iterations =  3.9

     total cpu time spent up to now is     4050.9 secs

     total energy              =    -934.46149317 Ry
     Harris-Foulkes estimate   =    -934.46149318 Ry
     estimated scf accuracy    <       0.00000002 Ry

     iteration # 41     ecut=    40.00 Ry     beta= 0.60
     Davidson diagonalization with overlap
     ethr =  2.34E-11,  avg # of iterations =  2.1

     total cpu time spent up to now is     4082.9 secs

     total energy              =    -934.46149317 Ry
     Harris-Foulkes estimate   =    -934.46149317 Ry
     estimated scf accuracy    <          8.8E-10 Ry

     iteration # 42     ecut=    40.00 Ry     beta= 0.60
     Davidson diagonalization with overlap
     ethr =  9.05E-13,  avg # of iterations =  6.0

     total cpu time spent up to now is     4140.3 secs

     total energy              =    -934.46149317 Ry
     Harris-Foulkes estimate   =    -934.46149317 Ry
     estimated scf accuracy    <          1.7E-09 Ry

     iteration # 43     ecut=    40.00 Ry     beta= 0.60
     Davidson diagonalization with overlap
     ethr =  9.05E-13,  avg # of iterations =  1.0

     total cpu time spent up to now is     4169.6 secs

     total energy              =    -934.46149317 Ry
     Harris-Foulkes estimate   =    -934.46149317 Ry
     estimated scf accuracy    <          1.2E-09 Ry

     iteration # 44     ecut=    40.00 Ry     beta= 0.60
     Davidson diagonalization with overlap
     ethr =  9.05E-13,  avg # of iterations =  1.0

     total cpu time spent up to now is     4198.9 secs

     total energy              =    -934.46149317 Ry
     Harris-Foulkes estimate   =    -934.46149317 Ry
     estimated scf accuracy    <          8.8E-10 Ry

     iteration # 45     ecut=    40.00 Ry     beta= 0.60
     Davidson diagonalization with overlap
     ethr =  9.03E-13,  avg # of iterations =  1.0

     total cpu time spent up to now is     4228.2 secs

     total energy              =    -934.46149317 Ry
     Harris-Foulkes estimate   =    -934.46149317 Ry
     estimated scf accuracy    <          1.6E-10 Ry

     iteration # 46     ecut=    40.00 Ry     beta= 0.60
     Davidson diagonalization with overlap
     ethr =  1.66E-13,  avg # of iterations =  4.4

     total cpu time spent up to now is     4272.0 secs

     End of self-consistent calculation

     Number of k-points >= 100: set verbosity='high' to print the bands.

     the Fermi energy is    12.9606 ev

!    total energy              =    -934.46149317 Ry
     Harris-Foulkes estimate   =    -934.46149317 Ry
     estimated scf accuracy    <          4.9E-11 Ry

     The total energy is the sum of the following terms:

     one-electron contribution =    -329.93895727 Ry
     hartree contribution      =     193.25472274 Ry
     xc contribution           =    -119.67968334 Ry
     ewald contribution        =    -678.09461240 Ry
     smearing contrib. (-TS)   =      -0.00296290 Ry

     convergence has been achieved in  46 iterations

     Forces acting on atoms (cartesian axes, Ry/au):

     atom    1 type  2   force =     0.00108112    0.00062418    0.00000000
     atom    2 type  2   force =     0.00165897    0.00095780    0.00000000
     atom    3 type  2   force =    -0.00032340   -0.00018672    0.00000000
     atom    4 type  2   force =    -0.00008929   -0.00005155    0.00000000
     atom    5 type  2   force =    -0.00132421   -0.00076453    0.00000000
     atom    6 type  2   force =    -0.00112987   -0.00065233    0.00000000
     atom    7 type  2   force =     0.00102579    0.00059224    0.00000000
     atom    8 type  1   force =    -0.00089911   -0.00051910    0.00000000

     Total force =     0.003450     Total SCF correction =     0.000024


     Computing stress (Cartesian axis) and pressure

          total   stress  (Ry/bohr**3)                   (kbar)     P=  -74.02
  -0.00046321   0.00000715   0.00000000        -68.14      1.05      0.00
   0.00000715  -0.00047147   0.00000000          1.05    -69.36      0.00
   0.00000000   0.00000000  -0.00057491          0.00      0.00    -84.57


     number of scf cycles    =   2
     number of bfgs steps    =   1

     enthalpy old            =    -934.4096067177 Ry
     enthalpy new            =    -934.4614931747 Ry

     CASE: enthalpy_new < enthalpy_old

     new trust radius        =       0.1905111095 bohr
     new conv_thr            =            1.0E-10 Ry

     new unit-cell volume =    928.87072 a.u.^3 (   137.64444 Ang^3 )
     density =      5.16308 g/cm^3

CELL_PARAMETERS (alat=  1.88972599)
   1.452215698  -2.515311563   0.000000000
   0.000000000   0.000000000  -4.703620509
   8.725613360   5.037735602   0.000000000

ATOMIC_POSITIONS (angstrom)
Ti       2.909087166   0.002688010  -4.703620509
Ti       2.908025526  -1.674800980  -2.351810254
Ti       5.814554467   0.003286090  -4.703620509
Ti       4.361641738   0.841319169  -2.351810254
Ti       7.268996650   2.519883114  -4.703620509
Ti       7.268770662   0.842876588  -2.351810254
Ti      10.178656416   2.522901715  -4.703620509
Nb       8.723096391   3.359406377  -2.351810254


     NEW-OLD atomic charge density approx. for the potential
     extrapolated charge   89.54024, renormalised to   97.00000

     total cpu time spent up to now is     4295.5 secs

     Self-consistent Calculation

     iteration #  1     ecut=    40.00 Ry     beta= 0.60
     Davidson diagonalization with overlap
     c_bands:  2 eigenvalues not converged
     c_bands:  4 eigenvalues not converged
     c_bands:  3 eigenvalues not converged
     c_bands:  2 eigenvalues not converged
     c_bands:  3 eigenvalues not converged
     c_bands:  4 eigenvalues not converged
     c_bands:  4 eigenvalues not converged
     c_bands:  5 eigenvalues not converged
     c_bands:  2 eigenvalues not converged
     c_bands:  5 eigenvalues not converged
     c_bands:  5 eigenvalues not converged
     c_bands:  5 eigenvalues not converged
     c_bands:  5 eigenvalues not converged
     c_bands:  5 eigenvalues not converged
     c_bands:  5 eigenvalues not converged
     c_bands:  3 eigenvalues not converged
     c_bands:  3 eigenvalues not converged
     c_bands:  3 eigenvalues not converged
     c_bands:  5 eigenvalues not converged
     c_bands:  4 eigenvalues not converged
     c_bands:  5 eigenvalues not converged
     c_bands:  5 eigenvalues not converged
     c_bands:  1 eigenvalues not converged
     c_bands:  1 eigenvalues not converged
     c_bands:  1 eigenvalues not converged
     c_bands:  2 eigenvalues not converged
     c_bands:  1 eigenvalues not converged
     c_bands:  1 eigenvalues not converged
     c_bands:  1 eigenvalues not converged
     c_bands:  2 eigenvalues not converged
     c_bands:  2 eigenvalues not converged
     c_bands:  1 eigenvalues not converged
     c_bands:  1 eigenvalues not converged
     c_bands:  1 eigenvalues not converged
     c_bands:  2 eigenvalues not converged
     c_bands:  1 eigenvalues not converged
     c_bands:  1 eigenvalues not converged
     c_bands:  1 eigenvalues not converged
     c_bands:  1 eigenvalues not converged
     c_bands:  1 eigenvalues not converged
     c_bands:  1 eigenvalues not converged
     c_bands:  1 eigenvalues not converged
     c_bands:  1 eigenvalues not converged
     c_bands:  1 eigenvalues not converged
     c_bands:  1 eigenvalues not converged
     c_bands:  1 eigenvalues not converged
     c_bands:  1 eigenvalues not converged
     ethr =  1.00E-06,  avg # of iterations = 16.6

     total cpu time spent up to now is     4443.1 secs

     total energy              =    -913.31271859 Ry
     Harris-Foulkes estimate   =    -952.70567388 Ry
     estimated scf accuracy    <      23.79589130 Ry

     iteration #  2     ecut=    40.00 Ry     beta= 0.60
     Davidson diagonalization with overlap
     ethr =  1.00E-02,  avg # of iterations =  6.6

     total cpu time spent up to now is     4519.7 secs

     total energy              =    -893.24081233 Ry
     Harris-Foulkes estimate   =   -1008.43654555 Ry
     estimated scf accuracy    <     753.14139529 Ry

     iteration #  3     ecut=    40.00 Ry     beta= 0.60
     Davidson diagonalization with overlap
     ethr =  1.00E-02,  avg # of iterations =  8.1

     total cpu time spent up to now is     4597.4 secs

     total energy              =    -932.13223676 Ry
     Harris-Foulkes estimate   =    -942.59352843 Ry
     estimated scf accuracy    <      43.18874399 Ry

     iteration #  4     ecut=    40.00 Ry     beta= 0.60
     Davidson diagonalization with overlap
     ethr =  1.00E-02,  avg # of iterations =  5.7

     total cpu time spent up to now is     4646.1 secs

     total energy              =    -933.88779434 Ry
     Harris-Foulkes estimate   =    -938.49055351 Ry
     estimated scf accuracy    <      61.84888290 Ry

     iteration #  5     ecut=    40.00 Ry     beta= 0.60
     Davidson diagonalization with overlap
     ethr =  1.00E-02,  avg # of iterations =  3.1

     total cpu time spent up to now is     4681.5 secs

     total energy              =    -934.28589377 Ry
     Harris-Foulkes estimate   =    -936.93641496 Ry
     estimated scf accuracy    <      36.66729245 Ry

     iteration #  6     ecut=    40.00 Ry     beta= 0.60
     Davidson diagonalization with overlap
     ethr =  1.00E-02,  avg # of iterations =  1.1

     total cpu time spent up to now is     4711.0 secs

     total energy              =    -934.92078695 Ry
     Harris-Foulkes estimate   =    -935.47814264 Ry
     estimated scf accuracy    <       6.16295034 Ry

     iteration #  7     ecut=    40.00 Ry     beta= 0.60
     Davidson diagonalization with overlap
     ethr =  6.35E-03,  avg # of iterations =  1.0

     total cpu time spent up to now is     4740.4 secs

     total energy              =    -934.76578766 Ry
     Harris-Foulkes estimate   =    -935.06594805 Ry
     estimated scf accuracy    <       3.55063601 Ry

     iteration #  8     ecut=    40.00 Ry     beta= 0.60
     Davidson diagonalization with overlap
     ethr =  3.66E-03,  avg # of iterations =  1.1

     total cpu time spent up to now is     4769.6 secs

     total energy              =    -934.63483252 Ry
     Harris-Foulkes estimate   =    -934.82435043 Ry
     estimated scf accuracy    <       2.80668336 Ry

     iteration #  9     ecut=    40.00 Ry     beta= 0.60
     Davidson diagonalization with overlap
     ethr =  2.89E-03,  avg # of iterations =  1.1

     total cpu time spent up to now is     4798.7 secs

     total energy              =    -934.50655235 Ry
     Harris-Foulkes estimate   =    -934.67269491 Ry
     estimated scf accuracy    <       1.91295537 Ry

     iteration # 10     ecut=    40.00 Ry     beta= 0.60
     Davidson diagonalization with overlap
     ethr =  1.97E-03,  avg # of iterations =  2.4

     total cpu time spent up to now is     4831.0 secs

     total energy              =    -934.07789071 Ry
     Harris-Foulkes estimate   =    -934.55090682 Ry
     estimated scf accuracy    <       1.04229810 Ry

     iteration # 11     ecut=    40.00 Ry     beta= 0.60
     Davidson diagonalization with overlap
     ethr =  1.07E-03,  avg # of iterations =  6.1

     total cpu time spent up to now is     4896.5 secs

     total energy              =    -934.51417929 Ry
     Harris-Foulkes estimate   =    -934.96214937 Ry
     estimated scf accuracy    <      14.88387458 Ry

     iteration # 12     ecut=    40.00 Ry     beta= 0.60
     Davidson diagonalization with overlap
     ethr =  1.07E-03,  avg # of iterations =  1.3

     total cpu time spent up to now is     4926.5 secs

     total energy              =    -934.49321411 Ry
     Harris-Foulkes estimate   =    -934.66369642 Ry
     estimated scf accuracy    <       4.12869313 Ry

     iteration # 13     ecut=    40.00 Ry     beta= 0.60
     Davidson diagonalization with overlap
     ethr =  1.07E-03,  avg # of iterations =  1.1

     total cpu time spent up to now is     4955.9 secs

     total energy              =    -934.50866525 Ry
     Harris-Foulkes estimate   =    -934.56374624 Ry
     estimated scf accuracy    <       2.61986862 Ry

     iteration # 14     ecut=    40.00 Ry     beta= 0.60
     Davidson diagonalization with overlap
     ethr =  1.07E-03,  avg # of iterations =  1.0

     total cpu time spent up to now is     4985.2 secs

     total energy              =    -934.50520290 Ry
     Harris-Foulkes estimate   =    -934.52932983 Ry
     estimated scf accuracy    <       2.21249096 Ry

     iteration # 15     ecut=    40.00 Ry     beta= 0.60
     Davidson diagonalization with overlap
     ethr =  1.07E-03,  avg # of iterations =  1.7

     total cpu time spent up to now is     5016.0 secs

     total energy              =    -934.46384831 Ry
     Harris-Foulkes estimate   =    -934.55420920 Ry
     estimated scf accuracy    <       3.19004976 Ry

     iteration # 16     ecut=    40.00 Ry     beta= 0.60
     Davidson diagonalization with overlap
     ethr =  1.07E-03,  avg # of iterations =  1.5

     total cpu time spent up to now is     5046.3 secs

     total energy              =    -934.39859336 Ry
     Harris-Foulkes estimate   =    -934.53696022 Ry
     estimated scf accuracy    <       2.35431049 Ry

     iteration # 17     ecut=    40.00 Ry     beta= 0.60
     Davidson diagonalization with overlap
     ethr =  1.07E-03,  avg # of iterations =  2.3

     total cpu time spent up to now is     5078.5 secs

     total energy              =    -934.46062158 Ry
     Harris-Foulkes estimate   =    -934.47308376 Ry
     estimated scf accuracy    <       0.16337759 Ry

     iteration # 18     ecut=    40.00 Ry     beta= 0.60
     Davidson diagonalization with overlap
     ethr =  1.68E-04,  avg # of iterations =  6.7

     total cpu time spent up to now is     5135.2 secs

     total energy              =    -934.47344198 Ry
     Harris-Foulkes estimate   =    -934.49230035 Ry
     estimated scf accuracy    <       0.18550289 Ry

     iteration # 19     ecut=    40.00 Ry     beta= 0.60
     Davidson diagonalization with overlap
     ethr =  1.68E-04,  avg # of iterations =  1.0

     total cpu time spent up to now is     5164.5 secs

     total energy              =    -934.47671823 Ry
     Harris-Foulkes estimate   =    -934.48022221 Ry
     estimated scf accuracy    <       0.07851022 Ry

     iteration # 20     ecut=    40.00 Ry     beta= 0.60
     Davidson diagonalization with overlap
     ethr =  8.09E-05,  avg # of iterations =  2.5

     total cpu time spent up to now is     5197.2 secs

     total energy              =    -934.46619906 Ry
     Harris-Foulkes estimate   =    -934.47988156 Ry
     estimated scf accuracy    <       0.05486377 Ry

     iteration # 21     ecut=    40.00 Ry     beta= 0.60
     Davidson diagonalization with overlap
     ethr =  5.66E-05,  avg # of iterations =  6.1

     total cpu time spent up to now is     5251.6 secs

     total energy              =    -934.46849614 Ry
     Harris-Foulkes estimate   =    -934.48727833 Ry
     estimated scf accuracy    <       0.11400398 Ry

     iteration # 22     ecut=    40.00 Ry     beta= 0.60
     Davidson diagonalization with overlap
     ethr =  5.66E-05,  avg # of iterations =  3.7

     total cpu time spent up to now is     5290.4 secs

     total energy              =    -934.47700211 Ry
     Harris-Foulkes estimate   =    -934.47790392 Ry
     estimated scf accuracy    <       0.00593195 Ry

     iteration # 23     ecut=    40.00 Ry     beta= 0.60
     Davidson diagonalization with overlap
     ethr =  6.12E-06,  avg # of iterations =  8.0

     total cpu time spent up to now is     5352.5 secs

     total energy              =    -934.47825469 Ry
     Harris-Foulkes estimate   =    -934.47837734 Ry
     estimated scf accuracy    <       0.00085657 Ry

     iteration # 24     ecut=    40.00 Ry     beta= 0.60
     Davidson diagonalization with overlap
     c_bands:  1 eigenvalues not converged
     c_bands:  1 eigenvalues not converged
     ethr =  8.83E-07,  avg # of iterations =  6.4

     total cpu time spent up to now is     5406.0 secs

     total energy              =    -934.47800174 Ry
     Harris-Foulkes estimate   =    -934.47867566 Ry
     estimated scf accuracy    <       0.00751766 Ry

     iteration # 25     ecut=    40.00 Ry     beta= 0.60
     Davidson diagonalization with overlap
     ethr =  8.83E-07,  avg # of iterations =  4.9

     total cpu time spent up to now is     5451.4 secs

     total energy              =    -934.47828218 Ry
     Harris-Foulkes estimate   =    -934.47838990 Ry
     estimated scf accuracy    <       0.00154949 Ry

     iteration # 26     ecut=    40.00 Ry     beta= 0.60
     Davidson diagonalization with overlap
     ethr =  8.83E-07,  avg # of iterations =  1.3

     total cpu time spent up to now is     5481.4 secs

     total energy              =    -934.47832764 Ry
     Harris-Foulkes estimate   =    -934.47835854 Ry
     estimated scf accuracy    <       0.00023938 Ry

     iteration # 27     ecut=    40.00 Ry     beta= 0.60
     Davidson diagonalization with overlap
     ethr =  2.47E-07,  avg # of iterations =  3.5

     total cpu time spent up to now is     5517.4 secs

     total energy              =    -934.47834080 Ry
     Harris-Foulkes estimate   =    -934.47834534 Ry
     estimated scf accuracy    <       0.00003117 Ry

     iteration # 28     ecut=    40.00 Ry     beta= 0.60
     Davidson diagonalization with overlap
     ethr =  3.21E-08,  avg # of iterations =  4.5

     total cpu time spent up to now is     5563.9 secs

     total energy              =    -934.47834643 Ry
     Harris-Foulkes estimate   =    -934.47835025 Ry
     estimated scf accuracy    <       0.00003795 Ry

     iteration # 29     ecut=    40.00 Ry     beta= 0.60
     Davidson diagonalization with overlap
     ethr =  3.21E-08,  avg # of iterations =  1.0

     total cpu time spent up to now is     5593.2 secs

     total energy              =    -934.47834742 Ry
     Harris-Foulkes estimate   =    -934.47834802 Ry
     estimated scf accuracy    <       0.00000622 Ry

     iteration # 30     ecut=    40.00 Ry     beta= 0.60
     Davidson diagonalization with overlap
     ethr =  6.41E-09,  avg # of iterations =  4.2

     total cpu time spent up to now is     5636.3 secs

     total energy              =    -934.47834781 Ry
     Harris-Foulkes estimate   =    -934.47834847 Ry
     estimated scf accuracy    <       0.00000590 Ry

     iteration # 31     ecut=    40.00 Ry     beta= 0.60
     Davidson diagonalization with overlap
     ethr =  6.08E-09,  avg # of iterations =  1.0

     total cpu time spent up to now is     5665.6 secs

     total energy              =    -934.47834790 Ry
     Harris-Foulkes estimate   =    -934.47834809 Ry
     estimated scf accuracy    <       0.00000185 Ry

     iteration # 32     ecut=    40.00 Ry     beta= 0.60
     Davidson diagonalization with overlap
     ethr =  1.91E-09,  avg # of iterations =  4.0

     total cpu time spent up to now is     5706.4 secs

     total energy              =    -934.47834809 Ry
     Harris-Foulkes estimate   =    -934.47834818 Ry
     estimated scf accuracy    <       0.00000069 Ry

     iteration # 33     ecut=    40.00 Ry     beta= 0.60
     Davidson diagonalization with overlap
     ethr =  7.09E-10,  avg # of iterations =  3.3

     total cpu time spent up to now is     5741.7 secs

     total energy              =    -934.47834812 Ry
     Harris-Foulkes estimate   =    -934.47834816 Ry
     estimated scf accuracy    <       0.00000032 Ry

     iteration # 34     ecut=    40.00 Ry     beta= 0.60
     Davidson diagonalization with overlap
     ethr =  3.31E-10,  avg # of iterations =  3.7

     total cpu time spent up to now is     5781.4 secs

     total energy              =    -934.47834813 Ry
     Harris-Foulkes estimate   =    -934.47834817 Ry
     estimated scf accuracy    <       0.00000031 Ry

     iteration # 35     ecut=    40.00 Ry     beta= 0.60
     Davidson diagonalization with overlap
     ethr =  3.20E-10,  avg # of iterations =  1.1

     total cpu time spent up to now is     5810.9 secs

     total energy              =    -934.47834814 Ry
     Harris-Foulkes estimate   =    -934.47834816 Ry
     estimated scf accuracy    <       0.00000027 Ry

     iteration # 36     ecut=    40.00 Ry     beta= 0.60
     Davidson diagonalization with overlap
     ethr =  2.81E-10,  avg # of iterations =  1.0

     total cpu time spent up to now is     5840.2 secs

     total energy              =    -934.47834814 Ry
     Harris-Foulkes estimate   =    -934.47834815 Ry
     estimated scf accuracy    <       0.00000003 Ry

     iteration # 37     ecut=    40.00 Ry     beta= 0.60
     Davidson diagonalization with overlap
     ethr =  2.80E-11,  avg # of iterations =  5.5

     total cpu time spent up to now is     5892.8 secs

     total energy              =    -934.47834815 Ry
     Harris-Foulkes estimate   =    -934.47834816 Ry
     estimated scf accuracy    <       0.00000022 Ry

     iteration # 38     ecut=    40.00 Ry     beta= 0.60
     Davidson diagonalization with overlap
     ethr =  2.80E-11,  avg # of iterations =  4.3

     total cpu time spent up to now is     5932.3 secs

     total energy              =    -934.47834815 Ry
     Harris-Foulkes estimate   =    -934.47834815 Ry
     estimated scf accuracy    <       0.00000005 Ry

     iteration # 39     ecut=    40.00 Ry     beta= 0.60
     Davidson diagonalization with overlap
     ethr =  2.80E-11,  avg # of iterations =  3.1

     total cpu time spent up to now is     5967.5 secs

     total energy              =    -934.47834815 Ry
     Harris-Foulkes estimate   =    -934.47834815 Ry
     estimated scf accuracy    <          6.8E-09 Ry

     iteration # 40     ecut=    40.00 Ry     beta= 0.60
     Davidson diagonalization with overlap
     ethr =  6.96E-12,  avg # of iterations =  4.2

     total cpu time spent up to now is     6008.3 secs

     total energy              =    -934.47834815 Ry
     Harris-Foulkes estimate   =    -934.47834815 Ry
     estimated scf accuracy    <          1.3E-09 Ry

     iteration # 41     ecut=    40.00 Ry     beta= 0.60
     Davidson diagonalization with overlap
     ethr =  1.33E-12,  avg # of iterations =  4.3

     total cpu time spent up to now is     6049.5 secs

     End of self-consistent calculation

     Number of k-points >= 100: set verbosity='high' to print the bands.

     the Fermi energy is    14.2440 ev

!    total energy              =    -934.47834815 Ry
     Harris-Foulkes estimate   =    -934.47834815 Ry
     estimated scf accuracy    <          6.2E-11 Ry

     The total energy is the sum of the following terms:

     one-electron contribution =    -302.78276327 Ry
     hartree contribution      =     184.84252376 Ry
     xc contribution           =    -120.18893480 Ry
     ewald contribution        =    -696.34548055 Ry
     smearing contrib. (-TS)   =      -0.00369330 Ry

     convergence has been achieved in  41 iterations

     Forces acting on atoms (cartesian axes, Ry/au):

     atom    1 type  2   force =     0.00152895    0.00088274    0.00000000
     atom    2 type  2   force =     0.00405469    0.00234098    0.00000000
     atom    3 type  2   force =    -0.00043933   -0.00025365    0.00000000
     atom    4 type  2   force =    -0.00008929   -0.00005155    0.00000000
     atom    5 type  2   force =    -0.00302544   -0.00174674    0.00000000
     atom    6 type  2   force =    -0.00423179   -0.00244323    0.00000000
     atom    7 type  2   force =     0.00294760    0.00170179    0.00000000
     atom    8 type  1   force =    -0.00074537   -0.00043034    0.00000000

     Total force =     0.008586     Total SCF correction =     0.000010


     Computing stress (Cartesian axis) and pressure

          total   stress  (Ry/bohr**3)                   (kbar)     P=   16.43
   0.00013517   0.00000506   0.00000000         19.88      0.74      0.00
   0.00000506   0.00012933   0.00000000          0.74     19.03      0.00
   0.00000000   0.00000000   0.00007065          0.00      0.00     10.39


     number of scf cycles    =   3
     number of bfgs steps    =   2

     enthalpy old            =    -934.4614931747 Ry
     enthalpy new            =    -934.4783481524 Ry

     CASE: enthalpy_new < enthalpy_old

     new trust radius        =       0.0290571688 bohr
     new conv_thr            =            1.0E-10 Ry

     new unit-cell volume =    941.49546 a.u.^3 (   139.51523 Ang^3 )
     density =      5.09385 g/cm^3

CELL_PARAMETERS (alat=  1.88972599)
   1.458982151  -2.527031402   0.000000000
   0.000000000   0.000000000  -4.722758582
   8.767516711   5.061928511   0.000000000

ATOMIC_POSITIONS (angstrom)
Ti       2.923472421   0.003180114  -4.722758582
Ti       2.923267603  -1.681627423  -2.361379291
Ti       5.842122500   0.003576048  -4.722758582
Ti       4.382456117   0.845523122  -2.361379291
Ti       7.302701316   2.531529285  -4.722758582
Ti       7.301866324   0.846357916  -2.361379291
Ti      10.228425689   2.536009564  -4.722758582
Nb       8.764664761   3.375592651  -2.361379291


     NEW-OLD atomic charge density approx. for the potential
     extrapolated charge   98.20679, renormalised to   97.00000

     total cpu time spent up to now is     6073.0 secs

     Self-consistent Calculation

     iteration #  1     ecut=    40.00 Ry     beta= 0.60
     Davidson diagonalization with overlap
     c_bands:  1 eigenvalues not converged
     c_bands:  3 eigenvalues not converged
     c_bands:  1 eigenvalues not converged
     c_bands:  1 eigenvalues not converged
     c_bands:  1 eigenvalues not converged
     c_bands:  1 eigenvalues not converged
     c_bands:  1 eigenvalues not converged
     c_bands:  1 eigenvalues not converged
     c_bands:  1 eigenvalues not converged
     c_bands:  1 eigenvalues not converged
     c_bands:  1 eigenvalues not converged
     c_bands:  1 eigenvalues not converged
     c_bands:  1 eigenvalues not converged
     c_bands:  1 eigenvalues not converged
     c_bands:  1 eigenvalues not converged
     c_bands:  2 eigenvalues not converged
     ethr =  1.00E-06,  avg # of iterations = 15.0

     total cpu time spent up to now is     6182.1 secs

     total energy              =    -934.30163603 Ry
     Harris-Foulkes estimate   =    -931.74861149 Ry
     estimated scf accuracy    <       0.17585019 Ry

     iteration #  2     ecut=    40.00 Ry     beta= 0.60
     Davidson diagonalization with overlap
     c_bands:  1 eigenvalues not converged
     c_bands:  1 eigenvalues not converged
     c_bands:  1 eigenvalues not converged
     c_bands:  1 eigenvalues not converged
     c_bands:  1 eigenvalues not converged
     c_bands:  2 eigenvalues not converged
     c_bands:  1 eigenvalues not converged
     ethr =  1.81E-04,  avg # of iterations = 12.9

     total cpu time spent up to now is     6270.0 secs

     total energy              =    -933.11001415 Ry
     Harris-Foulkes estimate   =    -935.77059658 Ry
     estimated scf accuracy    <      52.58682567 Ry

     iteration #  3     ecut=    40.00 Ry     beta= 0.60
     Davidson diagonalization with overlap
     ethr =  1.81E-04,  avg # of iterations =  6.8

     total cpu time spent up to now is     6343.9 secs

     total energy              =    -934.41214978 Ry
     Harris-Foulkes estimate   =    -934.56791766 Ry
     estimated scf accuracy    <       1.25728984 Ry

     iteration #  4     ecut=    40.00 Ry     beta= 0.60
     Davidson diagonalization with overlap
     ethr =  1.81E-04,  avg # of iterations =  6.8

     total cpu time spent up to now is     6403.5 secs

     total energy              =    -934.41328007 Ry
     Harris-Foulkes estimate   =    -934.54616280 Ry
     estimated scf accuracy    <       1.66913535 Ry

     iteration #  5     ecut=    40.00 Ry     beta= 0.60
     Davidson diagonalization with overlap
     ethr =  1.81E-04,  avg # of iterations =  7.1

     total cpu time spent up to now is     6457.2 secs

     total energy              =    -934.45897340 Ry
     Harris-Foulkes estimate   =    -934.50950905 Ry
     estimated scf accuracy    <       0.65183713 Ry

     iteration #  6     ecut=    40.00 Ry     beta= 0.60
     Davidson diagonalization with overlap
     ethr =  1.81E-04,  avg # of iterations =  2.6

     total cpu time spent up to now is     6490.0 secs

     total energy              =    -934.47826631 Ry
     Harris-Foulkes estimate   =    -934.48044776 Ry
     estimated scf accuracy    <       0.03245158 Ry

     iteration #  7     ecut=    40.00 Ry     beta= 0.60
     Davidson diagonalization with overlap
     ethr =  3.35E-05,  avg # of iterations =  7.0

     total cpu time spent up to now is     6546.9 secs

     total energy              =    -934.48236165 Ry
     Harris-Foulkes estimate   =    -934.48411929 Ry
     estimated scf accuracy    <       0.02297204 Ry

     iteration #  8     ecut=    40.00 Ry     beta= 0.60
     Davidson diagonalization with overlap
     ethr =  2.37E-05,  avg # of iterations =  1.1

     total cpu time spent up to now is     6576.1 secs

     total energy              =    -934.48169134 Ry
     Harris-Foulkes estimate   =    -934.48264330 Ry
     estimated scf accuracy    <       0.01761651 Ry

     iteration #  9     ecut=    40.00 Ry     beta= 0.60
     Davidson diagonalization with overlap
     ethr =  1.82E-05,  avg # of iterations =  1.0

     total cpu time spent up to now is     6605.1 secs

     total energy              =    -934.48124840 Ry
     Harris-Foulkes estimate   =    -934.48180834 Ry
     estimated scf accuracy    <       0.01358518 Ry

     iteration # 10     ecut=    40.00 Ry     beta= 0.60
     Davidson diagonalization with overlap
     ethr =  1.40E-05,  avg # of iterations =  1.0

     total cpu time spent up to now is     6634.4 secs

     total energy              =    -934.47701652 Ry
     Harris-Foulkes estimate   =    -934.48130213 Ry
     estimated scf accuracy    <       0.01114416 Ry

     iteration # 11     ecut=    40.00 Ry     beta= 0.60
     Davidson diagonalization with overlap
     ethr =  1.15E-05,  avg # of iterations =  3.9

     total cpu time spent up to now is     6676.8 secs

     total energy              =    -934.47891276 Ry
     Harris-Foulkes estimate   =    -934.47902960 Ry
     estimated scf accuracy    <       0.00068409 Ry

     iteration # 12     ecut=    40.00 Ry     beta= 0.60
     Davidson diagonalization with overlap
     c_bands:  1 eigenvalues not converged
     ethr =  7.05E-07,  avg # of iterations =  8.0

     total cpu time spent up to now is     6740.8 secs

     total energy              =    -934.47904072 Ry
     Harris-Foulkes estimate   =    -934.47909873 Ry
     estimated scf accuracy    <       0.00025391 Ry

     iteration # 13     ecut=    40.00 Ry     beta= 0.60
     Davidson diagonalization with overlap
     ethr =  2.62E-07,  avg # of iterations =  5.4

     total cpu time spent up to now is     6792.7 secs

     total energy              =    -934.47885282 Ry
     Harris-Foulkes estimate   =    -934.47929752 Ry
     estimated scf accuracy    <       0.00584444 Ry

     iteration # 14     ecut=    40.00 Ry     beta= 0.60
     Davidson diagonalization with overlap
     ethr =  2.62E-07,  avg # of iterations =  5.2

     total cpu time spent up to now is     6842.2 secs

     total energy              =    -934.47907370 Ry
     Harris-Foulkes estimate   =    -934.47910186 Ry
     estimated scf accuracy    <       0.00039396 Ry

     iteration # 15     ecut=    40.00 Ry     beta= 0.60
     Davidson diagonalization with overlap
     ethr =  2.62E-07,  avg # of iterations =  1.0

     total cpu time spent up to now is     6871.5 secs

     total energy              =    -934.47906696 Ry
     Harris-Foulkes estimate   =    -934.47908984 Ry
     estimated scf accuracy    <       0.00024888 Ry

     iteration # 16     ecut=    40.00 Ry     beta= 0.60
     Davidson diagonalization with overlap
     ethr =  2.57E-07,  avg # of iterations =  3.3

     total cpu time spent up to now is     6907.9 secs

     total energy              =    -934.47906701 Ry
     Harris-Foulkes estimate   =    -934.47910226 Ry
     estimated scf accuracy    <       0.00025429 Ry

     iteration # 17     ecut=    40.00 Ry     beta= 0.60
     Davidson diagonalization with overlap
     ethr =  2.57E-07,  avg # of iterations =  1.1

     total cpu time spent up to now is     6937.4 secs

     total energy              =    -934.47907992 Ry
     Harris-Foulkes estimate   =    -934.47908162 Ry
     estimated scf accuracy    <       0.00001085 Ry

     iteration # 18     ecut=    40.00 Ry     beta= 0.60
     Davidson diagonalization with overlap
     ethr =  1.12E-08,  avg # of iterations =  5.5

     total cpu time spent up to now is     6990.3 secs

     total energy              =    -934.47908477 Ry
     Harris-Foulkes estimate   =    -934.47908872 Ry
     estimated scf accuracy    <       0.00003680 Ry

     iteration # 19     ecut=    40.00 Ry     beta= 0.60
     Davidson diagonalization with overlap
     ethr =  1.12E-08,  avg # of iterations =  4.1

     total cpu time spent up to now is     7029.3 secs

     total energy              =    -934.47908551 Ry
     Harris-Foulkes estimate   =    -934.47908717 Ry
     estimated scf accuracy    <       0.00001867 Ry

     iteration # 20     ecut=    40.00 Ry     beta= 0.60
     Davidson diagonalization with overlap
     ethr =  1.12E-08,  avg # of iterations =  1.6

     total cpu time spent up to now is     7060.0 secs

     total energy              =    -934.47908552 Ry
     Harris-Foulkes estimate   =    -934.47908623 Ry
     estimated scf accuracy    <       0.00000766 Ry

     iteration # 21     ecut=    40.00 Ry     beta= 0.60
     Davidson diagonalization with overlap
     ethr =  7.90E-09,  avg # of iterations =  2.1

     total cpu time spent up to now is     7091.8 secs

     total energy              =    -934.47908561 Ry
     Harris-Foulkes estimate   =    -934.47908582 Ry
     estimated scf accuracy    <       0.00000217 Ry

     iteration # 22     ecut=    40.00 Ry     beta= 0.60
     Davidson diagonalization with overlap
     ethr =  2.24E-09,  avg # of iterations =  4.4

     total cpu time spent up to now is     7136.7 secs

     total energy              =    -934.47908598 Ry
     Harris-Foulkes estimate   =    -934.47908604 Ry
     estimated scf accuracy    <       0.00000044 Ry

[...]

     total energy              =    -934.91205453 Ry
     Harris-Foulkes estimate   =    -936.97498196 Ry
     estimated scf accuracy    <      83.09953379 Ry

     iteration # 13     ecut=    40.00 Ry     beta= 0.60
     Davidson diagonalization with overlap
     ethr =  2.27E-03,  avg # of iterations =  3.3

     total cpu time spent up to now is    35084.8 secs

     total energy              =    -932.64606814 Ry
     Harris-Foulkes estimate   =    -935.54820753 Ry
     estimated scf accuracy    <      38.18016564 Ry

     iteration # 14     ecut=    40.00 Ry     beta= 0.60
     Davidson diagonalization with overlap
     ethr =  2.27E-03,  avg # of iterations =  7.0

     total cpu time spent up to now is    35143.7 secs

     total energy              =    -934.79584182 Ry
     Harris-Foulkes estimate   =    -934.89229136 Ry
     estimated scf accuracy    <       9.75043589 Ry

     iteration # 15     ecut=    40.00 Ry     beta= 0.60
     Davidson diagonalization with overlap
     ethr =  2.27E-03,  avg # of iterations =  4.9

     total cpu time spent up to now is    35180.3 secs

     total energy              =    -934.28696277 Ry
     Harris-Foulkes estimate   =    -935.45744160 Ry
     estimated scf accuracy    <      27.64961867 Ry

     iteration # 16     ecut=    40.00 Ry     beta= 0.60
     Davidson diagonalization with overlap
     ethr =  2.27E-03,  avg # of iterations =  3.0

     total cpu time spent up to now is    35210.7 secs

     total energy              =    -934.71949861 Ry
     Harris-Foulkes estimate   =    -934.76085509 Ry
     estimated scf accuracy    <       5.63803642 Ry

     iteration # 17     ecut=    40.00 Ry     beta= 0.60
     Davidson diagonalization with overlap
     ethr =  2.27E-03,  avg # of iterations =  3.4

     total cpu time spent up to now is    35242.9 secs

     total energy              =    -934.15550713 Ry
     Harris-Foulkes estimate   =    -935.05779568 Ry
     estimated scf accuracy    <      10.64211860 Ry

     iteration # 18     ecut=    40.00 Ry     beta= 0.60
     Davidson diagonalization with overlap
     ethr =  2.27E-03,  avg # of iterations =  3.8

     total cpu time spent up to now is    35277.1 secs

     total energy              =    -934.39306214 Ry
     Harris-Foulkes estimate   =    -934.57890375 Ry
     estimated scf accuracy    <       1.18181213 Ry

     iteration # 19     ecut=    40.00 Ry     beta= 0.60
     Davidson diagonalization with overlap
     ethr =  1.22E-03,  avg # of iterations =  5.1

     total cpu time spent up to now is    35321.2 secs

     total energy              =    -934.27369846 Ry
     Harris-Foulkes estimate   =    -934.69210302 Ry
     estimated scf accuracy    <       3.23861063 Ry

     iteration # 20     ecut=    40.00 Ry     beta= 0.60
     Davidson diagonalization with overlap
     ethr =  1.22E-03,  avg # of iterations =  3.5

     total cpu time spent up to now is    35354.9 secs

     total energy              =    -934.43513266 Ry
     Harris-Foulkes estimate   =    -934.49073440 Ry
     estimated scf accuracy    <       0.33872217 Ry

     iteration # 21     ecut=    40.00 Ry     beta= 0.60
     Davidson diagonalization with overlap
     ethr =  3.49E-04,  avg # of iterations =  4.8

     total cpu time spent up to now is    35396.4 secs

     total energy              =    -934.46742001 Ry
     Harris-Foulkes estimate   =    -934.48876735 Ry
     estimated scf accuracy    <       0.17518168 Ry

     iteration # 22     ecut=    40.00 Ry     beta= 0.60
     Davidson diagonalization with overlap
     ethr =  1.81E-04,  avg # of iterations =  3.0

     total cpu time spent up to now is    35427.2 secs

     total energy              =    -934.46004623 Ry
     Harris-Foulkes estimate   =    -934.48308467 Ry
     estimated scf accuracy    <       0.18421304 Ry

     iteration # 23     ecut=    40.00 Ry     beta= 0.60
     Davidson diagonalization with overlap
     ethr =  1.81E-04,  avg # of iterations =  1.3

     total cpu time spent up to now is    35454.0 secs

     total energy              =    -934.46749342 Ry
     Harris-Foulkes estimate   =    -934.47131297 Ry
     estimated scf accuracy    <       0.03097791 Ry

     iteration # 24     ecut=    40.00 Ry     beta= 0.60
     Davidson diagonalization with overlap
     c_bands:  1 eigenvalues not converged
     c_bands:  1 eigenvalues not converged
     ethr =  3.19E-05,  avg # of iterations =  8.4

     total cpu time spent up to now is    35511.1 secs

     total energy              =    -934.47081500 Ry
     Harris-Foulkes estimate   =    -934.47398432 Ry
     estimated scf accuracy    <       0.01728193 Ry

     iteration # 25     ecut=    40.00 Ry     beta= 0.60
     Davidson diagonalization with overlap
     c_bands:  1 eigenvalues not converged
     ethr =  1.78E-05,  avg # of iterations =  7.0

     total cpu time spent up to now is    35557.9 secs

     total energy              =    -934.46866213 Ry
     Harris-Foulkes estimate   =    -934.47726540 Ry
     estimated scf accuracy    <       0.11117635 Ry

     iteration # 26     ecut=    40.00 Ry     beta= 0.60
     Davidson diagonalization with overlap
     ethr =  1.78E-05,  avg # of iterations =  3.9

     total cpu time spent up to now is    35591.7 secs

     total energy              =    -934.47200525 Ry
     Harris-Foulkes estimate   =    -934.47237005 Ry
     estimated scf accuracy    <       0.00328929 Ry

     iteration # 27     ecut=    40.00 Ry     beta= 0.60
     Davidson diagonalization with overlap
     c_bands:  1 eigenvalues not converged
     c_bands:  1 eigenvalues not converged
     c_bands:  1 eigenvalues not converged
     c_bands:  1 eigenvalues not converged
     c_bands:  1 eigenvalues not converged
     c_bands:  1 eigenvalues not converged
     ethr =  3.39E-06,  avg # of iterations =  7.8

     total cpu time spent up to now is    35648.1 secs

     total energy              =    -934.47255922 Ry
     Harris-Foulkes estimate   =    -934.47282438 Ry
     estimated scf accuracy    <       0.00297599 Ry

     iteration # 28     ecut=    40.00 Ry     beta= 0.60
     Davidson diagonalization with overlap
     ethr =  3.07E-06,  avg # of iterations =  1.3

     total cpu time spent up to now is    35674.8 secs

     total energy              =    -934.47261633 Ry
     Harris-Foulkes estimate   =    -934.47275992 Ry
     estimated scf accuracy    <       0.00104385 Ry

     iteration # 29     ecut=    40.00 Ry     beta= 0.60
     Davidson diagonalization with overlap
     ethr =  1.08E-06,  avg # of iterations =  3.0

     total cpu time spent up to now is    35705.5 secs

     total energy              =    -934.47268566 Ry
     Harris-Foulkes estimate   =    -934.47270993 Ry
     estimated scf accuracy    <       0.00026020 Ry

     iteration # 30     ecut=    40.00 Ry     beta= 0.60
     Davidson diagonalization with overlap
     ethr =  2.68E-07,  avg # of iterations =  4.0

     total cpu time spent up to now is    35741.3 secs

     total energy              =    -934.47270704 Ry
     Harris-Foulkes estimate   =    -934.47272317 Ry
     estimated scf accuracy    <       0.00015030 Ry

     iteration # 31     ecut=    40.00 Ry     beta= 0.60
     Davidson diagonalization with overlap
     ethr =  1.55E-07,  avg # of iterations =  1.5

     total cpu time spent up to now is    35768.4 secs

     total energy              =    -934.47271002 Ry
     Harris-Foulkes estimate   =    -934.47271662 Ry
     estimated scf accuracy    <       0.00005919 Ry

     iteration # 32     ecut=    40.00 Ry     beta= 0.60
     Davidson diagonalization with overlap
     ethr =  6.10E-08,  avg # of iterations =  3.2

     total cpu time spent up to now is    35800.6 secs

     total energy              =    -934.47271216 Ry
     Harris-Foulkes estimate   =    -934.47271425 Ry
     estimated scf accuracy    <       0.00000876 Ry

     iteration # 33     ecut=    40.00 Ry     beta= 0.60
     Davidson diagonalization with overlap
     ethr =  9.03E-09,  avg # of iterations =  5.2

     total cpu time spent up to now is    35846.9 secs

     total energy              =    -934.47271086 Ry
     Harris-Foulkes estimate   =    -934.47271863 Ry
     estimated scf accuracy    <       0.00006655 Ry

     iteration # 34     ecut=    40.00 Ry     beta= 0.60
     Davidson diagonalization with overlap
     ethr =  9.03E-09,  avg # of iterations =  4.3

     total cpu time spent up to now is    35887.5 secs

     total energy              =    -934.47271431 Ry
     Harris-Foulkes estimate   =    -934.47271483 Ry
     estimated scf accuracy    <       0.00000334 Ry

     iteration # 35     ecut=    40.00 Ry     beta= 0.60
     Davidson diagonalization with overlap
     ethr =  3.44E-09,  avg # of iterations =  3.1

     total cpu time spent up to now is    35918.6 secs

     total energy              =    -934.47271443 Ry
     Harris-Foulkes estimate   =    -934.47271468 Ry
     estimated scf accuracy    <       0.00000161 Ry

     iteration # 36     ecut=    40.00 Ry     beta= 0.60
     Davidson diagonalization with overlap
     ethr =  1.66E-09,  avg # of iterations =  3.9

     total cpu time spent up to now is    35956.7 secs

     total energy              =    -934.47271447 Ry
     Harris-Foulkes estimate   =    -934.47271487 Ry
     estimated scf accuracy    <       0.00000264 Ry

     iteration # 37     ecut=    40.00 Ry     beta= 0.60
     Davidson diagonalization with overlap
     ethr =  1.66E-09,  avg # of iterations =  2.9

     total cpu time spent up to now is    35987.4 secs

     total energy              =    -934.47271463 Ry
     Harris-Foulkes estimate   =    -934.47271464 Ry
     estimated scf accuracy    <       0.00000009 Ry

     iteration # 38     ecut=    40.00 Ry     beta= 0.60
     Davidson diagonalization with overlap
     ethr =  9.52E-11,  avg # of iterations =  5.2

     total cpu time spent up to now is    36033.9 secs

     total energy              =    -934.47271467 Ry
     Harris-Foulkes estimate   =    -934.47271468 Ry
     estimated scf accuracy    <       0.00000024 Ry

     iteration # 39     ecut=    40.00 Ry     beta= 0.60
     Davidson diagonalization with overlap
     ethr =  9.52E-11,  avg # of iterations =  1.8

     total cpu time spent up to now is    36061.6 secs

     total energy              =    -934.47271467 Ry
     Harris-Foulkes estimate   =    -934.47271468 Ry
     estimated scf accuracy    <       0.00000016 Ry

     iteration # 40     ecut=    40.00 Ry     beta= 0.60
     Davidson diagonalization with overlap
     ethr =  9.52E-11,  avg # of iterations =  1.0

     total cpu time spent up to now is    36087.8 secs

     total energy              =    -934.47271467 Ry
     Harris-Foulkes estimate   =    -934.47271467 Ry
     estimated scf accuracy    <       0.00000003 Ry

     iteration # 41     ecut=    40.00 Ry     beta= 0.60
     Davidson diagonalization with overlap
     ethr =  3.52E-11,  avg # of iterations =  3.7

     total cpu time spent up to now is    36121.5 secs

     total energy              =    -934.47271467 Ry
     Harris-Foulkes estimate   =    -934.47271467 Ry
     estimated scf accuracy    <          9.6E-09 Ry

     iteration # 42     ecut=    40.00 Ry     beta= 0.60
     Davidson diagonalization with overlap
     ethr =  9.95E-12,  avg # of iterations =  4.2

     total cpu time spent up to now is    36161.2 secs

     total energy              =    -934.47271467 Ry
     Harris-Foulkes estimate   =    -934.47271467 Ry
     estimated scf accuracy    <       0.00000001 Ry

     iteration # 43     ecut=    40.00 Ry     beta= 0.60
     Davidson diagonalization with overlap
     ethr =  9.95E-12,  avg # of iterations =  1.0

     total cpu time spent up to now is    36187.3 secs

     total energy              =    -934.47271467 Ry
     Harris-Foulkes estimate   =    -934.47271467 Ry
     estimated scf accuracy    <          1.7E-09 Ry

     iteration # 44     ecut=    40.00 Ry     beta= 0.60
     Davidson diagonalization with overlap
     ethr =  1.70E-12,  avg # of iterations =  4.4

     total cpu time spent up to now is    36228.0 secs

     total energy              =    -934.47271467 Ry
     Harris-Foulkes estimate   =    -934.47271467 Ry
     estimated scf accuracy    <          1.7E-09 Ry

     iteration # 45     ecut=    40.00 Ry     beta= 0.60
     Davidson diagonalization with overlap
     ethr =  1.70E-12,  avg # of iterations =  1.0

     total cpu time spent up to now is    36254.1 secs

     total energy              =    -934.47271467 Ry
     Harris-Foulkes estimate   =    -934.47271467 Ry
     estimated scf accuracy    <          7.3E-10 Ry

     iteration # 46     ecut=    40.00 Ry     beta= 0.60
     Davidson diagonalization with overlap
     ethr =  7.48E-13,  avg # of iterations =  2.8

     total cpu time spent up to now is    36284.5 secs

     total energy              =    -934.47271467 Ry
     Harris-Foulkes estimate   =    -934.47271467 Ry
     estimated scf accuracy    <          3.9E-10 Ry

     iteration # 47     ecut=    40.00 Ry     beta= 0.60
     Davidson diagonalization with overlap
     ethr =  4.03E-13,  avg # of iterations =  3.4

     total cpu time spent up to now is    36316.2 secs

     total energy              =    -934.47271467 Ry
     Harris-Foulkes estimate   =    -934.47271467 Ry
     estimated scf accuracy    <          4.3E-11 Ry

     iteration # 48     ecut=    40.00 Ry     beta= 0.60
     Davidson diagonalization with overlap
     ethr =  1.00E-13,  avg # of iterations =  4.3

     total cpu time spent up to now is    36356.9 secs

     total energy              =    -934.47271467 Ry
     Harris-Foulkes estimate   =    -934.47271467 Ry
     estimated scf accuracy    <          1.6E-10 Ry

     iteration # 49     ecut=    40.00 Ry     beta= 0.60
     Davidson diagonalization with overlap
     ethr =  1.00E-13,  avg # of iterations =  3.5

     total cpu time spent up to now is    36388.7 secs

     total energy              =    -934.47271467 Ry
     Harris-Foulkes estimate   =    -934.47271467 Ry
     estimated scf accuracy    <          2.0E-10 Ry

     iteration # 50     ecut=    40.00 Ry     beta= 0.60
     Davidson diagonalization with overlap
     ethr =  1.00E-13,  avg # of iterations =  1.0

     total cpu time spent up to now is    36414.9 secs

     total energy              =    -934.47271467 Ry
     Harris-Foulkes estimate   =    -934.47271467 Ry
     estimated scf accuracy    <          1.1E-11 Ry

     iteration # 51     ecut=    40.00 Ry     beta= 0.60
     Davidson diagonalization with overlap
     ethr =  1.00E-13,  avg # of iterations =  1.0

     total cpu time spent up to now is    36441.0 secs

     total energy              =    -934.47271467 Ry
     Harris-Foulkes estimate   =    -934.47271467 Ry
     estimated scf accuracy    <          4.5E-12 Ry

     iteration # 52     ecut=    40.00 Ry     beta= 0.60
     Davidson diagonalization with overlap
     ethr =  1.00E-13,  avg # of iterations =  1.0

     total cpu time spent up to now is    36467.2 secs

     total energy              =    -934.47271467 Ry
     Harris-Foulkes estimate   =    -934.47271467 Ry
     estimated scf accuracy    <          1.7E-12 Ry

     iteration # 53     ecut=    40.00 Ry     beta= 0.60
     Davidson diagonalization with overlap
     ethr =  1.00E-13,  avg # of iterations =  1.0

     total cpu time spent up to now is    36493.3 secs

     End of self-consistent calculation

     Number of k-points >= 100: set verbosity='high' to print the bands.

     the Fermi energy is    14.0125 ev

!    total energy              =    -934.47271467 Ry
     Harris-Foulkes estimate   =    -934.47271467 Ry
     estimated scf accuracy    <          1.2E-12 Ry

     The total energy is the sum of the following terms:

     one-electron contribution =    -306.40870822 Ry
     hartree contribution      =     185.91658217 Ry
     xc contribution           =    -120.10979688 Ry
     ewald contribution        =    -693.86932917 Ry
     smearing contrib. (-TS)   =      -0.00146257 Ry

     convergence has been achieved in  53 iterations

     Forces acting on atoms (cartesian axes, Ry/au):

     atom    1 type  2   force =    -0.00003261   -0.00001883    0.00000000
     atom    2 type  2   force =    -0.00004686   -0.00002706    0.00000000
     atom    3 type  2   force =    -0.00001601   -0.00000925    0.00000000
     atom    4 type  2   force =     0.00004807    0.00002775    0.00000000
     atom    5 type  2   force =     0.00020742    0.00011975    0.00000000
     atom    6 type  2   force =     0.00002893    0.00001670    0.00000000
     atom    7 type  2   force =    -0.00013745   -0.00007936    0.00000000
     atom    8 type  1   force =    -0.00005148   -0.00002972    0.00000000

     Total force =     0.000308     Total SCF correction =     0.000002


     Computing stress (Cartesian axis) and pressure

          total   stress  (Ry/bohr**3)                   (kbar)     P=   -7.37
  -0.00004302   0.00000700   0.00000000         -6.33      1.03      0.00
   0.00000700  -0.00005110   0.00000000          1.03     -7.52      0.00
   0.00000000   0.00000000  -0.00005612          0.00      0.00     -8.26

 
     init_run     :     31.28s CPU     32.20s WALL (       2 calls)
     electrons    :  35098.68s CPU  35704.85s WALL (      33 calls)
     update_pot   :     56.72s CPU     56.80s WALL (      31 calls)
     forces       :    177.36s CPU    182.02s WALL (      33 calls)
     stress       :    509.75s CPU    522.74s WALL (      33 calls)

     Called by init_run:
     wfcinit      :     28.29s CPU     28.95s WALL (       2 calls)
     potinit      :      0.91s CPU      0.92s WALL (       2 calls)
     hinit0       :      1.64s CPU      1.65s WALL (       2 calls)

     Called by electrons:
     c_bands      :  30848.15s CPU  31194.00s WALL (     871 calls)
     sum_band     :   4005.01s CPU   4164.66s WALL (     871 calls)
     v_of_rho     :     34.96s CPU     35.08s WALL (     898 calls)
     newd         :    211.97s CPU    316.14s WALL (     898 calls)
     mix_rho      :      5.11s CPU      5.17s WALL (     871 calls)

     Called by c_bands:
     init_us_2    :    376.20s CPU    376.81s WALL (  434400 calls)
     cegterg      :  27963.16s CPU  28298.36s WALL (  209044 calls)

     Called by sum_band:
     sum_band:bec :     15.58s CPU     15.89s WALL (  209040 calls)
     addusdens    :    239.82s CPU    334.74s WALL (     871 calls)

     Called by *egterg:
     h_psi        :  15663.73s CPU  15958.14s WALL (  932885 calls)
     s_psi        :   1226.42s CPU   1228.54s WALL (  932885 calls)
     g_psi        :    165.12s CPU    167.16s WALL (  723361 calls)
     cdiaghg      :   6445.31s CPU   6451.86s WALL (  923521 calls)

     Called by h_psi:
     h_psi:pot    :  15587.26s CPU  15880.83s WALL (  932885 calls)
     h_psi:calbec :   1467.68s CPU   1480.98s WALL (  932885 calls)
     vloc_psi     :  12882.84s CPU  13159.31s WALL (  932885 calls)
     add_vuspsi   :   1233.15s CPU   1235.60s WALL (  932885 calls)

     General routines
     calbec       :   2145.40s CPU   2164.19s WALL ( 1181525 calls)
     fft          :     20.38s CPU     20.74s WALL (   12503 calls)
     ffts         :      0.72s CPU      0.76s WALL (    1769 calls)
     fftw         :  14101.85s CPU  14192.84s WALL (73354214 calls)
     interpolate  :      1.87s CPU      1.90s WALL (     898 calls)
 
     Parallel routines
     fft_scatt_xy :   2427.40s CPU   2578.68s WALL (73368486 calls)
     fft_scatt_yz :   3386.80s CPU   3608.89s WALL (73368486 calls)
 
     PWSCF        :     9h58m CPU       58h10m WALL

       8h
 
   This run was terminated on:   4:24:50  27Mar2020            

=------------------------------------------------------------------------------=
   JOB DONE.
=------------------------------------------------------------------------------=
