
     Program PWSCF v.6.0 (svn rev. 13079) starts on 28Apr2018 at 12:55:32 

     This program is part of the open-source Quantum ESPRESSO suite
     for quantum simulation of materials; please cite
         "P. Giannozzi et al., J. Phys.:Condens. Matter 21 395502 (2009);
          URL http://www.quantum-espresso.org", 
     in publications or presentations arising from this work. More details at
     http://www.quantum-espresso.org/quote

     Parallel version (MPI), running on     4 processors
     R & G space division:  proc/nbgrp/npool/nimage =       4
     Waiting for input...
     Reading input from standard input

     Current dimensions of program PWSCF are:
     Max number of different atomic species (ntypx) = 10
     Max number of k-points (npk) =  40000
     Max angular momentum in pseudopotentials (lmaxx) =  3

     Subspace diagonalization in iterative solution of the eigenvalue problem:
     a serial algorithm will be used

     warning: symmetry operation #  2 not compatible with FFT grid. 
  -1   0   0
  -1   0   1
  -1   1   0
     warning: symmetry operation #  3 not compatible with FFT grid. 
   0   1  -1
   1   0  -1
   0   0  -1
     warning: symmetry operation #  4 not compatible with FFT grid. 
   0  -1   1
   0  -1   0
   1  -1   0
     warning: symmetry operation #  6 not compatible with FFT grid. 
   1   0   0
   1   0  -1
   1  -1   0
     warning: symmetry operation #  7 not compatible with FFT grid. 
   0  -1   1
  -1   0   1
   0   0   1
     warning: symmetry operation #  8 not compatible with FFT grid. 
   0   1  -1
   0   1   0
  -1   1   0

     Parallelization info
     --------------------
     sticks:   dense  smooth     PW     G-vecs:    dense   smooth      PW
     Min         821     327    111                20819     5240    1022
     Max         822     328    112                20820     5241    1023
     Sum        3287    1309    445                83279    20961    4089



     bravais-lattice index     =            0
     lattice parameter (alat)  =       1.8897  a.u.
     unit-cell volume          =     440.0051 (a.u.)^3
     number of atoms/cell      =            3
     number of atomic types    =            2
     number of electrons       =        37.00
     number of Kohn-Sham states=           23
     kinetic-energy cutoff     =      50.0000  Ry
     charge density cutoff     =     500.0000  Ry
     convergence threshold     =      1.0E-10
     mixing beta               =       0.6000
     number of iterations used =            8  plain     mixing
     Exchange-correlation      = SLA  PW   PBE  PBE ( 1  4  3  4 0 0)
     nstep                     =           50


     celldm(1)=   1.889726  celldm(2)=   0.000000  celldm(3)=   0.000000
     celldm(4)=   0.000000  celldm(5)=   0.000000  celldm(6)=   0.000000

     crystal axes: (cart. coord. in units of alat)
               a(1) = (   0.000000   7.032126   3.516063 )  
               a(2) = (   1.758031   5.274095   5.274095 )  
               a(3) = (   1.758031   1.758031  -1.758031 )  

     reciprocal axes: (cart. coord. in units 2 pi/alat)
               b(1) = ( -0.284409  0.189606 -0.094803 )  
               b(2) = (  0.284409 -0.094803  0.189606 )  
               b(3) = (  0.284409  0.094803 -0.189606 )  


     PseudoPot. # 1 for Nb read from file:
     ./Nb.pbe-nsp-van.UPF
     MD5 check sum: 0a22fc7fb0ba19a08ca5db297a5d2854
     Pseudo is Ultrasoft + core correction, Zval = 13.0
     Generated by new atomic code, or converted to UPF format
     Using radial grid of  887 points,  6 beta functions with: 
                l(1) =   0
                l(2) =   0
                l(3) =   1
                l(4) =   1
                l(5) =   2
                l(6) =   2
     Q(r) pseudized with  6 coefficients,  rinner =    1.000   1.000   1.000
                                                       1.000   1.000

     PseudoPot. # 2 for Ti read from file:
     ./Ti.pbe-sp-van_ak.UPF
     MD5 check sum: f98fea3e8887528921fefa5636a534ca
     Pseudo is Ultrasoft, Zval = 12.0
     Generated by new atomic code, or converted to UPF format
     Using radial grid of  851 points,  6 beta functions with: 
                l(1) =   0
                l(2) =   0
                l(3) =   1
                l(4) =   1
                l(5) =   2
                l(6) =   2
     Q(r) pseudized with  8 coefficients,  rinner =    1.000   1.000   1.000
                                                       1.000   1.000

     atomic species   valence    mass     pseudopotential
        Nb            13.00    92.90638     Nb( 1.00)
        Ti            12.00    47.86700     Ti( 1.00)

      2 Sym. Ops., with inversion, found ( 1 have fractional translation)



   Cartesian axes

     site n.     atom                  positions (alat units)
         1           Ti  tau(   1) = (   1.7580316   8.7901582   5.2740949  )
         2           Ti  tau(   2) = (   3.5160633  14.0642531   7.0321265  )
         3           Nb  tau(   3) = (   1.7580316   5.2740949   1.7580316  )

     number of k points=  1376  Marzari-Vanderbilt smearing, width (Ry)=  0.0200

     Number of k-points >= 100: set verbosity='high' to print them.

     Dense  grid:    83279 G-vectors     FFT dimensions: ( 108, 108,  45)

     Smooth grid:    20961 G-vectors     FFT dimensions: (  72,  72,  25)

     Estimated max dynamical RAM per process >     337.83Mb

     Estimated total allocated dynamical RAM >    1351.31Mb

     Initial potential from superposition of free atoms

     starting charge   34.99718, renormalised to   37.00000
     Starting wfc are   33 randomized atomic wfcs

     total cpu time spent up to now is       89.7 secs

     per-process dynamical memory:   424.1 Mb

     Self-consistent Calculation

     iteration #  1     ecut=    50.00 Ry     beta=0.60
     Davidson diagonalization with overlap
     ethr =  1.00E-02,  avg # of iterations =  3.7

     total cpu time spent up to now is      341.1 secs

     total energy              =    -337.61183502 Ry
     Harris-Foulkes estimate   =    -354.10331198 Ry
     estimated scf accuracy    <      20.44327367 Ry

     iteration #  2     ecut=    50.00 Ry     beta=0.60
     Davidson diagonalization with overlap
     ethr =  1.00E-02,  avg # of iterations =  7.6

     total cpu time spent up to now is      782.4 secs

     total energy              =    -343.03070182 Ry
     Harris-Foulkes estimate   =    -381.36278031 Ry
     estimated scf accuracy    <     127.16331463 Ry

     iteration #  3     ecut=    50.00 Ry     beta=0.60
     Davidson diagonalization with overlap
     ethr =  1.00E-02,  avg # of iterations =  4.5

     total cpu time spent up to now is     1106.1 secs

     total energy              =    -349.84856791 Ry
     Harris-Foulkes estimate   =    -352.84679403 Ry
     estimated scf accuracy    <      22.59451734 Ry

     iteration #  4     ecut=    50.00 Ry     beta=0.60
     Davidson diagonalization with overlap
     ethr =  1.00E-02,  avg # of iterations =  3.8

     total cpu time spent up to now is     1328.0 secs

     total energy              =    -351.05703136 Ry
     Harris-Foulkes estimate   =    -351.21544842 Ry
     estimated scf accuracy    <       0.48648226 Ry

     iteration #  5     ecut=    50.00 Ry     beta=0.60
     Davidson diagonalization with overlap
     ethr =  1.31E-03,  avg # of iterations =  5.6

     total cpu time spent up to now is     1604.7 secs

     total energy              =    -351.04830128 Ry
     Harris-Foulkes estimate   =    -351.47858348 Ry
     estimated scf accuracy    <       5.31112488 Ry

     iteration #  6     ecut=    50.00 Ry     beta=0.60
     Davidson diagonalization with overlap
     ethr =  1.31E-03,  avg # of iterations =  2.7

     total cpu time spent up to now is     1804.4 secs

     total energy              =    -351.07399555 Ry
     Harris-Foulkes estimate   =    -351.19090580 Ry
     estimated scf accuracy    <       0.74746982 Ry

     iteration #  7     ecut=    50.00 Ry     beta=0.60
     Davidson diagonalization with overlap
     ethr =  1.31E-03,  avg # of iterations =  4.9

     total cpu time spent up to now is     2018.6 secs

     total energy              =    -351.13092896 Ry
     Harris-Foulkes estimate   =    -351.17329594 Ry
     estimated scf accuracy    <       0.36489252 Ry

     iteration #  8     ecut=    50.00 Ry     beta=0.60
     Davidson diagonalization with overlap
     ethr =  9.86E-04,  avg # of iterations =  1.2

     total cpu time spent up to now is     2189.6 secs

     total energy              =    -351.15997451 Ry
     Harris-Foulkes estimate   =    -351.15994202 Ry
     estimated scf accuracy    <       0.02653255 Ry

     iteration #  9     ecut=    50.00 Ry     beta=0.60
     Davidson diagonalization with overlap
     ethr =  7.17E-05,  avg # of iterations =  6.9

     total cpu time spent up to now is     2470.3 secs

     total energy              =    -351.15932773 Ry
     Harris-Foulkes estimate   =    -351.16622511 Ry
     estimated scf accuracy    <       0.10390023 Ry

     iteration # 10     ecut=    50.00 Ry     beta=0.60
     Davidson diagonalization with overlap
     ethr =  7.17E-05,  avg # of iterations =  1.2

     total cpu time spent up to now is     2640.0 secs

     total energy              =    -351.15948153 Ry
     Harris-Foulkes estimate   =    -351.16134284 Ry
     estimated scf accuracy    <       0.01517626 Ry

     iteration # 11     ecut=    50.00 Ry     beta=0.60
     Davidson diagonalization with overlap
     c_bands:  1 eigenvalues not converged
     ethr =  4.10E-05,  avg # of iterations =  5.0

     total cpu time spent up to now is     2860.4 secs

     total energy              =    -351.16132714 Ry
     Harris-Foulkes estimate   =    -351.16175904 Ry
     estimated scf accuracy    <       0.00812886 Ry

     iteration # 12     ecut=    50.00 Ry     beta=0.60
     Davidson diagonalization with overlap
     c_bands:  2 eigenvalues not converged
     ethr =  2.20E-05,  avg # of iterations =  1.9

     total cpu time spent up to now is     3035.7 secs

     total energy              =    -351.16139015 Ry
     Harris-Foulkes estimate   =    -351.16149653 Ry
     estimated scf accuracy    <       0.00202851 Ry

     iteration # 13     ecut=    50.00 Ry     beta=0.60
     Davidson diagonalization with overlap
     c_bands:  1 eigenvalues not converged
     c_bands:  1 eigenvalues not converged
     c_bands:  1 eigenvalues not converged
     c_bands:  1 eigenvalues not converged
     c_bands:  1 eigenvalues not converged
     c_bands:  1 eigenvalues not converged
     c_bands:  1 eigenvalues not converged
     ethr =  5.48E-06,  avg # of iterations =  3.8

     total cpu time spent up to now is     3230.8 secs

     total energy              =    -351.16142483 Ry
     Harris-Foulkes estimate   =    -351.16146187 Ry
     estimated scf accuracy    <       0.00051548 Ry

     iteration # 14     ecut=    50.00 Ry     beta=0.60
     Davidson diagonalization with overlap
     c_bands:  1 eigenvalues not converged
     c_bands:  1 eigenvalues not converged
     c_bands:  1 eigenvalues not converged
     c_bands:  1 eigenvalues not converged
     ethr =  1.39E-06,  avg # of iterations =  5.2

     total cpu time spent up to now is     3462.2 secs

     total energy              =    -351.16148968 Ry
     Harris-Foulkes estimate   =    -351.16149130 Ry
     estimated scf accuracy    <       0.00001341 Ry

     iteration # 15     ecut=    50.00 Ry     beta=0.60
     Davidson diagonalization with overlap
     c_bands:  1 eigenvalues not converged
     ethr =  3.62E-08,  avg # of iterations =  4.5

     total cpu time spent up to now is     3693.6 secs

     total energy              =    -351.16149381 Ry
     Harris-Foulkes estimate   =    -351.16149402 Ry
     estimated scf accuracy    <       0.00000193 Ry

     iteration # 16     ecut=    50.00 Ry     beta=0.60
     Davidson diagonalization with overlap
     ethr =  5.20E-09,  avg # of iterations =  3.3

     total cpu time spent up to now is     3897.6 secs

     total energy              =    -351.16149404 Ry
     Harris-Foulkes estimate   =    -351.16149406 Ry
     estimated scf accuracy    <       0.00000006 Ry

     iteration # 17     ecut=    50.00 Ry     beta=0.60
     Davidson diagonalization with overlap
     ethr =  1.64E-10,  avg # of iterations =  4.9

     total cpu time spent up to now is     4157.1 secs

     total energy              =    -351.16149408 Ry
     Harris-Foulkes estimate   =    -351.16149408 Ry
     estimated scf accuracy    <          5.3E-09 Ry

     iteration # 18     ecut=    50.00 Ry     beta=0.60
     Davidson diagonalization with overlap
     ethr =  1.44E-11,  avg # of iterations =  3.2

     total cpu time spent up to now is     4363.6 secs

     total energy              =    -351.16149408 Ry
     Harris-Foulkes estimate   =    -351.16149408 Ry
     estimated scf accuracy    <       0.00000002 Ry

     iteration # 19     ecut=    50.00 Ry     beta=0.60
     Davidson diagonalization with overlap
     ethr =  1.44E-11,  avg # of iterations =  1.0

     total cpu time spent up to now is     4532.3 secs

     total energy              =    -351.16149408 Ry
     Harris-Foulkes estimate   =    -351.16149408 Ry
     estimated scf accuracy    <       0.00000001 Ry

     iteration # 20     ecut=    50.00 Ry     beta=0.60
     Davidson diagonalization with overlap
     ethr =  1.44E-11,  avg # of iterations =  1.0

     total cpu time spent up to now is     4701.3 secs

     total energy              =    -351.16149408 Ry
     Harris-Foulkes estimate   =    -351.16149408 Ry
     estimated scf accuracy    <          5.2E-09 Ry

     iteration # 21     ecut=    50.00 Ry     beta=0.60
     Davidson diagonalization with overlap
     ethr =  1.40E-11,  avg # of iterations =  1.6

     total cpu time spent up to now is     4874.0 secs

     total energy              =    -351.16149408 Ry
     Harris-Foulkes estimate   =    -351.16149408 Ry
     estimated scf accuracy    <          4.8E-10 Ry

     iteration # 22     ecut=    50.00 Ry     beta=0.60
     Davidson diagonalization with overlap
     ethr =  1.30E-12,  avg # of iterations =  4.8

     total cpu time spent up to now is     5122.5 secs

     total energy              =    -351.16149408 Ry
     Harris-Foulkes estimate   =    -351.16149408 Ry
     estimated scf accuracy    <          4.9E-10 Ry

     iteration # 23     ecut=    50.00 Ry     beta=0.60
     Davidson diagonalization with overlap
     ethr =  1.30E-12,  avg # of iterations =  1.0

     total cpu time spent up to now is     5291.3 secs

     total energy              =    -351.16149408 Ry
     Harris-Foulkes estimate   =    -351.16149408 Ry
     estimated scf accuracy    <          1.9E-10 Ry

     iteration # 24     ecut=    50.00 Ry     beta=0.60
     Davidson diagonalization with overlap
     ethr =  5.07E-13,  avg # of iterations =  1.2

     total cpu time spent up to now is     5461.2 secs

     End of self-consistent calculation

     Number of k-points >= 100: set verbosity='high' to print the bands.

     the Fermi energy is    11.4368 ev

!    total energy              =    -351.16149408 Ry
     Harris-Foulkes estimate   =    -351.16149408 Ry
     estimated scf accuracy    <          3.7E-11 Ry

     The total energy is the sum of the following terms:

     one-electron contribution =    -126.56283548 Ry
     hartree contribution      =      72.38664319 Ry
     xc contribution           =     -46.99874824 Ry
     ewald contribution        =    -249.98560518 Ry
     smearing contrib. (-TS)   =      -0.00094838 Ry

     convergence has been achieved in  24 iterations

     Forces acting on atoms (Ry/au):

     atom    1 type  2   force =    -0.00000008    0.00840379    0.00840385
     atom    2 type  2   force =     0.00000008   -0.00840379   -0.00840385
     atom    3 type  1   force =     0.00000000    0.00000000    0.00000000

     Total force =     0.016808     Total SCF correction =     0.000022


     entering subroutine stress ...

          total   stress  (Ry/bohr**3)                   (kbar)     P= -188.75
  -0.00125619   0.00000000  -0.00000000       -184.79      0.00     -0.00
   0.00000000  -0.00129650   0.00001678          0.00   -190.72      2.47
  -0.00000000   0.00001678  -0.00129650         -0.00      2.47   -190.72


     BFGS Geometry Optimization

     number of scf cycles    =   1
     number of bfgs steps    =   0

     enthalpy new            =    -351.1614940770 Ry

     new trust radius        =       0.1359903138 bohr
     new conv_thr            =            1.0E-10 Ry

     new unit-cell volume =    399.00696 a.u.^3 (    59.12673 Ang^3 )

CELL_PARAMETERS (alat=  1.88972599)
  -0.000000012   6.805671743   3.405047903
   1.702820914   5.105359827   5.105359809
   1.702821108   1.700311973  -1.700312032

ATOMIC_POSITIONS (angstrom)
Ti       1.702820928   8.511763189   5.111139314
Ti       3.405642053  13.607038724   6.805790831
Nb       1.702821040   5.103885172   1.703261216


     NEW-OLD atomic charge density approx. for the potential
     extrapolated charge   33.40402, renormalised to   37.00000

     total cpu time spent up to now is     5497.6 secs

     per-process dynamical memory:   430.2 Mb

     Self-consistent Calculation

     iteration #  1     ecut=    50.00 Ry     beta=0.60
     Davidson diagonalization with overlap
     c_bands:  1 eigenvalues not converged
     c_bands:  1 eigenvalues not converged
     c_bands:  1 eigenvalues not converged
     c_bands:  1 eigenvalues not converged
     c_bands:  1 eigenvalues not converged
     c_bands:  1 eigenvalues not converged
     c_bands:  1 eigenvalues not converged
     c_bands:  1 eigenvalues not converged
     c_bands:  1 eigenvalues not converged
     c_bands:  1 eigenvalues not converged
     c_bands:  1 eigenvalues not converged
     c_bands:  1 eigenvalues not converged
     c_bands:  1 eigenvalues not converged
     c_bands:  1 eigenvalues not converged
     c_bands:  1 eigenvalues not converged
     c_bands:  1 eigenvalues not converged
     c_bands:  1 eigenvalues not converged
     c_bands:  1 eigenvalues not converged
     c_bands:  1 eigenvalues not converged
     c_bands:  1 eigenvalues not converged
     c_bands:  1 eigenvalues not converged
     c_bands:  1 eigenvalues not converged
     c_bands:  1 eigenvalues not converged
     c_bands:  1 eigenvalues not converged
     c_bands:  1 eigenvalues not converged
     c_bands:  1 eigenvalues not converged
     c_bands:  1 eigenvalues not converged
     c_bands:  1 eigenvalues not converged
     c_bands:  1 eigenvalues not converged
     c_bands:  1 eigenvalues not converged
     c_bands:  1 eigenvalues not converged
     c_bands:  1 eigenvalues not converged
     c_bands:  1 eigenvalues not converged
     c_bands:  1 eigenvalues not converged
     c_bands:  1 eigenvalues not converged
     c_bands:  1 eigenvalues not converged
     c_bands:  1 eigenvalues not converged
     c_bands:  1 eigenvalues not converged
     c_bands:  1 eigenvalues not converged
     c_bands:  1 eigenvalues not converged
     ethr =  1.00E-06,  avg # of iterations = 14.3

     total cpu time spent up to now is     6149.5 secs

     total energy              =    -344.18115481 Ry
     Harris-Foulkes estimate   =    -359.90729252 Ry
     estimated scf accuracy    <       7.21693489 Ry

     iteration #  2     ecut=    50.00 Ry     beta=0.60
     Davidson diagonalization with overlap
     ethr =  1.00E-02,  avg # of iterations =  5.7

     total cpu time spent up to now is     6504.7 secs

     total energy              =    -348.82407622 Ry
     Harris-Foulkes estimate   =    -363.18437084 Ry
     estimated scf accuracy    <      56.08820167 Ry

     iteration #  3     ecut=    50.00 Ry     beta=0.60
     Davidson diagonalization with overlap
     ethr =  1.00E-02,  avg # of iterations =  5.1

     total cpu time spent up to now is     6806.1 secs

     total energy              =    -351.45062912 Ry
     Harris-Foulkes estimate   =    -353.14249884 Ry
     estimated scf accuracy    <       5.09879265 Ry

     iteration #  4     ecut=    50.00 Ry     beta=0.60
     Davidson diagonalization with overlap
     ethr =  1.00E-02,  avg # of iterations =  2.2

     total cpu time spent up to now is     6986.0 secs

     total energy              =    -351.58508716 Ry
     Harris-Foulkes estimate   =    -352.03917535 Ry
     estimated scf accuracy    <       5.37666569 Ry

     iteration #  5     ecut=    50.00 Ry     beta=0.60
     Davidson diagonalization with overlap
     ethr =  1.00E-02,  avg # of iterations =  1.0

     total cpu time spent up to now is     7154.9 secs

     total energy              =    -351.26051987 Ry
     Harris-Foulkes estimate   =    -351.65873414 Ry
     estimated scf accuracy    <       3.16383022 Ry

     iteration #  6     ecut=    50.00 Ry     beta=0.60
     Davidson diagonalization with overlap
     ethr =  8.55E-03,  avg # of iterations =  1.0

     total cpu time spent up to now is     7325.0 secs

     total energy              =    -351.28319643 Ry
     Harris-Foulkes estimate   =    -351.32512023 Ry
     estimated scf accuracy    <       1.29128797 Ry

     iteration #  7     ecut=    50.00 Ry     beta=0.60
     Davidson diagonalization with overlap
     ethr =  3.49E-03,  avg # of iterations =  1.7

     total cpu time spent up to now is     7499.5 secs

     total energy              =    -351.21462104 Ry
     Harris-Foulkes estimate   =    -351.31038999 Ry
     estimated scf accuracy    <       0.94976651 Ry

     iteration #  8     ecut=    50.00 Ry     beta=0.60
     Davidson diagonalization with overlap
     ethr =  2.57E-03,  avg # of iterations =  1.2

     total cpu time spent up to now is     7670.8 secs

     total energy              =    -351.17393008 Ry
     Harris-Foulkes estimate   =    -351.23489524 Ry
     estimated scf accuracy    <       0.46099226 Ry

     iteration #  9     ecut=    50.00 Ry     beta=0.60
     Davidson diagonalization with overlap
     ethr =  1.25E-03,  avg # of iterations =  3.1

     total cpu time spent up to now is     7871.7 secs

     total energy              =    -351.21236596 Ry
     Harris-Foulkes estimate   =    -351.21469555 Ry
     estimated scf accuracy    <       0.09052234 Ry

     iteration # 10     ecut=    50.00 Ry     beta=0.60
     Davidson diagonalization with overlap
     ethr =  2.45E-04,  avg # of iterations =  4.8

     total cpu time spent up to now is     8079.4 secs

     total energy              =    -351.19372226 Ry
     Harris-Foulkes estimate   =    -351.21560714 Ry
     estimated scf accuracy    <       0.06356973 Ry

     iteration # 11     ecut=    50.00 Ry     beta=0.60
     Davidson diagonalization with overlap
     ethr =  1.72E-04,  avg # of iterations =  4.5

     total cpu time spent up to now is     8311.8 secs

     total energy              =    -351.20610322 Ry
     Harris-Foulkes estimate   =    -351.20602462 Ry
     estimated scf accuracy    <       0.00253655 Ry

     iteration # 12     ecut=    50.00 Ry     beta=0.60
     Davidson diagonalization with overlap
     c_bands:  1 eigenvalues not converged
     c_bands:  1 eigenvalues not converged
     c_bands:  1 eigenvalues not converged
     c_bands:  1 eigenvalues not converged
     ethr =  6.86E-06,  avg # of iterations =  7.6

     total cpu time spent up to now is     8621.8 secs

     total energy              =    -351.20551979 Ry
     Harris-Foulkes estimate   =    -351.20694470 Ry
     estimated scf accuracy    <       0.00496714 Ry

     iteration # 13     ecut=    50.00 Ry     beta=0.60
     Davidson diagonalization with overlap
     ethr =  6.86E-06,  avg # of iterations =  4.5

     total cpu time spent up to now is     8852.9 secs

     total energy              =    -351.20625386 Ry
     Harris-Foulkes estimate   =    -351.20639627 Ry
     estimated scf accuracy    <       0.00294043 Ry

     iteration # 14     ecut=    50.00 Ry     beta=0.60
     Davidson diagonalization with overlap
     ethr =  6.86E-06,  avg # of iterations =  1.0

     total cpu time spent up to now is     9022.7 secs

     total energy              =    -351.20618751 Ry
     Harris-Foulkes estimate   =    -351.20629159 Ry
     estimated scf accuracy    <       0.00132653 Ry

     iteration # 15     ecut=    50.00 Ry     beta=0.60
     Davidson diagonalization with overlap
     ethr =  3.59E-06,  avg # of iterations =  1.4

     total cpu time spent up to now is     9195.3 secs

     total energy              =    -351.20623962 Ry
     Harris-Foulkes estimate   =    -351.20623988 Ry
     estimated scf accuracy    <       0.00006333 Ry

     iteration # 16     ecut=    50.00 Ry     beta=0.60
     Davidson diagonalization with overlap
     ethr =  1.71E-07,  avg # of iterations =  4.8

     total cpu time spent up to now is     9434.4 secs

     total energy              =    -351.20625696 Ry
     Harris-Foulkes estimate   =    -351.20625591 Ry
     estimated scf accuracy    <       0.00003833 Ry

     iteration # 17     ecut=    50.00 Ry     beta=0.60
     Davidson diagonalization with overlap
     ethr =  1.04E-07,  avg # of iterations =  1.0

     total cpu time spent up to now is     9604.2 secs

     total energy              =    -351.20625277 Ry
     Harris-Foulkes estimate   =    -351.20625739 Ry
     estimated scf accuracy    <       0.00004918 Ry

     iteration # 18     ecut=    50.00 Ry     beta=0.60
     Davidson diagonalization with overlap
     ethr =  1.04E-07,  avg # of iterations =  3.0

     total cpu time spent up to now is     9813.8 secs

     total energy              =    -351.20625387 Ry
     Harris-Foulkes estimate   =    -351.20625819 Ry
     estimated scf accuracy    <       0.00009211 Ry

     iteration # 19     ecut=    50.00 Ry     beta=0.60
     Davidson diagonalization with overlap
     ethr =  1.04E-07,  avg # of iterations =  2.7

     total cpu time spent up to now is    10002.8 secs

     total energy              =    -351.20625062 Ry
     Harris-Foulkes estimate   =    -351.20625743 Ry
     estimated scf accuracy    <       0.00011717 Ry

     iteration # 20     ecut=    50.00 Ry     beta=0.60
     Davidson diagonalization with overlap
     ethr =  1.04E-07,  avg # of iterations =  1.0

     total cpu time spent up to now is    10172.6 secs

     total energy              =    -351.20624925 Ry
     Harris-Foulkes estimate   =    -351.20625199 Ry
     estimated scf accuracy    <       0.00004450 Ry

     iteration # 21     ecut=    50.00 Ry     beta=0.60
     Davidson diagonalization with overlap
     ethr =  1.04E-07,  avg # of iterations =  1.1

     total cpu time spent up to now is    10342.6 secs

     total energy              =    -351.20624868 Ry
     Harris-Foulkes estimate   =    -351.20624998 Ry
     estimated scf accuracy    <       0.00001398 Ry

     iteration # 22     ecut=    50.00 Ry     beta=0.60
     Davidson diagonalization with overlap
     ethr =  3.78E-08,  avg # of iterations =  2.7

     total cpu time spent up to now is    10526.3 secs

     total energy              =    -351.20624936 Ry
     Harris-Foulkes estimate   =    -351.20624946 Ry
     estimated scf accuracy    <       0.00000062 Ry

     iteration # 23     ecut=    50.00 Ry     beta=0.60
     Davidson diagonalization with overlap
     ethr =  1.66E-09,  avg # of iterations =  5.1

     total cpu time spent up to now is    10785.2 secs

     total energy              =    -351.20624985 Ry
     Harris-Foulkes estimate   =    -351.20624994 Ry
     estimated scf accuracy    <       0.00000163 Ry

     iteration # 24     ecut=    50.00 Ry     beta=0.60
     Davidson diagonalization with overlap
     ethr =  1.66E-09,  avg # of iterations =  1.0

     total cpu time spent up to now is    10955.1 secs

     total energy              =    -351.20624980 Ry
     Harris-Foulkes estimate   =    -351.20624987 Ry
     estimated scf accuracy    <       0.00000067 Ry

     iteration # 25     ecut=    50.00 Ry     beta=0.60
     Davidson diagonalization with overlap
     ethr =  1.66E-09,  avg # of iterations =  2.5

     total cpu time spent up to now is    11138.8 secs

     total energy              =    -351.20624984 Ry
     Harris-Foulkes estimate   =    -351.20624984 Ry
     estimated scf accuracy    <       0.00000001 Ry

     iteration # 26     ecut=    50.00 Ry     beta=0.60
     Davidson diagonalization with overlap
     ethr =  2.99E-11,  avg # of iterations =  5.2

     total cpu time spent up to now is    11407.6 secs

     total energy              =    -351.20624984 Ry
     Harris-Foulkes estimate   =    -351.20624985 Ry
     estimated scf accuracy    <       0.00000003 Ry

     iteration # 27     ecut=    50.00 Ry     beta=0.60
     Davidson diagonalization with overlap
     ethr =  2.99E-11,  avg # of iterations =  2.9

     total cpu time spent up to now is    11595.2 secs

     End of self-consistent calculation

     Number of k-points >= 100: set verbosity='high' to print the bands.

     the Fermi energy is    12.8977 ev

!    total energy              =    -351.20624984 Ry
     Harris-Foulkes estimate   =    -351.20624984 Ry
     estimated scf accuracy    <          6.4E-11 Ry

     The total energy is the sum of the following terms:

     one-electron contribution =    -114.27297790 Ry
     hartree contribution      =      68.50924062 Ry
     xc contribution           =     -47.21302935 Ry
     ewald contribution        =    -258.22870571 Ry
     smearing contrib. (-TS)   =      -0.00077750 Ry

     convergence has been achieved in  27 iterations

     Forces acting on atoms (Ry/au):

     atom    1 type  2   force =     0.00000012    0.00570551    0.00570544
     atom    2 type  2   force =    -0.00000012   -0.00570551   -0.00570544
     atom    3 type  1   force =     0.00000000    0.00000000    0.00000000

     Total force =     0.011411     Total SCF correction =     0.000018


     entering subroutine stress ...

          total   stress  (Ry/bohr**3)                   (kbar)     P= -124.78
  -0.00081879   0.00000000  -0.00000001       -120.45      0.00     -0.00
   0.00000000  -0.00086300   0.00000426          0.00   -126.95      0.63
  -0.00000001   0.00000426  -0.00086299         -0.00      0.63   -126.95


     number of scf cycles    =   2
     number of bfgs steps    =   1

     enthalpy old            =    -351.1614940770 Ry
     enthalpy new            =    -351.2062498445 Ry

     CASE: enthalpy_new < enthalpy_old

     new trust radius        =       0.2007591579 bohr
     new conv_thr            =            1.0E-10 Ry

     new unit-cell volume =    342.78927 a.u.^3 (    50.79613 Ang^3 )

CELL_PARAMETERS (alat=  1.88972599)
  -0.000000385   6.464670592   3.235925788
   1.621802131   4.850297859   4.850298659
   1.621804768   1.614373354  -1.614374499

ATOMIC_POSITIONS (angstrom)
Ti       1.621802842   8.091989626   4.863244300
Ti       3.243606425  12.918788930   6.461297111
Nb       1.621803761   4.847905053   1.619158483


     NEW-OLD atomic charge density approx. for the potential
     extrapolated charge   31.26044, renormalised to   37.00000

     total cpu time spent up to now is    11631.4 secs

     per-process dynamical memory:   430.2 Mb

     Self-consistent Calculation

     iteration #  1     ecut=    50.00 Ry     beta=0.60
     Davidson diagonalization with overlap
     c_bands:  1 eigenvalues not converged
     c_bands:  1 eigenvalues not converged
     c_bands:  1 eigenvalues not converged
     c_bands:  1 eigenvalues not converged
     c_bands:  2 eigenvalues not converged
     c_bands:  1 eigenvalues not converged
     c_bands:  1 eigenvalues not converged
     c_bands:  1 eigenvalues not converged
     c_bands:  2 eigenvalues not converged
     c_bands:  1 eigenvalues not converged
     c_bands:  1 eigenvalues not converged
     c_bands:  1 eigenvalues not converged
     c_bands:  2 eigenvalues not converged
     c_bands:  1 eigenvalues not converged
     c_bands:  3 eigenvalues not converged
     c_bands:  1 eigenvalues not converged
     c_bands:  1 eigenvalues not converged
     c_bands:  1 eigenvalues not converged
     c_bands:  1 eigenvalues not converged
     c_bands:  1 eigenvalues not converged
     c_bands:  1 eigenvalues not converged
     c_bands:  1 eigenvalues not converged
     c_bands:  1 eigenvalues not converged
     c_bands:  1 eigenvalues not converged
     c_bands:  1 eigenvalues not converged
     ethr =  1.00E-06,  avg # of iterations = 14.6

     total cpu time spent up to now is    12331.2 secs

     total energy              =    -335.54700038 Ry
     Harris-Foulkes estimate   =    -363.60891574 Ry
     estimated scf accuracy    <      16.45526220 Ry

     iteration #  2     ecut=    50.00 Ry     beta=0.60
     Davidson diagonalization with overlap
     ethr =  1.00E-02,  avg # of iterations =  6.7

     total cpu time spent up to now is    12720.6 secs

     total energy              =    -346.14125187 Ry
     Harris-Foulkes estimate   =    -375.47151249 Ry
     estimated scf accuracy    <     102.24066992 Ry

     iteration #  3     ecut=    50.00 Ry     beta=0.60
     Davidson diagonalization with overlap
     ethr =  1.00E-02,  avg # of iterations =  4.8

     total cpu time spent up to now is    13049.5 secs

     total energy              =    -352.17355669 Ry
     Harris-Foulkes estimate   =    -354.15894272 Ry
     estimated scf accuracy    <       7.43111316 Ry

     iteration #  4     ecut=    50.00 Ry     beta=0.60
     Davidson diagonalization with overlap
     ethr =  1.00E-02,  avg # of iterations =  1.7

     total cpu time spent up to now is    13227.6 secs

     total energy              =    -351.80679059 Ry
     Harris-Foulkes estimate   =    -352.58871278 Ry
     estimated scf accuracy    <       9.00523006 Ry

     iteration #  5     ecut=    50.00 Ry     beta=0.60
     Davidson diagonalization with overlap
     ethr =  1.00E-02,  avg # of iterations =  1.0

     total cpu time spent up to now is    13396.9 secs

     total energy              =    -351.02996361 Ry
     Harris-Foulkes estimate   =    -351.94958018 Ry
     estimated scf accuracy    <       4.29908663 Ry

     iteration #  6     ecut=    50.00 Ry     beta=0.60
     Davidson diagonalization with overlap
     ethr =  1.00E-02,  avg # of iterations =  1.9

     total cpu time spent up to now is    13572.6 secs

     total energy              =    -351.18353186 Ry
     Harris-Foulkes estimate   =    -351.23820734 Ry
     estimated scf accuracy    <       0.61583058 Ry

     iteration #  7     ecut=    50.00 Ry     beta=0.60
     Davidson diagonalization with overlap
     ethr =  1.66E-03,  avg # of iterations =  4.4

     total cpu time spent up to now is    13807.2 secs

     total energy              =    -351.37733015 Ry
     Harris-Foulkes estimate   =    -351.28749849 Ry
     estimated scf accuracy    <       0.20513818 Ry

     iteration #  8     ecut=    50.00 Ry     beta=0.60
     Davidson diagonalization with overlap
     ethr =  5.54E-04,  avg # of iterations =  4.8

     total cpu time spent up to now is    14047.6 secs

     total energy              =    -351.30544941 Ry
     Harris-Foulkes estimate   =    -351.47804261 Ry
     estimated scf accuracy    <       1.66135258 Ry

     iteration #  9     ecut=    50.00 Ry     beta=0.60
     Davidson diagonalization with overlap
     ethr =  5.54E-04,  avg # of iterations =  2.1

     total cpu time spent up to now is    14225.0 secs

     total energy              =    -351.14618855 Ry
     Harris-Foulkes estimate   =    -351.32354200 Ry
     estimated scf accuracy    <       0.74424473 Ry

     iteration # 10     ecut=    50.00 Ry     beta=0.60
     Davidson diagonalization with overlap
     ethr =  5.54E-04,  avg # of iterations =  4.5

     total cpu time spent up to now is    14486.4 secs

     total energy              =    -351.22887761 Ry
     Harris-Foulkes estimate   =    -351.23093214 Ry
     estimated scf accuracy    <       0.05698930 Ry

     iteration # 11     ecut=    50.00 Ry     beta=0.60
     Davidson diagonalization with overlap
     ethr =  1.54E-04,  avg # of iterations =  2.3

     total cpu time spent up to now is    14667.3 secs

     total energy              =    -351.21728297 Ry
     Harris-Foulkes estimate   =    -351.23118798 Ry
     estimated scf accuracy    <       0.09970151 Ry

     iteration # 12     ecut=    50.00 Ry     beta=0.60
     Davidson diagonalization with overlap
     ethr =  1.54E-04,  avg # of iterations =  1.2

     total cpu time spent up to now is    14838.5 secs

     total energy              =    -351.22636611 Ry
     Harris-Foulkes estimate   =    -351.22742209 Ry
     estimated scf accuracy    <       0.01049401 Ry

     iteration # 13     ecut=    50.00 Ry     beta=0.60
     Davidson diagonalization with overlap
     ethr =  2.84E-05,  avg # of iterations =  4.9

     total cpu time spent up to now is    15070.6 secs

     total energy              =    -351.22607672 Ry
     Harris-Foulkes estimate   =    -351.22771616 Ry
     estimated scf accuracy    <       0.02293639 Ry

     iteration # 14     ecut=    50.00 Ry     beta=0.60
     Davidson diagonalization with overlap
     ethr =  2.84E-05,  avg # of iterations =  1.0

     total cpu time spent up to now is    15240.1 secs

     total energy              =    -351.22580892 Ry
     Harris-Foulkes estimate   =    -351.22639036 Ry
     estimated scf accuracy    <       0.00829135 Ry

     iteration # 15     ecut=    50.00 Ry     beta=0.60
     Davidson diagonalization with overlap
     ethr =  2.24E-05,  avg # of iterations =  1.4

     total cpu time spent up to now is    15415.5 secs

     total energy              =    -351.22574052 Ry
     Harris-Foulkes estimate   =    -351.22606417 Ry
     estimated scf accuracy    <       0.00146880 Ry

     iteration # 16     ecut=    50.00 Ry     beta=0.60
     Davidson diagonalization with overlap
     ethr =  3.97E-06,  avg # of iterations =  5.8

     total cpu time spent up to now is    15681.3 secs

     total energy              =    -351.22603426 Ry
     Harris-Foulkes estimate   =    -351.22604172 Ry
     estimated scf accuracy    <       0.00063644 Ry

     iteration # 17     ecut=    50.00 Ry     beta=0.60
     Davidson diagonalization with overlap
     ethr =  1.72E-06,  avg # of iterations =  1.1

     total cpu time spent up to now is    15852.1 secs

     total energy              =    -351.22600347 Ry
     Harris-Foulkes estimate   =    -351.22603854 Ry
     estimated scf accuracy    <       0.00050355 Ry

     iteration # 18     ecut=    50.00 Ry     beta=0.60
     Davidson diagonalization with overlap
     ethr =  1.36E-06,  avg # of iterations =  1.0

     total cpu time spent up to now is    16021.8 secs

     total energy              =    -351.22598712 Ry
     Harris-Foulkes estimate   =    -351.22601026 Ry
     estimated scf accuracy    <       0.00017809 Ry

     iteration # 19     ecut=    50.00 Ry     beta=0.60
     Davidson diagonalization with overlap
     ethr =  4.81E-07,  avg # of iterations =  1.7

     total cpu time spent up to now is    16196.7 secs

     total energy              =    -351.22599887 Ry
     Harris-Foulkes estimate   =    -351.22599990 Ry
     estimated scf accuracy    <       0.00000238 Ry

     iteration # 20     ecut=    50.00 Ry     beta=0.60
     Davidson diagonalization with overlap
     ethr =  6.44E-09,  avg # of iterations =  4.9

     total cpu time spent up to now is    16482.3 secs

     total energy              =    -351.22600324 Ry
     Harris-Foulkes estimate   =    -351.22600335 Ry
     estimated scf accuracy    <       0.00001077 Ry

     iteration # 21     ecut=    50.00 Ry     beta=0.60
     Davidson diagonalization with overlap
     ethr =  6.44E-09,  avg # of iterations =  1.0

     total cpu time spent up to now is    16651.9 secs

     total energy              =    -351.22600271 Ry
     Harris-Foulkes estimate   =    -351.22600325 Ry
     estimated scf accuracy    <       0.00000958 Ry

     iteration # 22     ecut=    50.00 Ry     beta=0.60
     Davidson diagonalization with overlap
     ethr =  6.44E-09,  avg # of iterations =  1.2

     total cpu time spent up to now is    16821.8 secs

     total energy              =    -351.22600243 Ry
     Harris-Foulkes estimate   =    -351.22600286 Ry
     estimated scf accuracy    <       0.00000324 Ry

     iteration # 23     ecut=    50.00 Ry     beta=0.60
     Davidson diagonalization with overlap
     ethr =  6.44E-09,  avg # of iterations =  2.7

     total cpu time spent up to now is    17012.7 secs

     total energy              =    -351.22600267 Ry
     Harris-Foulkes estimate   =    -351.22600268 Ry
     estimated scf accuracy    <       0.00000003 Ry

     iteration # 24     ecut=    50.00 Ry     beta=0.60
     Davidson diagonalization with overlap
     ethr =  7.53E-11,  avg # of iterations =  4.9

     total cpu time spent up to now is    17284.3 secs

     total energy              =    -351.22600269 Ry
     Harris-Foulkes estimate   =    -351.22600270 Ry
     estimated scf accuracy    <       0.00000001 Ry

     iteration # 25     ecut=    50.00 Ry     beta=0.60
     Davidson diagonalization with overlap
     ethr =  3.93E-11,  avg # of iterations =  3.0

     total cpu time spent up to now is    17501.8 secs

     total energy              =    -351.22600269 Ry
     Harris-Foulkes estimate   =    -351.22600269 Ry
     estimated scf accuracy    <       0.00000002 Ry

     iteration # 26     ecut=    50.00 Ry     beta=0.60
     Davidson diagonalization with overlap
     ethr =  3.93E-11,  avg # of iterations =  1.1

     total cpu time spent up to now is    17671.4 secs

     total energy              =    -351.22600269 Ry
     Harris-Foulkes estimate   =    -351.22600269 Ry
     estimated scf accuracy    <          2.4E-10 Ry

     iteration # 27     ecut=    50.00 Ry     beta=0.60
     Davidson diagonalization with overlap
     ethr =  6.53E-13,  avg # of iterations =  4.8

     total cpu time spent up to now is    17954.6 secs

     total energy              =    -351.22600269 Ry
     Harris-Foulkes estimate   =    -351.22600269 Ry
     estimated scf accuracy    <          2.0E-09 Ry

     iteration # 28     ecut=    50.00 Ry     beta=0.60
     Davidson diagonalization with overlap
     ethr =  6.53E-13,  avg # of iterations =  2.9

     total cpu time spent up to now is    18145.1 secs

     total energy              =    -351.22600269 Ry
     Harris-Foulkes estimate   =    -351.22600269 Ry
     estimated scf accuracy    <          2.9E-10 Ry

     iteration # 29     ecut=    50.00 Ry     beta=0.60
     Davidson diagonalization with overlap
     ethr =  6.53E-13,  avg # of iterations =  1.2

     total cpu time spent up to now is    18315.7 secs

     End of self-consistent calculation

     Number of k-points >= 100: set verbosity='high' to print the bands.

     the Fermi energy is    15.4417 ev

!    total energy              =    -351.22600269 Ry
     Harris-Foulkes estimate   =    -351.22600269 Ry
     estimated scf accuracy    <          3.2E-11 Ry

     The total energy is the sum of the following terms:

     one-electron contribution =     -94.72656079 Ry
     hartree contribution      =      62.66064850 Ry
     xc contribution           =     -47.60486957 Ry
     ewald contribution        =    -271.55462235 Ry
     smearing contrib. (-TS)   =      -0.00059848 Ry

     convergence has been achieved in  29 iterations

     Forces acting on atoms (Ry/au):

     atom    1 type  2   force =     0.00000006   -0.00181951   -0.00181951
     atom    2 type  2   force =    -0.00000006    0.00181951    0.00181951
     atom    3 type  1   force =     0.00000000    0.00000000    0.00000000

     Total force =     0.003639     Total SCF correction =     0.000027


     entering subroutine stress ...

          total   stress  (Ry/bohr**3)                   (kbar)     P=   41.90
   0.00032013  -0.00000001   0.00000002         47.09     -0.00      0.00
  -0.00000001   0.00026722  -0.00002161         -0.00     39.31     -3.18
   0.00000002  -0.00002161   0.00026721          0.00     -3.18     39.31


     number of scf cycles    =   3
     number of bfgs steps    =   2

     enthalpy old            =    -351.2062498445 Ry
     enthalpy new            =    -351.2260026915 Ry

     CASE: enthalpy_new < enthalpy_old

     new trust radius        =       0.0458665922 bohr
     new conv_thr            =            1.0E-10 Ry

     new unit-cell volume =    355.33963 a.u.^3 (    52.65590 Ang^3 )

CELL_PARAMETERS (alat=  1.88972599)
  -0.000000081   6.540160553   3.271612657
   1.641892041   4.905886405   4.905886964
   1.641892499   1.634274248  -1.634274590

ATOMIC_POSITIONS (angstrom)
Ti       1.641892234   8.184612549   4.916064679
Ti       3.283784363  13.071164711   6.534068569
Nb       1.641892319   4.904865151   1.636316814


     NEW-OLD atomic charge density approx. for the potential
     extrapolated charge   38.23608, renormalised to   37.00000

     total cpu time spent up to now is    18351.6 secs

     per-process dynamical memory:   429.7 Mb

     Self-consistent Calculation

     iteration #  1     ecut=    50.00 Ry     beta=0.60
     Davidson diagonalization with overlap
     c_bands:  1 eigenvalues not converged
     c_bands:  1 eigenvalues not converged
     c_bands:  1 eigenvalues not converged
     c_bands:  1 eigenvalues not converged
     ethr =  1.00E-06,  avg # of iterations = 10.1

     total cpu time spent up to now is    18835.9 secs

     total energy              =    -350.99101813 Ry
     Harris-Foulkes estimate   =    -348.88503831 Ry
     estimated scf accuracy    <       0.19759973 Ry

     iteration #  2     ecut=    50.00 Ry     beta=0.60
     Davidson diagonalization with overlap
     ethr =  5.34E-04,  avg # of iterations =  3.9

     total cpu time spent up to now is    19137.6 secs

     total energy              =    -351.14317012 Ry
     Harris-Foulkes estimate   =    -351.39159573 Ry
     estimated scf accuracy    <       0.78972117 Ry

     iteration #  3     ecut=    50.00 Ry     beta=0.60
     Davidson diagonalization with overlap
     ethr =  5.34E-04,  avg # of iterations =  4.5

     total cpu time spent up to now is    19397.1 secs

     total energy              =    -351.15435891 Ry
     Harris-Foulkes estimate   =    -351.36779125 Ry
     estimated scf accuracy    <       2.40356735 Ry

     iteration #  4     ecut=    50.00 Ry     beta=0.60
     Davidson diagonalization with overlap
     ethr =  5.34E-04,  avg # of iterations =  4.0

     total cpu time spent up to now is    19618.3 secs

     total energy              =    -351.23453220 Ry
     Harris-Foulkes estimate   =    -351.24424184 Ry
     estimated scf accuracy    <       0.07058090 Ry

     iteration #  5     ecut=    50.00 Ry     beta=0.60
     Davidson diagonalization with overlap
     ethr =  1.91E-04,  avg # of iterations =  1.9

     total cpu time spent up to now is    19792.5 secs

     total energy              =    -351.22534205 Ry
     Harris-Foulkes estimate   =    -351.23629624 Ry
     estimated scf accuracy    <       0.04424548 Ry

     iteration #  6     ecut=    50.00 Ry     beta=0.60
     Davidson diagonalization with overlap
     ethr =  1.20E-04,  avg # of iterations =  2.6

     total cpu time spent up to now is    19978.7 secs

     total energy              =    -351.22683866 Ry
     Harris-Foulkes estimate   =    -351.22823747 Ry
     estimated scf accuracy    <       0.01033282 Ry

     iteration #  7     ecut=    50.00 Ry     beta=0.60
     Davidson diagonalization with overlap
     ethr =  2.79E-05,  avg # of iterations =  4.2

     total cpu time spent up to now is    20188.2 secs

     total energy              =    -351.22788720 Ry
     Harris-Foulkes estimate   =    -351.22775187 Ry
     estimated scf accuracy    <       0.00258302 Ry

     iteration #  8     ecut=    50.00 Ry     beta=0.60
     Davidson diagonalization with overlap
     ethr =  6.98E-06,  avg # of iterations =  3.9

     total cpu time spent up to now is    20387.6 secs

     total energy              =    -351.22836669 Ry
     Harris-Foulkes estimate   =    -351.22801813 Ry
     estimated scf accuracy    <       0.00252946 Ry

     iteration #  9     ecut=    50.00 Ry     beta=0.60
     Davidson diagonalization with overlap
     ethr =  6.84E-06,  avg # of iterations =  1.0

     total cpu time spent up to now is    20554.4 secs

     total energy              =    -351.22780675 Ry
     Harris-Foulkes estimate   =    -351.22840538 Ry
     estimated scf accuracy    <       0.00425604 Ry

     iteration # 10     ecut=    50.00 Ry     beta=0.60
     Davidson diagonalization with overlap
     ethr =  6.84E-06,  avg # of iterations =  1.0

     total cpu time spent up to now is    20721.3 secs

     total energy              =    -351.22734071 Ry
     Harris-Foulkes estimate   =    -351.22786882 Ry
     estimated scf accuracy    <       0.00288204 Ry

     iteration # 11     ecut=    50.00 Ry     beta=0.60
     Davidson diagonalization with overlap
     ethr =  6.84E-06,  avg # of iterations =  2.5

     total cpu time spent up to now is    20906.3 secs

     total energy              =    -351.22740172 Ry
     Harris-Foulkes estimate   =    -351.22750742 Ry
     estimated scf accuracy    <       0.00089676 Ry

     iteration # 12     ecut=    50.00 Ry     beta=0.60
     Davidson diagonalization with overlap
     ethr =  2.42E-06,  avg # of iterations =  3.5

     total cpu time spent up to now is    21100.7 secs

     total energy              =    -351.22745877 Ry
     Harris-Foulkes estimate   =    -351.22747450 Ry
     estimated scf accuracy    <       0.00006168 Ry

     iteration # 13     ecut=    50.00 Ry     beta=0.60
     Davidson diagonalization with overlap
     ethr =  1.67E-07,  avg # of iterations =  4.8

     total cpu time spent up to now is    21364.1 secs

     total energy              =    -351.22748985 Ry
     Harris-Foulkes estimate   =    -351.22749939 Ry
     estimated scf accuracy    <       0.00012570 Ry

     iteration # 14     ecut=    50.00 Ry     beta=0.60
     Davidson diagonalization with overlap
     ethr =  1.67E-07,  avg # of iterations =  1.0

     total cpu time spent up to now is    21531.6 secs

     total energy              =    -351.22748275 Ry
     Harris-Foulkes estimate   =    -351.22749115 Ry
     estimated scf accuracy    <       0.00005601 Ry

     iteration # 15     ecut=    50.00 Ry     beta=0.60
     Davidson diagonalization with overlap
     ethr =  1.51E-07,  avg # of iterations =  2.3

     total cpu time spent up to now is    21720.6 secs

     total energy              =    -351.22748780 Ry
     Harris-Foulkes estimate   =    -351.22748786 Ry
     estimated scf accuracy    <       0.00000018 Ry

     iteration # 16     ecut=    50.00 Ry     beta=0.60
     Davidson diagonalization with overlap
     ethr =  4.96E-10,  avg # of iterations =  5.4

     total cpu time spent up to now is    22036.5 secs

     total energy              =    -351.22748810 Ry
     Harris-Foulkes estimate   =    -351.22748823 Ry
     estimated scf accuracy    <       0.00000032 Ry

     iteration # 17     ecut=    50.00 Ry     beta=0.60
     Davidson diagonalization with overlap
     ethr =  4.96E-10,  avg # of iterations =  4.6

     total cpu time spent up to now is    22282.0 secs

     total energy              =    -351.22748827 Ry
     Harris-Foulkes estimate   =    -351.22748828 Ry
     estimated scf accuracy    <       0.00000130 Ry

     iteration # 18     ecut=    50.00 Ry     beta=0.60
     Davidson diagonalization with overlap
     ethr =  4.96E-10,  avg # of iterations =  1.0

     total cpu time spent up to now is    22449.4 secs

     total energy              =    -351.22748818 Ry
     Harris-Foulkes estimate   =    -351.22748827 Ry
     estimated scf accuracy    <       0.00000122 Ry

     iteration # 19     ecut=    50.00 Ry     beta=0.60
     Davidson diagonalization with overlap
     ethr =  4.96E-10,  avg # of iterations =  2.6

     total cpu time spent up to now is    22632.7 secs

     total energy              =    -351.22748817 Ry
     Harris-Foulkes estimate   =    -351.22748820 Ry
     estimated scf accuracy    <       0.00000028 Ry

     iteration # 20     ecut=    50.00 Ry     beta=0.60
     Davidson diagonalization with overlap
     ethr =  4.96E-10,  avg # of iterations =  2.2

     total cpu time spent up to now is    22811.4 secs

     total energy              =    -351.22748818 Ry
     Harris-Foulkes estimate   =    -351.22748818 Ry
     estimated scf accuracy    <       0.00000003 Ry

     iteration # 21     ecut=    50.00 Ry     beta=0.60
     Davidson diagonalization with overlap
     ethr =  6.86E-11,  avg # of iterations =  4.2

     total cpu time spent up to now is    23040.8 secs

     total energy              =    -351.22748819 Ry
     Harris-Foulkes estimate   =    -351.22748819 Ry
     estimated scf accuracy    <       0.00000001 Ry

     iteration # 22     ecut=    50.00 Ry     beta=0.60
     Davidson diagonalization with overlap
     ethr =  3.62E-11,  avg # of iterations =  1.1

     total cpu time spent up to now is    23208.9 secs

     total energy              =    -351.22748819 Ry
     Harris-Foulkes estimate   =    -351.22748819 Ry
     estimated scf accuracy    <          4.3E-10 Ry

     iteration # 23     ecut=    50.00 Ry     beta=0.60
     Davidson diagonalization with overlap
     ethr =  1.17E-12,  avg # of iterations =  4.6

     total cpu time spent up to now is    23453.0 secs

     total energy              =    -351.22748819 Ry
     Harris-Foulkes estimate   =    -351.22748819 Ry
     estimated scf accuracy    <          5.5E-10 Ry

     iteration # 24     ecut=    50.00 Ry     beta=0.60
     Davidson diagonalization with overlap
     ethr =  1.17E-12,  avg # of iterations =  1.6

     total cpu time spent up to now is    23623.4 secs

     End of self-consistent calculation

     Number of k-points >= 100: set verbosity='high' to print the bands.

     the Fermi energy is    14.8067 ev

!    total energy              =    -351.22748819 Ry
     Harris-Foulkes estimate   =    -351.22748819 Ry
     estimated scf accuracy    <          1.9E-12 Ry

     The total energy is the sum of the following terms:

     one-electron contribution =     -99.40744445 Ry
     hartree contribution      =      64.02615043 Ry
     xc contribution           =     -47.50532961 Ry
     ewald contribution        =    -268.34024794 Ry
     smearing contrib. (-TS)   =      -0.00061661 Ry

     convergence has been achieved in  24 iterations

     Forces acting on atoms (Ry/au):

     atom    1 type  2   force =    -0.00000025    0.00038884    0.00038911
     atom    2 type  2   force =     0.00000025   -0.00038884   -0.00038911
     atom    3 type  1   force =     0.00000000    0.00000000    0.00000000

     Total force =     0.000778     Total SCF correction =     0.000004


     entering subroutine stress ...

          total   stress  (Ry/bohr**3)                   (kbar)     P=   -6.27
  -0.00001071  -0.00000000   0.00000000         -1.57     -0.00      0.00
  -0.00000000  -0.00005856  -0.00001332         -0.00     -8.61     -1.96
   0.00000000  -0.00001332  -0.00005856          0.00     -1.96     -8.61


     number of scf cycles    =   4
     number of bfgs steps    =   3

     enthalpy old            =    -351.2260026915 Ry
     enthalpy new            =    -351.2274881884 Ry

     CASE: enthalpy_new < enthalpy_old

     new trust radius        =       0.0073132169 bohr
     new conv_thr            =            3.9E-11 Ry

     new unit-cell volume =    353.67493 a.u.^3 (    52.40922 Ang^3 )

CELL_PARAMETERS (alat=  1.88972599)
  -0.000000004   6.526687388   3.263492066
   1.640491330   4.895089567   4.895090045
   1.640491474   1.631597868  -1.631598080

ATOMIC_POSITIONS (angstrom)
Ti       1.640491374   8.167763631   4.904568492
Ti       3.280982800  13.043995119   6.517604254
Nb       1.640491424   4.894990897   1.631795317


     NEW-OLD atomic charge density approx. for the potential
     extrapolated charge   36.83527, renormalised to   37.00000

     total cpu time spent up to now is    23659.1 secs

     per-process dynamical memory:   429.7 Mb

     Self-consistent Calculation

     iteration #  1     ecut=    50.00 Ry     beta=0.60
     Davidson diagonalization with overlap
     ethr =  1.00E-06,  avg # of iterations =  4.1

     total cpu time spent up to now is    23986.3 secs

     total energy              =    -351.22258161 Ry
     Harris-Foulkes estimate   =    -351.54500486 Ry
     estimated scf accuracy    <       0.00427394 Ry

     iteration #  2     ecut=    50.00 Ry     beta=0.60
     Davidson diagonalization with overlap
     ethr =  1.16E-05,  avg # of iterations =  3.7

     total cpu time spent up to now is    24285.5 secs

     total energy              =    -351.22709600 Ry
     Harris-Foulkes estimate   =    -351.23062635 Ry
     estimated scf accuracy    <       0.00997326 Ry

     iteration #  3     ecut=    50.00 Ry     beta=0.60
     Davidson diagonalization with overlap
     ethr =  1.16E-05,  avg # of iterations =  3.0

     total cpu time spent up to now is    24492.5 secs

     total energy              =    -351.22783056 Ry
     Harris-Foulkes estimate   =    -351.22801537 Ry
     estimated scf accuracy    <       0.00276761 Ry

     iteration #  4     ecut=    50.00 Ry     beta=0.60
     Davidson diagonalization with overlap
     ethr =  7.48E-06,  avg # of iterations =  1.0

     total cpu time spent up to now is    24657.5 secs

     total energy              =    -351.22764312 Ry
     Harris-Foulkes estimate   =    -351.22790484 Ry
     estimated scf accuracy    <       0.00131763 Ry

     iteration #  5     ecut=    50.00 Ry     beta=0.60
     Davidson diagonalization with overlap
     ethr =  3.56E-06,  avg # of iterations =  1.0

     total cpu time spent up to now is    24823.3 secs

     total energy              =    -351.22750540 Ry
     Harris-Foulkes estimate   =    -351.22768113 Ry
     estimated scf accuracy    <       0.00078742 Ry

     iteration #  6     ecut=    50.00 Ry     beta=0.60
     Davidson diagonalization with overlap
     ethr =  2.13E-06,  avg # of iterations =  2.4

     total cpu time spent up to now is    25010.6 secs

     total energy              =    -351.22754989 Ry
     Harris-Foulkes estimate   =    -351.22756581 Ry
     estimated scf accuracy    <       0.00014071 Ry

     iteration #  7     ecut=    50.00 Ry     beta=0.60
     Davidson diagonalization with overlap
     ethr =  3.80E-07,  avg # of iterations =  2.3

     total cpu time spent up to now is    25187.7 secs

     total energy              =    -351.22754016 Ry
     Harris-Foulkes estimate   =    -351.22755643 Ry
     estimated scf accuracy    <       0.00008572 Ry

     iteration #  8     ecut=    50.00 Ry     beta=0.60
     Davidson diagonalization with overlap
     ethr =  2.32E-07,  avg # of iterations =  2.3

     total cpu time spent up to now is    25369.6 secs

     total energy              =    -351.22754487 Ry
     Harris-Foulkes estimate   =    -351.22754530 Ry
     estimated scf accuracy    <       0.00002721 Ry

     iteration #  9     ecut=    50.00 Ry     beta=0.60
     Davidson diagonalization with overlap
     ethr =  7.36E-08,  avg # of iterations =  2.1

     total cpu time spent up to now is    25543.1 secs

     total energy              =    -351.22753943 Ry
     Harris-Foulkes estimate   =    -351.22754592 Ry
     estimated scf accuracy    <       0.00002745 Ry

     iteration # 10     ecut=    50.00 Ry     beta=0.60
     Davidson diagonalization with overlap
     ethr =  7.36E-08,  avg # of iterations =  2.4

     total cpu time spent up to now is    25722.7 secs

     total energy              =    -351.22753796 Ry
     Harris-Foulkes estimate   =    -351.22754108 Ry
     estimated scf accuracy    <       0.00000916 Ry

     iteration # 11     ecut=    50.00 Ry     beta=0.60
     Davidson diagonalization with overlap
     ethr =  2.48E-08,  avg # of iterations =  3.8

     total cpu time spent up to now is    25953.9 secs

     total energy              =    -351.22754034 Ry
     Harris-Foulkes estimate   =    -351.22754049 Ry
     estimated scf accuracy    <       0.00000090 Ry

     iteration # 12     ecut=    50.00 Ry     beta=0.60
     Davidson diagonalization with overlap
     ethr =  2.44E-09,  avg # of iterations =  2.8

     total cpu time spent up to now is    26149.5 secs

     total energy              =    -351.22754046 Ry
     Harris-Foulkes estimate   =    -351.22754046 Ry
     estimated scf accuracy    <       0.00000002 Ry

     iteration # 13     ecut=    50.00 Ry     beta=0.60
     Davidson diagonalization with overlap
     ethr =  5.48E-11,  avg # of iterations =  4.8

     total cpu time spent up to now is    26428.1 secs

     total energy              =    -351.22754048 Ry
     Harris-Foulkes estimate   =    -351.22754048 Ry
     estimated scf accuracy    <          8.8E-09 Ry

     iteration # 14     ecut=    50.00 Ry     beta=0.60
     Davidson diagonalization with overlap
     ethr =  2.38E-11,  avg # of iterations =  1.2

     total cpu time spent up to now is    26597.3 secs

     total energy              =    -351.22754048 Ry
     Harris-Foulkes estimate   =    -351.22754048 Ry
     estimated scf accuracy    <          2.5E-10 Ry

     iteration # 15     ecut=    50.00 Ry     beta=0.60
     Davidson diagonalization with overlap
     ethr =  6.72E-13,  avg # of iterations =  4.7

     total cpu time spent up to now is    26858.8 secs

     total energy              =    -351.22754048 Ry
     Harris-Foulkes estimate   =    -351.22754048 Ry
     estimated scf accuracy    <          3.6E-10 Ry

     iteration # 16     ecut=    50.00 Ry     beta=0.60
     Davidson diagonalization with overlap
     ethr =  6.72E-13,  avg # of iterations =  3.2

     total cpu time spent up to now is    27055.5 secs

     total energy              =    -351.22754048 Ry
     Harris-Foulkes estimate   =    -351.22754048 Ry
     estimated scf accuracy    <          1.7E-10 Ry

     iteration # 17     ecut=    50.00 Ry     beta=0.60
     Davidson diagonalization with overlap
     ethr =  4.47E-13,  avg # of iterations =  1.0

     total cpu time spent up to now is    27221.7 secs

     End of self-consistent calculation

     Number of k-points >= 100: set verbosity='high' to print the bands.

     the Fermi energy is    14.8885 ev

!    total energy              =    -351.22754048 Ry
     Harris-Foulkes estimate   =    -351.22754048 Ry
     estimated scf accuracy    <          3.3E-11 Ry

     The total energy is the sum of the following terms:

     one-electron contribution =     -98.79804368 Ry
     hartree contribution      =      63.84707461 Ry
     xc contribution           =     -47.51806177 Ry
     ewald contribution        =    -268.75789980 Ry
     smearing contrib. (-TS)   =      -0.00060984 Ry

     convergence has been achieved in  17 iterations

     Forces acting on atoms (Ry/au):

     atom    1 type  2   force =    -0.00000024    0.00009843    0.00009870
     atom    2 type  2   force =     0.00000024   -0.00009843   -0.00009870
     atom    3 type  1   force =     0.00000000    0.00000000    0.00000000

     Total force =     0.000197     Total SCF correction =     0.000013


     entering subroutine stress ...

          total   stress  (Ry/bohr**3)                   (kbar)     P=   -0.35
   0.00002799  -0.00000000   0.00000000          4.12     -0.00      0.00
  -0.00000000  -0.00001752  -0.00001297         -0.00     -2.58     -1.91
   0.00000000  -0.00001297  -0.00001752          0.00     -1.91     -2.58


     number of scf cycles    =   5
     number of bfgs steps    =   4

     enthalpy old            =    -351.2274881884 Ry
     enthalpy new            =    -351.2275404762 Ry

     CASE: enthalpy_new < enthalpy_old

     new trust radius        =       0.0038017161 bohr
     new conv_thr            =            9.9E-12 Ry

     new unit-cell volume =    353.25604 a.u.^3 (    52.34714 Ang^3 )

CELL_PARAMETERS (alat=  1.88972599)
   0.000000053   6.519312817   3.257656134
   1.641536598   4.888484370   4.888484713
   1.641536522   1.630828459  -1.630828553

ATOMIC_POSITIONS (angstrom)
Ti       1.641536451   8.158280454   4.896624141
Ti       3.283073330  13.029152802   6.505839201
Nb       1.641536565   4.889818035   1.628161247


     NEW-OLD atomic charge density approx. for the potential
     extrapolated charge   36.95850, renormalised to   37.00000

     total cpu time spent up to now is    27257.2 secs

     per-process dynamical memory:   437.4 Mb

     Self-consistent Calculation

     iteration #  1     ecut=    50.00 Ry     beta=0.60
     Davidson diagonalization with overlap
     ethr =  1.00E-06,  avg # of iterations =  3.3

     total cpu time spent up to now is    27543.7 secs

     total energy              =    -351.22723538 Ry
     Harris-Foulkes estimate   =    -351.30725203 Ry
     estimated scf accuracy    <       0.00029131 Ry

     iteration #  2     ecut=    50.00 Ry     beta=0.60
     Davidson diagonalization with overlap
     ethr =  7.87E-07,  avg # of iterations =  3.9

     total cpu time spent up to now is    27840.8 secs

     total energy              =    -351.22729276 Ry
     Harris-Foulkes estimate   =    -351.22783257 Ry
     estimated scf accuracy    <       0.00213017 Ry

     iteration #  3     ecut=    50.00 Ry     beta=0.60
     Davidson diagonalization with overlap
     ethr =  7.87E-07,  avg # of iterations =  4.6

     total cpu time spent up to now is    28097.5 secs

     total energy              =    -351.22739593 Ry
     Harris-Foulkes estimate   =    -351.22785647 Ry
     estimated scf accuracy    <       0.00459808 Ry

     iteration #  4     ecut=    50.00 Ry     beta=0.60
     Davidson diagonalization with overlap
     ethr =  7.87E-07,  avg # of iterations =  4.1

     total cpu time spent up to now is    28326.5 secs

     total energy              =    -351.22756684 Ry
     Harris-Foulkes estimate   =    -351.22758209 Ry
     estimated scf accuracy    <       0.00011173 Ry

     iteration #  5     ecut=    50.00 Ry     beta=0.60
     Davidson diagonalization with overlap
     ethr =  3.02E-07,  avg # of iterations =  1.3

     total cpu time spent up to now is    28496.6 secs

     total energy              =    -351.22755381 Ry
     Harris-Foulkes estimate   =    -351.22756953 Ry
     estimated scf accuracy    <       0.00006269 Ry

     iteration #  6     ecut=    50.00 Ry     beta=0.60
     Davidson diagonalization with overlap
     ethr =  1.69E-07,  avg # of iterations =  2.9

     total cpu time spent up to now is    28692.0 secs

     total energy              =    -351.22755622 Ry
     Harris-Foulkes estimate   =    -351.22755912 Ry
     estimated scf accuracy    <       0.00000745 Ry

     iteration #  7     ecut=    50.00 Ry     beta=0.60
     Davidson diagonalization with overlap
     ethr =  2.01E-08,  avg # of iterations =  4.1

     total cpu time spent up to now is    28945.6 secs

     total energy              =    -351.22755907 Ry
     Harris-Foulkes estimate   =    -351.22755943 Ry
     estimated scf accuracy    <       0.00000404 Ry

     iteration #  8     ecut=    50.00 Ry     beta=0.60
     Davidson diagonalization with overlap
     ethr =  1.09E-08,  avg # of iterations =  1.0

     total cpu time spent up to now is    29114.5 secs

     total energy              =    -351.22755899 Ry
     Harris-Foulkes estimate   =    -351.22755912 Ry
     estimated scf accuracy    <       0.00000211 Ry

     iteration #  9     ecut=    50.00 Ry     beta=0.60
     Davidson diagonalization with overlap
     ethr =  5.70E-09,  avg # of iterations =  1.0

     total cpu time spent up to now is    29283.4 secs

     total energy              =    -351.22755880 Ry
     Harris-Foulkes estimate   =    -351.22755903 Ry
     estimated scf accuracy    <       0.00000102 Ry

     iteration # 10     ecut=    50.00 Ry     beta=0.60
     Davidson diagonalization with overlap
     ethr =  2.75E-09,  avg # of iterations =  3.6

     total cpu time spent up to now is    29496.8 secs

     total energy              =    -351.22755897 Ry
     Harris-Foulkes estimate   =    -351.22755898 Ry
     estimated scf accuracy    <       0.00000024 Ry

     iteration # 11     ecut=    50.00 Ry     beta=0.60
     Davidson diagonalization with overlap
     ethr =  6.50E-10,  avg # of iterations =  2.1

     total cpu time spent up to now is    29673.9 secs

     total energy              =    -351.22755896 Ry
     Harris-Foulkes estimate   =    -351.22755898 Ry
     estimated scf accuracy    <       0.00000017 Ry

     iteration # 12     ecut=    50.00 Ry     beta=0.60
     Davidson diagonalization with overlap
     ethr =  4.54E-10,  avg # of iterations =  1.2

     total cpu time spent up to now is    29843.2 secs

     total energy              =    -351.22755896 Ry
     Harris-Foulkes estimate   =    -351.22755897 Ry
     estimated scf accuracy    <       0.00000003 Ry

     iteration # 13     ecut=    50.00 Ry     beta=0.60
     Davidson diagonalization with overlap
     ethr =  6.85E-11,  avg # of iterations =  4.0

     total cpu time spent up to now is    30068.1 secs

     total energy              =    -351.22755897 Ry
     Harris-Foulkes estimate   =    -351.22755897 Ry
     estimated scf accuracy    <          1.9E-09 Ry

     iteration # 14     ecut=    50.00 Ry     beta=0.60
     Davidson diagonalization with overlap
     ethr =  5.01E-12,  avg # of iterations =  2.7

     total cpu time spent up to now is    30256.3 secs

     total energy              =    -351.22755897 Ry
     Harris-Foulkes estimate   =    -351.22755897 Ry
     estimated scf accuracy    <          3.4E-10 Ry

     iteration # 15     ecut=    50.00 Ry     beta=0.60
     Davidson diagonalization with overlap
     ethr =  9.31E-13,  avg # of iterations =  4.1

     total cpu time spent up to now is    30489.0 secs

     total energy              =    -351.22755897 Ry
     Harris-Foulkes estimate   =    -351.22755897 Ry
     estimated scf accuracy    <          8.6E-10 Ry

     iteration # 16     ecut=    50.00 Ry     beta=0.60
     Davidson diagonalization with overlap
     ethr =  9.31E-13,  avg # of iterations =  1.4

     total cpu time spent up to now is    30659.0 secs

     total energy              =    -351.22755897 Ry
     Harris-Foulkes estimate   =    -351.22755897 Ry
     estimated scf accuracy    <          1.5E-10 Ry

     iteration # 17     ecut=    50.00 Ry     beta=0.60
     Davidson diagonalization with overlap
     ethr =  3.95E-13,  avg # of iterations =  3.7

     total cpu time spent up to now is    30872.0 secs

     total energy              =    -351.22755897 Ry
     Harris-Foulkes estimate   =    -351.22755897 Ry
     estimated scf accuracy    <          4.4E-11 Ry

     iteration # 18     ecut=    50.00 Ry     beta=0.60
     Davidson diagonalization with overlap
     ethr =  1.19E-13,  avg # of iterations =  1.1

     total cpu time spent up to now is    31039.0 secs

     total energy              =    -351.22755897 Ry
     Harris-Foulkes estimate   =    -351.22755897 Ry
     estimated scf accuracy    <          1.1E-11 Ry

     iteration # 19     ecut=    50.00 Ry     beta=0.60
     Davidson diagonalization with overlap
     ethr =  1.00E-13,  avg # of iterations =  2.5

     total cpu time spent up to now is    31219.1 secs

     End of self-consistent calculation

     Number of k-points >= 100: set verbosity='high' to print the bands.

     the Fermi energy is    14.9092 ev

!    total energy              =    -351.22755897 Ry
     Harris-Foulkes estimate   =    -351.22755897 Ry
     estimated scf accuracy    <          5.3E-12 Ry

     The total energy is the sum of the following terms:

     one-electron contribution =     -98.64411118 Ry
     hartree contribution      =      63.80184594 Ry
     xc contribution           =     -47.52126686 Ry
     ewald contribution        =    -268.86342245 Ry
     smearing contrib. (-TS)   =      -0.00060441 Ry

     convergence has been achieved in  19 iterations

     Forces acting on atoms (Ry/au):

     atom    1 type  2   force =    -0.00000023    0.00000211    0.00000240
     atom    2 type  2   force =     0.00000023   -0.00000211   -0.00000240
     atom    3 type  1   force =     0.00000000    0.00000000    0.00000000

     Total force =     0.000005     Total SCF correction =     0.000009
     SCF correction compared to forces is large: reduce conv_thr to get better values


     entering subroutine stress ...

          total   stress  (Ry/bohr**3)                   (kbar)     P=    1.18
   0.00003567   0.00000000  -0.00000000          5.25      0.00     -0.00
   0.00000000  -0.00000581  -0.00001136          0.00     -0.85     -1.67
  -0.00000000  -0.00001136  -0.00000581         -0.00     -1.67     -0.85


     number of scf cycles    =   6
     number of bfgs steps    =   5

     enthalpy old            =    -351.2275404762 Ry
     enthalpy new            =    -351.2275589683 Ry

     CASE: enthalpy_new < enthalpy_old

     new trust radius        =       0.0041846578 bohr
     new conv_thr            =            1.0E-12 Ry

     new unit-cell volume =    353.07308 a.u.^3 (    52.32003 Ang^3 )

CELL_PARAMETERS (alat=  1.88972599)
   0.000000089   6.512239443   3.251476984
   1.643364086   4.881858152   4.881858381
   1.643363887   1.630381286  -1.630381301

ATOMIC_POSITIONS (angstrom)
Ti       1.643363719   8.149068207   4.888306350
Ti       3.286728422  13.014936165   6.493410856
Nb       1.643363983   4.884953389   1.624190921


     NEW-OLD atomic charge density approx. for the potential
     extrapolated charge   36.98187, renormalised to   37.00000

     total cpu time spent up to now is    31254.7 secs

     per-process dynamical memory:   429.6 Mb

     Self-consistent Calculation

     iteration #  1     ecut=    50.00 Ry     beta=0.60
     Davidson diagonalization with overlap
     ethr =  1.00E-06,  avg # of iterations =  3.0

     total cpu time spent up to now is    31532.2 secs

     total energy              =    -351.22750310 Ry
     Harris-Foulkes estimate   =    -351.26236893 Ry
     estimated scf accuracy    <       0.00007776 Ry

     iteration #  2     ecut=    50.00 Ry     beta=0.60
     Davidson diagonalization with overlap
     ethr =  2.10E-07,  avg # of iterations =  4.7

     total cpu time spent up to now is    31830.8 secs

     total energy              =    -351.22738459 Ry
     Harris-Foulkes estimate   =    -351.22773867 Ry
     estimated scf accuracy    <       0.00254275 Ry

     iteration #  3     ecut=    50.00 Ry     beta=0.60
     Davidson diagonalization with overlap
     ethr =  2.10E-07,  avg # of iterations =  4.8

     total cpu time spent up to now is    32083.4 secs

     total energy              =    -351.22756378 Ry
     Harris-Foulkes estimate   =    -351.22762135 Ry
     estimated scf accuracy    <       0.00047135 Ry

     iteration #  4     ecut=    50.00 Ry     beta=0.60
     Davidson diagonalization with overlap
     ethr =  2.10E-07,  avg # of iterations =  3.4

     total cpu time spent up to now is    32286.5 secs

     total energy              =    -351.22757799 Ry
     Harris-Foulkes estimate   =    -351.22758186 Ry
     estimated scf accuracy    <       0.00002964 Ry

     iteration #  5     ecut=    50.00 Ry     beta=0.60
     Davidson diagonalization with overlap
     ethr =  8.01E-08,  avg # of iterations =  2.6

     total cpu time spent up to now is    32466.2 secs

     total energy              =    -351.22757665 Ry
     Harris-Foulkes estimate   =    -351.22757974 Ry
     estimated scf accuracy    <       0.00000944 Ry

     iteration #  6     ecut=    50.00 Ry     beta=0.60
     Davidson diagonalization with overlap
     ethr =  2.55E-08,  avg # of iterations =  3.8

     total cpu time spent up to now is    32685.6 secs

     total energy              =    -351.22757862 Ry
     Harris-Foulkes estimate   =    -351.22757864 Ry
     estimated scf accuracy    <       0.00000033 Ry

     iteration #  7     ecut=    50.00 Ry     beta=0.60
     Davidson diagonalization with overlap
     ethr =  8.83E-10,  avg # of iterations =  4.0

     total cpu time spent up to now is    32918.6 secs

     total energy              =    -351.22757868 Ry
     Harris-Foulkes estimate   =    -351.22757873 Ry
     estimated scf accuracy    <       0.00000029 Ry

     iteration #  8     ecut=    50.00 Ry     beta=0.60
     Davidson diagonalization with overlap
     ethr =  7.90E-10,  avg # of iterations =  2.2

     total cpu time spent up to now is    33095.5 secs

     total energy              =    -351.22757870 Ry
     Harris-Foulkes estimate   =    -351.22757870 Ry
     estimated scf accuracy    <          5.3E-09 Ry

     iteration #  9     ecut=    50.00 Ry     beta=0.60
     Davidson diagonalization with overlap
     ethr =  1.43E-11,  avg # of iterations =  5.0

     total cpu time spent up to now is    33375.2 secs

     total energy              =    -351.22757871 Ry
     Harris-Foulkes estimate   =    -351.22757871 Ry
     estimated scf accuracy    <       0.00000001 Ry

     iteration # 10     ecut=    50.00 Ry     beta=0.60
     Davidson diagonalization with overlap
     ethr =  1.43E-11,  avg # of iterations =  3.9

     total cpu time spent up to now is    33598.3 secs

     total energy              =    -351.22757871 Ry
     Harris-Foulkes estimate   =    -351.22757871 Ry
     estimated scf accuracy    <          4.7E-09 Ry

     iteration # 11     ecut=    50.00 Ry     beta=0.60
     Davidson diagonalization with overlap
     ethr =  1.27E-11,  avg # of iterations =  2.8

     total cpu time spent up to now is    33787.0 secs

     total energy              =    -351.22757871 Ry
     Harris-Foulkes estimate   =    -351.22757871 Ry
     estimated scf accuracy    <          4.8E-10 Ry

     iteration # 12     ecut=    50.00 Ry     beta=0.60
     Davidson diagonalization with overlap
     ethr =  1.29E-12,  avg # of iterations =  3.9

     total cpu time spent up to now is    34003.0 secs

     total energy              =    -351.22757871 Ry
     Harris-Foulkes estimate   =    -351.22757871 Ry
     estimated scf accuracy    <          4.3E-12 Ry

     iteration # 13     ecut=    50.00 Ry     beta=0.60
     Davidson diagonalization with overlap
     ethr =  1.00E-13,  avg # of iterations =  3.6

     total cpu time spent up to now is    34205.4 secs

     total energy              =    -351.22757871 Ry
     Harris-Foulkes estimate   =    -351.22757871 Ry
     estimated scf accuracy    <          1.0E-11 Ry

     iteration # 14     ecut=    50.00 Ry     beta=0.60
     Davidson diagonalization with overlap
     ethr =  1.00E-13,  avg # of iterations =  1.0

     total cpu time spent up to now is    34371.7 secs

     total energy              =    -351.22757871 Ry
     Harris-Foulkes estimate   =    -351.22757871 Ry
     estimated scf accuracy    <          3.4E-12 Ry

     iteration # 15     ecut=    50.00 Ry     beta=0.60
     Davidson diagonalization with overlap
     ethr =  1.00E-13,  avg # of iterations =  1.0

     total cpu time spent up to now is    34537.8 secs

     End of self-consistent calculation

     Number of k-points >= 100: set verbosity='high' to print the bands.

     the Fermi energy is    14.9184 ev

!    total energy              =    -351.22757871 Ry
     Harris-Foulkes estimate   =    -351.22757871 Ry
     estimated scf accuracy    <          2.3E-14 Ry

     The total energy is the sum of the following terms:

[...]
     c_bands:  1 eigenvalues not converged
     c_bands:  1 eigenvalues not converged
     c_bands:  1 eigenvalues not converged
     c_bands:  1 eigenvalues not converged
     c_bands:  1 eigenvalues not converged
     c_bands:  1 eigenvalues not converged
     c_bands:  2 eigenvalues not converged
     c_bands:  1 eigenvalues not converged
     c_bands:  2 eigenvalues not converged
     c_bands:  1 eigenvalues not converged
     c_bands:  1 eigenvalues not converged
     c_bands:  1 eigenvalues not converged
     c_bands:  1 eigenvalues not converged
     c_bands:  1 eigenvalues not converged
     c_bands:  1 eigenvalues not converged
     c_bands:  1 eigenvalues not converged
     c_bands:  1 eigenvalues not converged
     c_bands:  1 eigenvalues not converged
     c_bands:  1 eigenvalues not converged
     c_bands:  1 eigenvalues not converged
     c_bands:  1 eigenvalues not converged
     c_bands:  1 eigenvalues not converged
     c_bands:  1 eigenvalues not converged
     c_bands:  1 eigenvalues not converged
     c_bands:  1 eigenvalues not converged
     c_bands:  1 eigenvalues not converged
     c_bands:  1 eigenvalues not converged
     c_bands:  1 eigenvalues not converged
     c_bands:  1 eigenvalues not converged
     c_bands:  1 eigenvalues not converged
     c_bands:  1 eigenvalues not converged
     c_bands:  1 eigenvalues not converged
     c_bands:  1 eigenvalues not converged
     c_bands:  1 eigenvalues not converged
     c_bands:  1 eigenvalues not converged
     c_bands:  1 eigenvalues not converged
     c_bands:  1 eigenvalues not converged
     c_bands:  1 eigenvalues not converged
     c_bands:  2 eigenvalues not converged
     c_bands:  2 eigenvalues not converged
     c_bands:  2 eigenvalues not converged
     c_bands:  2 eigenvalues not converged
     c_bands:  1 eigenvalues not converged
     c_bands:  2 eigenvalues not converged
     c_bands:  2 eigenvalues not converged
     c_bands:  1 eigenvalues not converged
     c_bands:  1 eigenvalues not converged
     c_bands:  1 eigenvalues not converged
     c_bands:  2 eigenvalues not converged
     c_bands:  2 eigenvalues not converged
     c_bands:  2 eigenvalues not converged
     c_bands:  2 eigenvalues not converged
     c_bands:  2 eigenvalues not converged
     c_bands:  2 eigenvalues not converged
     c_bands:  1 eigenvalues not converged
     c_bands:  1 eigenvalues not converged
     c_bands:  1 eigenvalues not converged
     c_bands:  1 eigenvalues not converged
     c_bands:  1 eigenvalues not converged
     c_bands:  1 eigenvalues not converged
     c_bands:  1 eigenvalues not converged
     c_bands:  1 eigenvalues not converged
     c_bands:  1 eigenvalues not converged
     c_bands:  1 eigenvalues not converged
     c_bands:  1 eigenvalues not converged
     c_bands:  1 eigenvalues not converged
     c_bands:  1 eigenvalues not converged
     c_bands:  1 eigenvalues not converged
     c_bands:  1 eigenvalues not converged
     c_bands:  1 eigenvalues not converged
     c_bands:  1 eigenvalues not converged
     c_bands:  1 eigenvalues not converged
     c_bands:  1 eigenvalues not converged
     c_bands:  1 eigenvalues not converged
     c_bands:  1 eigenvalues not converged
     c_bands:  1 eigenvalues not converged
     c_bands:  1 eigenvalues not converged
     c_bands:  1 eigenvalues not converged
     c_bands:  1 eigenvalues not converged
     c_bands:  1 eigenvalues not converged
     c_bands:  1 eigenvalues not converged
     c_bands:  1 eigenvalues not converged
     c_bands:  1 eigenvalues not converged
     c_bands:  1 eigenvalues not converged
     c_bands:  1 eigenvalues not converged
     c_bands:  1 eigenvalues not converged
     c_bands:  1 eigenvalues not converged
     c_bands:  1 eigenvalues not converged
     c_bands:  1 eigenvalues not converged
     c_bands:  1 eigenvalues not converged
     c_bands:  1 eigenvalues not converged
     c_bands:  1 eigenvalues not converged
     c_bands:  1 eigenvalues not converged
     c_bands:  1 eigenvalues not converged
     c_bands:  1 eigenvalues not converged
     c_bands:  1 eigenvalues not converged
     c_bands:  1 eigenvalues not converged
     c_bands:  1 eigenvalues not converged
     c_bands:  1 eigenvalues not converged
     c_bands:  1 eigenvalues not converged
     c_bands:  1 eigenvalues not converged
     c_bands:  1 eigenvalues not converged
     c_bands:  2 eigenvalues not converged
     c_bands:  2 eigenvalues not converged
     c_bands:  2 eigenvalues not converged
     c_bands:  1 eigenvalues not converged
     c_bands:  2 eigenvalues not converged
     c_bands:  1 eigenvalues not converged
     c_bands:  1 eigenvalues not converged
     c_bands:  1 eigenvalues not converged
     c_bands:  1 eigenvalues not converged
     c_bands:  2 eigenvalues not converged
     c_bands:  2 eigenvalues not converged
     c_bands:  2 eigenvalues not converged
     c_bands:  2 eigenvalues not converged
     c_bands:  2 eigenvalues not converged
     c_bands:  2 eigenvalues not converged
     c_bands:  1 eigenvalues not converged
     c_bands:  1 eigenvalues not converged
     c_bands:  1 eigenvalues not converged
     c_bands:  1 eigenvalues not converged
     c_bands:  1 eigenvalues not converged
     c_bands:  1 eigenvalues not converged
     c_bands:  1 eigenvalues not converged
     c_bands:  1 eigenvalues not converged
     c_bands:  1 eigenvalues not converged
     c_bands:  1 eigenvalues not converged
     c_bands:  1 eigenvalues not converged
     c_bands:  1 eigenvalues not converged
     c_bands:  1 eigenvalues not converged
     c_bands:  1 eigenvalues not converged
     c_bands:  1 eigenvalues not converged
     c_bands:  1 eigenvalues not converged
     c_bands:  1 eigenvalues not converged
     c_bands:  1 eigenvalues not converged
     c_bands:  1 eigenvalues not converged
     c_bands:  1 eigenvalues not converged
     c_bands:  1 eigenvalues not converged
     c_bands:  1 eigenvalues not converged
     c_bands:  1 eigenvalues not converged
     c_bands:  1 eigenvalues not converged
     c_bands:  1 eigenvalues not converged
     c_bands:  1 eigenvalues not converged
     c_bands:  1 eigenvalues not converged
     c_bands:  1 eigenvalues not converged
     c_bands:  1 eigenvalues not converged
     c_bands:  1 eigenvalues not converged
     c_bands:  1 eigenvalues not converged
     c_bands:  1 eigenvalues not converged
     c_bands:  1 eigenvalues not converged
     c_bands:  1 eigenvalues not converged
     c_bands:  1 eigenvalues not converged
     c_bands:  2 eigenvalues not converged
     c_bands:  2 eigenvalues not converged
     c_bands:  2 eigenvalues not converged
     c_bands:  2 eigenvalues not converged
     c_bands:  2 eigenvalues not converged
     c_bands:  2 eigenvalues not converged
     c_bands:  2 eigenvalues not converged
     c_bands:  2 eigenvalues not converged
     c_bands:  1 eigenvalues not converged
     c_bands:  1 eigenvalues not converged
     c_bands:  1 eigenvalues not converged
     c_bands:  1 eigenvalues not converged
     c_bands:  1 eigenvalues not converged
     c_bands:  1 eigenvalues not converged
     c_bands:  1 eigenvalues not converged
     c_bands:  1 eigenvalues not converged
     c_bands:  1 eigenvalues not converged
     c_bands:  1 eigenvalues not converged
     c_bands:  1 eigenvalues not converged
     c_bands:  1 eigenvalues not converged
     c_bands:  1 eigenvalues not converged
     c_bands:  1 eigenvalues not converged
     c_bands:  1 eigenvalues not converged
     c_bands:  1 eigenvalues not converged
     c_bands:  1 eigenvalues not converged
     c_bands:  1 eigenvalues not converged
     c_bands:  1 eigenvalues not converged
     c_bands:  1 eigenvalues not converged
     c_bands:  1 eigenvalues not converged
     c_bands:  1 eigenvalues not converged
     c_bands:  1 eigenvalues not converged
     c_bands:  1 eigenvalues not converged
     c_bands:  1 eigenvalues not converged
     c_bands:  2 eigenvalues not converged
     c_bands:  1 eigenvalues not converged
     c_bands:  1 eigenvalues not converged
     c_bands:  1 eigenvalues not converged
     c_bands:  1 eigenvalues not converged
     c_bands:  1 eigenvalues not converged
     c_bands:  1 eigenvalues not converged
     c_bands:  1 eigenvalues not converged
     c_bands:  1 eigenvalues not converged
     c_bands:  1 eigenvalues not converged
     c_bands:  1 eigenvalues not converged
     c_bands:  1 eigenvalues not converged
     c_bands:  1 eigenvalues not converged
     c_bands:  1 eigenvalues not converged
     c_bands:  1 eigenvalues not converged
     c_bands:  1 eigenvalues not converged
     c_bands:  1 eigenvalues not converged
     c_bands:  1 eigenvalues not converged
     c_bands:  1 eigenvalues not converged
     c_bands:  1 eigenvalues not converged
     c_bands:  1 eigenvalues not converged
     c_bands:  1 eigenvalues not converged
     c_bands:  1 eigenvalues not converged
     c_bands:  1 eigenvalues not converged
     ethr =  1.00E-06,  avg # of iterations = 14.4

     total cpu time spent up to now is    69965.1 secs

     total energy              =    -338.52977141 Ry
     Harris-Foulkes estimate   =    -353.85275843 Ry
     estimated scf accuracy    <      19.00686161 Ry

     iteration #  2     ecut=    50.00 Ry     beta=0.60
     Davidson diagonalization with overlap
     ethr =  1.00E-02,  avg # of iterations =  6.7

     total cpu time spent up to now is    70335.2 secs

     total energy              =    -346.57786570 Ry
     Harris-Foulkes estimate   =    -379.33761785 Ry
     estimated scf accuracy    <     104.18660540 Ry

     iteration #  3     ecut=    50.00 Ry     beta=0.60
     Davidson diagonalization with overlap
     ethr =  1.00E-02,  avg # of iterations =  4.5

     total cpu time spent up to now is    70615.5 secs

     total energy              =    -350.36325063 Ry
     Harris-Foulkes estimate   =    -352.81749926 Ry
     estimated scf accuracy    <      20.10559102 Ry

     iteration #  4     ecut=    50.00 Ry     beta=0.60
     Davidson diagonalization with overlap
     ethr =  1.00E-02,  avg # of iterations =  2.6

     total cpu time spent up to now is    70790.3 secs

     total energy              =    -351.37638191 Ry
     Harris-Foulkes estimate   =    -351.27381310 Ry
     estimated scf accuracy    <       0.84659047 Ry

     iteration #  5     ecut=    50.00 Ry     beta=0.60
     Davidson diagonalization with overlap
     ethr =  2.29E-03,  avg # of iterations =  2.7

     total cpu time spent up to now is    70972.3 secs

     total energy              =    -350.92902364 Ry
     Harris-Foulkes estimate   =    -351.55325864 Ry
     estimated scf accuracy    <       4.91205882 Ry

     iteration #  6     ecut=    50.00 Ry     beta=0.60
     Davidson diagonalization with overlap
     ethr =  2.29E-03,  avg # of iterations =  3.8

     total cpu time spent up to now is    71167.0 secs

     total energy              =    -351.21164005 Ry
     Harris-Foulkes estimate   =    -351.22326488 Ry
     estimated scf accuracy    <       0.02223123 Ry

     iteration #  7     ecut=    50.00 Ry     beta=0.60
     Davidson diagonalization with overlap
     ethr =  6.01E-05,  avg # of iterations =  6.2

     total cpu time spent up to now is    71467.8 secs

     total energy              =    -351.21817954 Ry
     Harris-Foulkes estimate   =    -351.22994869 Ry
     estimated scf accuracy    <       0.04762584 Ry

     iteration #  8     ecut=    50.00 Ry     beta=0.60
     Davidson diagonalization with overlap
     ethr =  6.01E-05,  avg # of iterations =  4.5

     total cpu time spent up to now is    71695.3 secs

     total energy              =    -351.22172449 Ry
     Harris-Foulkes estimate   =    -351.23283880 Ry
     estimated scf accuracy    <       0.09765170 Ry

     iteration #  9     ecut=    50.00 Ry     beta=0.60
     Davidson diagonalization with overlap
     ethr =  6.01E-05,  avg # of iterations =  3.2

     total cpu time spent up to now is    71873.9 secs

     total energy              =    -351.22679398 Ry
     Harris-Foulkes estimate   =    -351.22714068 Ry
     estimated scf accuracy    <       0.00071747 Ry

     iteration # 10     ecut=    50.00 Ry     beta=0.60
     Davidson diagonalization with overlap
     ethr =  1.94E-06,  avg # of iterations =  5.7

     total cpu time spent up to now is    72158.7 secs

     total energy              =    -351.22717364 Ry
     Harris-Foulkes estimate   =    -351.22747170 Ry
     estimated scf accuracy    <       0.00254075 Ry

     iteration # 11     ecut=    50.00 Ry     beta=0.60
     Davidson diagonalization with overlap
     ethr =  1.94E-06,  avg # of iterations =  2.9

     total cpu time spent up to now is    72332.2 secs

     total energy              =    -351.22731588 Ry
     Harris-Foulkes estimate   =    -351.22731750 Ry
     estimated scf accuracy    <       0.00000466 Ry

     iteration # 12     ecut=    50.00 Ry     beta=0.60
     Davidson diagonalization with overlap
     ethr =  1.26E-08,  avg # of iterations =  5.2

     total cpu time spent up to now is    72615.7 secs

     total energy              =    -351.22733179 Ry
     Harris-Foulkes estimate   =    -351.22733282 Ry
     estimated scf accuracy    <       0.00001980 Ry

     iteration # 13     ecut=    50.00 Ry     beta=0.60
     Davidson diagonalization with overlap
     ethr =  1.26E-08,  avg # of iterations =  1.3

     total cpu time spent up to now is    72774.9 secs

     total energy              =    -351.22733010 Ry
     Harris-Foulkes estimate   =    -351.22733205 Ry
     estimated scf accuracy    <       0.00001958 Ry

     iteration # 14     ecut=    50.00 Ry     beta=0.60
     Davidson diagonalization with overlap
     ethr =  1.26E-08,  avg # of iterations =  3.1

     total cpu time spent up to now is    72961.5 secs

     total energy              =    -351.22733098 Ry
     Harris-Foulkes estimate   =    -351.22733100 Ry
     estimated scf accuracy    <       0.00000021 Ry

     iteration # 15     ecut=    50.00 Ry     beta=0.60
     Davidson diagonalization with overlap
     ethr =  5.66E-10,  avg # of iterations =  4.2

     total cpu time spent up to now is    73173.2 secs

     total energy              =    -351.22733103 Ry
     Harris-Foulkes estimate   =    -351.22733103 Ry
     estimated scf accuracy    <          6.7E-09 Ry

     iteration # 16     ecut=    50.00 Ry     beta=0.60
     Davidson diagonalization with overlap
     ethr =  1.82E-11,  avg # of iterations =  4.6

     total cpu time spent up to now is    73418.1 secs

     total energy              =    -351.22733104 Ry
     Harris-Foulkes estimate   =    -351.22733104 Ry
     estimated scf accuracy    <          2.8E-09 Ry

     iteration # 17     ecut=    50.00 Ry     beta=0.60
     Davidson diagonalization with overlap
     ethr =  7.61E-12,  avg # of iterations =  1.0

     total cpu time spent up to now is    73574.2 secs

     total energy              =    -351.22733104 Ry
     Harris-Foulkes estimate   =    -351.22733104 Ry
     estimated scf accuracy    <          6.3E-10 Ry

     iteration # 18     ecut=    50.00 Ry     beta=0.60
     Davidson diagonalization with overlap
     ethr =  1.69E-12,  avg # of iterations =  3.3

     total cpu time spent up to now is    73763.4 secs

     total energy              =    -351.22733104 Ry
     Harris-Foulkes estimate   =    -351.22733104 Ry
     estimated scf accuracy    <          1.2E-10 Ry

     iteration # 19     ecut=    50.00 Ry     beta=0.60
     Davidson diagonalization with overlap
     ethr =  3.14E-13,  avg # of iterations =  1.9

     total cpu time spent up to now is    73926.4 secs

     total energy              =    -351.22733104 Ry
     Harris-Foulkes estimate   =    -351.22733104 Ry
     estimated scf accuracy    <          6.5E-12 Ry

     iteration # 20     ecut=    50.00 Ry     beta=0.60
     Davidson diagonalization with overlap
     ethr =  1.00E-13,  avg # of iterations =  2.7

     total cpu time spent up to now is    74096.5 secs

     End of self-consistent calculation

     Number of k-points >= 100: set verbosity='high' to print the bands.

     the Fermi energy is    14.9014 ev

!    total energy              =    -351.22733104 Ry
     Harris-Foulkes estimate   =    -351.22733104 Ry
     estimated scf accuracy    <          5.7E-14 Ry

     The total energy is the sum of the following terms:

     one-electron contribution =     -98.66818970 Ry
     hartree contribution      =      63.79696049 Ry
     xc contribution           =     -47.51916430 Ry
     ewald contribution        =    -268.83634556 Ry
     smearing contrib. (-TS)   =      -0.00059198 Ry

     convergence has been achieved in  20 iterations

     Forces acting on atoms (Ry/au):

     atom    1 type  2   force =     0.00000016   -0.00000371   -0.00000303
     atom    2 type  2   force =    -0.00000016    0.00000371    0.00000303
     atom    3 type  1   force =     0.00000000    0.00000000    0.00000000

     Total force =     0.000007     Total SCF correction =     0.000000


     entering subroutine stress ...

          total   stress  (Ry/bohr**3)                   (kbar)     P=   -0.48
  -0.00000403  -0.00000000   0.00000000         -0.59     -0.00      0.00
  -0.00000000  -0.00000289   0.00000036         -0.00     -0.43      0.05
   0.00000000   0.00000036  -0.00000292          0.00      0.05     -0.43


     init_run     :    168.34s CPU    173.00s WALL (       2 calls)
     electrons    :  71651.03s CPU  73242.29s WALL (      20 calls)
     update_pot   :     40.43s CPU     41.79s WALL (      18 calls)
     forces       :    226.98s CPU    230.94s WALL (      20 calls)
     stress       :    418.34s CPU    425.00s WALL (      20 calls)

     Called by init_run:
     wfcinit      :    163.91s CPU    167.45s WALL (       2 calls)
     potinit      :      1.37s CPU      1.42s WALL (       2 calls)

     Called by electrons:
     c_bands      :  58218.85s CPU  59467.34s WALL (     336 calls)
     sum_band     :  13298.73s CPU  13605.13s WALL (     336 calls)
     v_of_rho     :     52.37s CPU     58.01s WALL (     350 calls)
     newd         :     76.26s CPU     95.96s WALL (     350 calls)
     mix_rho      :      6.71s CPU      9.38s WALL (     336 calls)

     Called by c_bands:
     init_us_2    :    588.26s CPU    600.63s WALL (  982464 calls)
     cegterg      :  57111.23s CPU  58338.66s WALL (  462336 calls)

     Called by sum_band:
     sum_band:bec :     26.04s CPU     26.69s WALL (  462336 calls)
     addusdens    :     79.86s CPU    123.56s WALL (     336 calls)

     Called by *egterg:
     h_psi        :  46747.87s CPU  47838.57s WALL ( 1925089 calls)
     s_psi        :   1647.04s CPU   1664.57s WALL ( 1925089 calls)
     g_psi        :     84.31s CPU     85.28s WALL ( 1460001 calls)
     cdiaghg      :   2449.18s CPU   2485.25s WALL ( 1889313 calls)

     Called by h_psi:
     h_psi:pot    :  46521.92s CPU  47607.89s WALL ( 1925089 calls)
     h_psi:calbec :   2697.73s CPU   2760.91s WALL ( 1925089 calls)
     vloc_psi     :  42155.59s CPU  43150.02s WALL ( 1925089 calls)
     add_vuspsi   :   1657.86s CPU   1687.22s WALL ( 1925089 calls)

     General routines
     calbec       :   3801.60s CPU   3887.65s WALL ( 2525025 calls)
     fft          :     37.38s CPU     53.22s WALL (    6062 calls)
     ffts         :      0.44s CPU      0.50s WALL (     686 calls)
     fftw         :  29041.07s CPU  29652.34s WALL (66169122 calls)
     interpolate  :      6.68s CPU      7.07s WALL (     686 calls)

     Parallel routines
     fft_scatter  :   5127.25s CPU   5275.80s WALL (66175870 calls)

     PWSCF        :    20h 8m CPU       20h35m WALL


   This run was terminated on:   9:30:54  29Apr2018            

=------------------------------------------------------------------------------=
   JOB DONE.
=------------------------------------------------------------------------------=
