
     Program PWSCF v.6.0 (svn rev. 13079) starts on  7May2018 at 15:26:52 

     This program is part of the open-source Quantum ESPRESSO suite
     for quantum simulation of materials; please cite
         "P. Giannozzi et al., J. Phys.:Condens. Matter 21 395502 (2009);
          URL http://www.quantum-espresso.org", 
     in publications or presentations arising from this work. More details at
     http://www.quantum-espresso.org/quote

     Parallel version (MPI), running on     4 processors
     R & G space division:  proc/nbgrp/npool/nimage =       4
     Waiting for input...
     Reading input from standard input

     Current dimensions of program PWSCF are:
     Max number of different atomic species (ntypx) = 10
     Max number of k-points (npk) =  40000
     Max angular momentum in pseudopotentials (lmaxx) =  3

     Subspace diagonalization in iterative solution of the eigenvalue problem:
     a serial algorithm will be used

     warning: symmetry operation #  2 not compatible with FFT grid. 
  -1   0   0
  -1   0   1
  -1   1   0
     warning: symmetry operation #  3 not compatible with FFT grid. 
   0   1  -1
   1   0  -1
   0   0  -1
     warning: symmetry operation #  4 not compatible with FFT grid. 
   0  -1   1
   0  -1   0
   1  -1   0
     warning: symmetry operation #  6 not compatible with FFT grid. 
   1   0   0
   1   0  -1
   1  -1   0
     warning: symmetry operation #  7 not compatible with FFT grid. 
   0  -1   1
  -1   0   1
   0   0   1
     warning: symmetry operation #  8 not compatible with FFT grid. 
   0   1  -1
   0   1   0
  -1   1   0

     Parallelization info
     --------------------
     sticks:   dense  smooth     PW     G-vecs:    dense   smooth      PW
     Min         821     327    111                20819     5240    1022
     Max         822     328    112                20820     5241    1023
     Sum        3287    1309    445                83279    20961    4089



     bravais-lattice index     =            0
     lattice parameter (alat)  =       1.8897  a.u.
     unit-cell volume          =     440.0051 (a.u.)^3
     number of atoms/cell      =            3
     number of atomic types    =            2
     number of electrons       =        38.00
     number of Kohn-Sham states=           23
     kinetic-energy cutoff     =      50.0000  Ry
     charge density cutoff     =     500.0000  Ry
     convergence threshold     =      1.0E-10
     mixing beta               =       0.6000
     number of iterations used =            8  plain     mixing
     Exchange-correlation      = SLA  PW   PBE  PBE ( 1  4  3  4 0 0)
     nstep                     =           50


     celldm(1)=   1.889726  celldm(2)=   0.000000  celldm(3)=   0.000000
     celldm(4)=   0.000000  celldm(5)=   0.000000  celldm(6)=   0.000000

     crystal axes: (cart. coord. in units of alat)
               a(1) = (   0.000000   7.032126   3.516063 )  
               a(2) = (   1.758031   5.274095   5.274095 )  
               a(3) = (   1.758031   1.758031  -1.758031 )  

     reciprocal axes: (cart. coord. in units 2 pi/alat)
               b(1) = ( -0.284409  0.189606 -0.094803 )  
               b(2) = (  0.284409 -0.094803  0.189606 )  
               b(3) = (  0.284409  0.094803 -0.189606 )  


     PseudoPot. # 1 for Nb read from file:
     ./Nb.pbe-nsp-van.UPF
     MD5 check sum: 0a22fc7fb0ba19a08ca5db297a5d2854
     Pseudo is Ultrasoft + core correction, Zval = 13.0
     Generated by new atomic code, or converted to UPF format
     Using radial grid of  887 points,  6 beta functions with: 
                l(1) =   0
                l(2) =   0
                l(3) =   1
                l(4) =   1
                l(5) =   2
                l(6) =   2
     Q(r) pseudized with  6 coefficients,  rinner =    1.000   1.000   1.000
                                                       1.000   1.000

     PseudoPot. # 2 for Ti read from file:
     ./Ti.pbe-sp-van_ak.UPF
     MD5 check sum: f98fea3e8887528921fefa5636a534ca
     Pseudo is Ultrasoft, Zval = 12.0
     Generated by new atomic code, or converted to UPF format
     Using radial grid of  851 points,  6 beta functions with: 
                l(1) =   0
                l(2) =   0
                l(3) =   1
                l(4) =   1
                l(5) =   2
                l(6) =   2
     Q(r) pseudized with  8 coefficients,  rinner =    1.000   1.000   1.000
                                                       1.000   1.000

     atomic species   valence    mass     pseudopotential
        Nb            13.00    92.90638     Nb( 1.00)
        Ti            12.00    47.86700     Ti( 1.00)

      2 Sym. Ops., with inversion, found ( 1 have fractional translation)



   Cartesian axes

     site n.     atom                  positions (alat units)
         1           Ti  tau(   1) = (   1.7580316   8.7901582   5.2740949  )
         2           Nb  tau(   2) = (   3.5160633  14.0642531   7.0321265  )
         3           Nb  tau(   3) = (   1.7580316   5.2740949   1.7580316  )

     number of k points=  1376  Marzari-Vanderbilt smearing, width (Ry)=  0.0200

     Number of k-points >= 100: set verbosity='high' to print them.

     Dense  grid:    83279 G-vectors     FFT dimensions: ( 108, 108,  45)

     Smooth grid:    20961 G-vectors     FFT dimensions: (  72,  72,  25)

     Estimated max dynamical RAM per process >     337.83Mb

     Estimated total allocated dynamical RAM >    1351.31Mb

     Initial potential from superposition of free atoms

     starting charge   36.99449, renormalised to   38.00000
     Starting wfc are   36 randomized atomic wfcs

     total cpu time spent up to now is       66.6 secs

     per-process dynamical memory:   424.2 Mb

     Self-consistent Calculation

     iteration #  1     ecut=    50.00 Ry     beta=0.60
     Davidson diagonalization with overlap
     ethr =  1.00E-02,  avg # of iterations =  3.7

     total cpu time spent up to now is      219.7 secs

     total energy              =    -308.43125511 Ry
     Harris-Foulkes estimate   =    -356.76047553 Ry
     estimated scf accuracy    <      59.40276077 Ry

     iteration #  2     ecut=    50.00 Ry     beta=0.60
     Davidson diagonalization with overlap
     ethr =  1.00E-02,  avg # of iterations =  8.8

     total cpu time spent up to now is      535.2 secs

     total energy              =    -344.20461402 Ry
     Harris-Foulkes estimate   =    -443.67832396 Ry
     estimated scf accuracy    <     311.89554462 Ry

     iteration #  3     ecut=    50.00 Ry     beta=0.60
     Davidson diagonalization with overlap
     ethr =  1.00E-02,  avg # of iterations =  7.7

     total cpu time spent up to now is      815.6 secs

     total energy              =    -354.97248474 Ry
     Harris-Foulkes estimate   =    -359.06445649 Ry
     estimated scf accuracy    <      23.56923032 Ry

     iteration #  4     ecut=    50.00 Ry     beta=0.60
     Davidson diagonalization with overlap
     ethr =  1.00E-02,  avg # of iterations =  2.1

     total cpu time spent up to now is      938.5 secs

     total energy              =    -353.89394543 Ry
     Harris-Foulkes estimate   =    -355.26886135 Ry
     estimated scf accuracy    <      13.84928288 Ry

     iteration #  5     ecut=    50.00 Ry     beta=0.60
     Davidson diagonalization with overlap
     ethr =  1.00E-02,  avg # of iterations =  1.1

     total cpu time spent up to now is     1052.9 secs

     total energy              =    -352.42644633 Ry
     Harris-Foulkes estimate   =    -353.96517762 Ry
     estimated scf accuracy    <      10.17355669 Ry

     iteration #  6     ecut=    50.00 Ry     beta=0.60
     Davidson diagonalization with overlap
     ethr =  1.00E-02,  avg # of iterations =  3.3

     total cpu time spent up to now is     1182.1 secs

     total energy              =    -352.68320801 Ry
     Harris-Foulkes estimate   =    -352.73230847 Ry
     estimated scf accuracy    <       2.99964922 Ry

     iteration #  7     ecut=    50.00 Ry     beta=0.60
     Davidson diagonalization with overlap
     ethr =  7.89E-03,  avg # of iterations =  1.1

     total cpu time spent up to now is     1297.2 secs

     total energy              =    -352.53358516 Ry
     Harris-Foulkes estimate   =    -352.70997860 Ry
     estimated scf accuracy    <       2.47423177 Ry

     iteration #  8     ecut=    50.00 Ry     beta=0.60
     Davidson diagonalization with overlap
     ethr =  6.51E-03,  avg # of iterations =  1.3

     total cpu time spent up to now is     1412.2 secs

     total energy              =    -352.44843043 Ry
     Harris-Foulkes estimate   =    -352.56465223 Ry
     estimated scf accuracy    <       1.49753040 Ry

     iteration #  9     ecut=    50.00 Ry     beta=0.60
     Davidson diagonalization with overlap
     ethr =  3.94E-03,  avg # of iterations =  1.5

     total cpu time spent up to now is     1529.2 secs

     total energy              =    -352.15817667 Ry
     Harris-Foulkes estimate   =    -352.47268784 Ry
     estimated scf accuracy    <       1.08276796 Ry

     iteration # 10     ecut=    50.00 Ry     beta=0.60
     Davidson diagonalization with overlap
     ethr =  2.85E-03,  avg # of iterations =  4.8

     total cpu time spent up to now is     1710.0 secs

     total energy              =    -353.24641546 Ry
     Harris-Foulkes estimate   =    -352.80245429 Ry
     estimated scf accuracy    <      11.27996668 Ry

     iteration # 11     ecut=    50.00 Ry     beta=0.60
     Davidson diagonalization with overlap
     ethr =  2.85E-03,  avg # of iterations =  1.0

     total cpu time spent up to now is     1823.9 secs

     total energy              =    -353.31950128 Ry
     Harris-Foulkes estimate   =    -353.38460246 Ry
     estimated scf accuracy    <      27.97108267 Ry

     iteration # 12     ecut=    50.00 Ry     beta=0.60
     Davidson diagonalization with overlap
     ethr =  2.85E-03,  avg # of iterations =  1.0

     total cpu time spent up to now is     1937.6 secs

     total energy              =    -353.34615048 Ry
     Harris-Foulkes estimate   =    -353.32973438 Ry
     estimated scf accuracy    <      27.12020789 Ry

     iteration # 13     ecut=    50.00 Ry     beta=0.60
     Davidson diagonalization with overlap
     ethr =  2.85E-03,  avg # of iterations =  1.0

     total cpu time spent up to now is     2051.4 secs

     total energy              =    -353.19877152 Ry
     Harris-Foulkes estimate   =    -353.35291635 Ry
     estimated scf accuracy    <      28.61732136 Ry

     iteration # 14     ecut=    50.00 Ry     beta=0.60
     Davidson diagonalization with overlap
     ethr =  2.85E-03,  avg # of iterations =  1.0

     total cpu time spent up to now is     2165.2 secs

     total energy              =    -352.35912862 Ry
     Harris-Foulkes estimate   =    -353.20591443 Ry
     estimated scf accuracy    <      25.33740637 Ry

     iteration # 15     ecut=    50.00 Ry     beta=0.60
     Davidson diagonalization with overlap
     ethr =  2.85E-03,  avg # of iterations =  1.1

     total cpu time spent up to now is     2279.2 secs

     total energy              =    -352.42034196 Ry
     Harris-Foulkes estimate   =    -352.58087019 Ry
     estimated scf accuracy    <       5.62815492 Ry

     iteration # 16     ecut=    50.00 Ry     beta=0.60
     Davidson diagonalization with overlap
     ethr =  2.85E-03,  avg # of iterations =  2.7

     total cpu time spent up to now is     2401.5 secs

     total energy              =    -352.39651378 Ry
     Harris-Foulkes estimate   =    -352.48267480 Ry
     estimated scf accuracy    <       1.63531401 Ry

     iteration # 17     ecut=    50.00 Ry     beta=0.60
     Davidson diagonalization with overlap
     ethr =  2.85E-03,  avg # of iterations =  1.7

     total cpu time spent up to now is     2518.6 secs

     total energy              =    -352.43526899 Ry
     Harris-Foulkes estimate   =    -352.43699490 Ry
     estimated scf accuracy    <       0.12655601 Ry

     iteration # 18     ecut=    50.00 Ry     beta=0.60
     Davidson diagonalization with overlap
     ethr =  3.33E-04,  avg # of iterations =  5.3

     total cpu time spent up to now is     2673.9 secs

     total energy              =    -352.45200803 Ry
     Harris-Foulkes estimate   =    -352.45247799 Ry
     estimated scf accuracy    <       0.03342404 Ry

     iteration # 19     ecut=    50.00 Ry     beta=0.60
     Davidson diagonalization with overlap
     ethr =  8.80E-05,  avg # of iterations =  2.2

     total cpu time spent up to now is     2793.9 secs

     total energy              =    -352.44856878 Ry
     Harris-Foulkes estimate   =    -352.45223554 Ry
     estimated scf accuracy    <       0.03448165 Ry

     iteration # 20     ecut=    50.00 Ry     beta=0.60
     Davidson diagonalization with overlap
     ethr =  8.80E-05,  avg # of iterations =  1.2

     total cpu time spent up to now is     2909.0 secs

     total energy              =    -352.44750144 Ry
     Harris-Foulkes estimate   =    -352.44965395 Ry
     estimated scf accuracy    <       0.03001561 Ry

     iteration # 21     ecut=    50.00 Ry     beta=0.60
     Davidson diagonalization with overlap
     ethr =  7.90E-05,  avg # of iterations =  3.1

     total cpu time spent up to now is     3039.9 secs

     total energy              =    -352.44923661 Ry
     Harris-Foulkes estimate   =    -352.45051619 Ry
     estimated scf accuracy    <       0.00885586 Ry

     iteration # 22     ecut=    50.00 Ry     beta=0.60
     Davidson diagonalization with overlap
     ethr =  2.33E-05,  avg # of iterations =  3.1

     total cpu time spent up to now is     3166.8 secs

     total energy              =    -352.44389798 Ry
     Harris-Foulkes estimate   =    -352.45052489 Ry
     estimated scf accuracy    <       0.03110761 Ry

     iteration # 23     ecut=    50.00 Ry     beta=0.60
     Davidson diagonalization with overlap
     ethr =  2.33E-05,  avg # of iterations =  4.8

     total cpu time spent up to now is     3348.6 secs

     total energy              =    -352.44362224 Ry
     Harris-Foulkes estimate   =    -352.45245026 Ry
     estimated scf accuracy    <       0.02953419 Ry

     iteration # 24     ecut=    50.00 Ry     beta=0.60
     Davidson diagonalization with overlap
     ethr =  2.33E-05,  avg # of iterations =  3.3

     total cpu time spent up to now is     3511.2 secs

     total energy              =    -352.44821313 Ry
     Harris-Foulkes estimate   =    -352.44889516 Ry
     estimated scf accuracy    <       0.00730466 Ry

     iteration # 25     ecut=    50.00 Ry     beta=0.60
     Davidson diagonalization with overlap
     ethr =  1.92E-05,  avg # of iterations =  1.0

     total cpu time spent up to now is     3625.1 secs

     total energy              =    -352.44820352 Ry
     Harris-Foulkes estimate   =    -352.44837691 Ry
     estimated scf accuracy    <       0.00432345 Ry

     iteration # 26     ecut=    50.00 Ry     beta=0.60
     Davidson diagonalization with overlap
     ethr =  1.14E-05,  avg # of iterations =  2.0

     total cpu time spent up to now is     3745.9 secs

     total energy              =    -352.44805526 Ry
     Harris-Foulkes estimate   =    -352.44839700 Ry
     estimated scf accuracy    <       0.00273686 Ry

     iteration # 27     ecut=    50.00 Ry     beta=0.60
     Davidson diagonalization with overlap
     ethr =  7.20E-06,  avg # of iterations =  1.1

     total cpu time spent up to now is     3859.9 secs

     total energy              =    -352.44813700 Ry
     Harris-Foulkes estimate   =    -352.44816605 Ry
     estimated scf accuracy    <       0.00014842 Ry

     iteration # 28     ecut=    50.00 Ry     beta=0.60
     Davidson diagonalization with overlap
     ethr =  3.91E-07,  avg # of iterations =  5.6

     total cpu time spent up to now is     4028.5 secs

     total energy              =    -352.44818344 Ry
     Harris-Foulkes estimate   =    -352.44819254 Ry
     estimated scf accuracy    <       0.00008784 Ry

     iteration # 29     ecut=    50.00 Ry     beta=0.60
     Davidson diagonalization with overlap
     ethr =  2.31E-07,  avg # of iterations =  1.1

     total cpu time spent up to now is     4142.5 secs

     total energy              =    -352.44818595 Ry
     Harris-Foulkes estimate   =    -352.44818671 Ry
     estimated scf accuracy    <       0.00000518 Ry

     iteration # 30     ecut=    50.00 Ry     beta=0.60
     Davidson diagonalization with overlap
     ethr =  1.36E-08,  avg # of iterations =  4.8

     total cpu time spent up to now is     4306.3 secs

     total energy              =    -352.44818772 Ry
     Harris-Foulkes estimate   =    -352.44818863 Ry
     estimated scf accuracy    <       0.00001336 Ry

     iteration # 31     ecut=    50.00 Ry     beta=0.60
     Davidson diagonalization with overlap
     ethr =  1.36E-08,  avg # of iterations =  1.0

     total cpu time spent up to now is     4419.8 secs

     total energy              =    -352.44818753 Ry
     Harris-Foulkes estimate   =    -352.44818790 Ry
     estimated scf accuracy    <       0.00000379 Ry

     iteration # 32     ecut=    50.00 Ry     beta=0.60
     Davidson diagonalization with overlap
     ethr =  9.97E-09,  avg # of iterations =  3.2

     total cpu time spent up to now is     4548.0 secs

     total energy              =    -352.44818782 Ry
     Harris-Foulkes estimate   =    -352.44818782 Ry
     estimated scf accuracy    <       0.00000002 Ry

     iteration # 33     ecut=    50.00 Ry     beta=0.60
     Davidson diagonalization with overlap
     ethr =  4.54E-11,  avg # of iterations =  5.6

     total cpu time spent up to now is     4728.5 secs

     total energy              =    -352.44818785 Ry
     Harris-Foulkes estimate   =    -352.44818785 Ry
     estimated scf accuracy    <       0.00000002 Ry

     iteration # 34     ecut=    50.00 Ry     beta=0.60
     Davidson diagonalization with overlap
     ethr =  4.54E-11,  avg # of iterations =  1.3

     total cpu time spent up to now is     4843.2 secs

     total energy              =    -352.44818785 Ry
     Harris-Foulkes estimate   =    -352.44818785 Ry
     estimated scf accuracy    <          5.7E-10 Ry

     iteration # 35     ecut=    50.00 Ry     beta=0.60
     Davidson diagonalization with overlap
     ethr =  1.49E-12,  avg # of iterations =  4.5

     total cpu time spent up to now is     5002.0 secs

     End of self-consistent calculation

     Number of k-points >= 100: set verbosity='high' to print the bands.

     the Fermi energy is    12.9120 ev

!    total energy              =    -352.44818785 Ry
     Harris-Foulkes estimate   =    -352.44818785 Ry
     estimated scf accuracy    <          3.7E-11 Ry

     The total energy is the sum of the following terms:

     one-electron contribution =    -100.04025315 Ry
     hartree contribution      =      62.14208135 Ry
     xc contribution           =     -50.87189465 Ry
     ewald contribution        =    -263.67847506 Ry
     smearing contrib. (-TS)   =       0.00035367 Ry

     convergence has been achieved in  35 iterations

     Forces acting on atoms (Ry/au):

     atom    1 type  2   force =     0.00000000    0.00000000    0.00000000
     atom    2 type  1   force =     0.00000003   -0.00745524   -0.00745522
     atom    3 type  1   force =    -0.00000003    0.00745524    0.00745522

     Total force =     0.014910     Total SCF correction =     0.000029


     entering subroutine stress ...

          total   stress  (Ry/bohr**3)                   (kbar)     P= -207.58
  -0.00137035   0.00000000  -0.00000000       -201.59      0.00     -0.00
   0.00000000  -0.00143152   0.00004261          0.00   -210.58      6.27
  -0.00000000   0.00004261  -0.00143152         -0.00      6.27   -210.58


     BFGS Geometry Optimization

     number of scf cycles    =   1
     number of bfgs steps    =   0

     enthalpy new            =    -352.4481878473 Ry

     new trust radius        =       0.1502060926 bohr
     new conv_thr            =            1.0E-10 Ry

     new unit-cell volume =    395.06006 a.u.^3 (    58.54186 Ang^3 )

CELL_PARAMETERS (alat=  1.88972599)
   0.000000002   6.784206494   3.397721689
   1.697803592   5.090964095   5.090964085
   1.697803671   1.693242427  -1.693242450

ATOMIC_POSITIONS (angstrom)
Ti       1.697803620   8.481194535   5.094709699
Nb       3.395607281  13.564604860   6.791635179
Nb       1.697803630   5.091026637   1.704541770


     NEW-OLD atomic charge density approx. for the potential
     extrapolated charge   33.79123, renormalised to   38.00000

     total cpu time spent up to now is     5026.8 secs

     per-process dynamical memory:   438.7 Mb

     Self-consistent Calculation

     iteration #  1     ecut=    50.00 Ry     beta=0.60
     Davidson diagonalization with overlap
     c_bands:  1 eigenvalues not converged
     c_bands:  1 eigenvalues not converged
     c_bands:  1 eigenvalues not converged
     c_bands:  1 eigenvalues not converged
     c_bands:  1 eigenvalues not converged
     c_bands:  1 eigenvalues not converged
     c_bands:  1 eigenvalues not converged
     c_bands:  1 eigenvalues not converged
     c_bands:  1 eigenvalues not converged
     c_bands:  1 eigenvalues not converged
     c_bands:  1 eigenvalues not converged
     c_bands:  1 eigenvalues not converged
     c_bands:  1 eigenvalues not converged
     c_bands:  1 eigenvalues not converged
     c_bands:  1 eigenvalues not converged
     c_bands:  1 eigenvalues not converged
     c_bands:  1 eigenvalues not converged
     c_bands:  1 eigenvalues not converged
     c_bands:  1 eigenvalues not converged
     c_bands:  1 eigenvalues not converged
     c_bands:  1 eigenvalues not converged
     c_bands:  1 eigenvalues not converged
     c_bands:  1 eigenvalues not converged
     c_bands:  1 eigenvalues not converged
     c_bands:  1 eigenvalues not converged
     c_bands:  1 eigenvalues not converged
     c_bands:  1 eigenvalues not converged
     c_bands:  1 eigenvalues not converged
     c_bands:  1 eigenvalues not converged
     c_bands:  1 eigenvalues not converged
     c_bands:  1 eigenvalues not converged
     c_bands:  1 eigenvalues not converged
     c_bands:  1 eigenvalues not converged
     c_bands:  1 eigenvalues not converged
     c_bands:  1 eigenvalues not converged
     c_bands:  1 eigenvalues not converged
     c_bands:  1 eigenvalues not converged
     c_bands:  1 eigenvalues not converged
     c_bands:  1 eigenvalues not converged
     c_bands:  1 eigenvalues not converged
     c_bands:  1 eigenvalues not converged
     c_bands:  1 eigenvalues not converged
     c_bands:  1 eigenvalues not converged
     c_bands:  1 eigenvalues not converged
     c_bands:  1 eigenvalues not converged
     c_bands:  1 eigenvalues not converged
     c_bands:  1 eigenvalues not converged
     c_bands:  1 eigenvalues not converged
     c_bands:  1 eigenvalues not converged
     c_bands:  1 eigenvalues not converged
     c_bands:  1 eigenvalues not converged
     c_bands:  1 eigenvalues not converged
     c_bands:  1 eigenvalues not converged
     c_bands:  1 eigenvalues not converged
     c_bands:  1 eigenvalues not converged
     c_bands:  1 eigenvalues not converged
     c_bands:  1 eigenvalues not converged
     c_bands:  1 eigenvalues not converged
     c_bands:  1 eigenvalues not converged
     c_bands:  1 eigenvalues not converged
     c_bands:  1 eigenvalues not converged
     c_bands:  1 eigenvalues not converged
     c_bands:  1 eigenvalues not converged
     c_bands:  1 eigenvalues not converged
     c_bands:  1 eigenvalues not converged
     c_bands:  1 eigenvalues not converged
     c_bands:  1 eigenvalues not converged
     c_bands:  1 eigenvalues not converged
     c_bands:  1 eigenvalues not converged
     c_bands:  1 eigenvalues not converged
     c_bands:  1 eigenvalues not converged
     c_bands:  1 eigenvalues not converged
     c_bands:  1 eigenvalues not converged
     c_bands:  1 eigenvalues not converged
     c_bands:  1 eigenvalues not converged
     c_bands:  1 eigenvalues not converged
     c_bands:  1 eigenvalues not converged
     c_bands:  1 eigenvalues not converged
     c_bands:  1 eigenvalues not converged
     c_bands:  1 eigenvalues not converged
     c_bands:  1 eigenvalues not converged
     c_bands:  1 eigenvalues not converged
     ethr =  1.00E-06,  avg # of iterations = 14.0

     total cpu time spent up to now is     5456.7 secs

     total energy              =    -342.96119177 Ry
     Harris-Foulkes estimate   =    -359.83758745 Ry
     estimated scf accuracy    <      10.16806910 Ry

     iteration #  2     ecut=    50.00 Ry     beta=0.60
     Davidson diagonalization with overlap
     ethr =  1.00E-02,  avg # of iterations =  6.5

     total cpu time spent up to now is     5692.6 secs

     total energy              =    -339.38051796 Ry
     Harris-Foulkes estimate   =    -368.03986377 Ry
     estimated scf accuracy    <     128.78513981 Ry

     iteration #  3     ecut=    50.00 Ry     beta=0.60
     Davidson diagonalization with overlap
     ethr =  1.00E-02,  avg # of iterations =  4.6

     total cpu time spent up to now is     5881.1 secs

     total energy              =    -352.92096959 Ry
     Harris-Foulkes estimate   =    -354.35479506 Ry
     estimated scf accuracy    <       4.74990206 Ry

     iteration #  4     ecut=    50.00 Ry     beta=0.60
     Davidson diagonalization with overlap
     ethr =  1.00E-02,  avg # of iterations =  2.0

     total cpu time spent up to now is     6006.5 secs

     total energy              =    -352.78540307 Ry
     Harris-Foulkes estimate   =    -353.35996200 Ry
     estimated scf accuracy    <       4.43709992 Ry

     iteration #  5     ecut=    50.00 Ry     beta=0.60
     Davidson diagonalization with overlap
     ethr =  1.00E-02,  avg # of iterations =  1.0

     total cpu time spent up to now is     6122.6 secs

     total energy              =    -352.49758566 Ry
     Harris-Foulkes estimate   =    -352.85902301 Ry
     estimated scf accuracy    <       2.37732430 Ry

     iteration #  6     ecut=    50.00 Ry     beta=0.60
     Davidson diagonalization with overlap
     ethr =  6.26E-03,  avg # of iterations =  1.8

     total cpu time spent up to now is     6240.9 secs

     total energy              =    -352.61263893 Ry
     Harris-Foulkes estimate   =    -352.56972318 Ry
     estimated scf accuracy    <       0.67952805 Ry

     iteration #  7     ecut=    50.00 Ry     beta=0.60
     Davidson diagonalization with overlap
     ethr =  1.79E-03,  avg # of iterations =  1.9

     total cpu time spent up to now is     6359.6 secs

     total energy              =    -352.52802828 Ry
     Harris-Foulkes estimate   =    -352.63427110 Ry
     estimated scf accuracy    <       1.07140905 Ry

     iteration #  8     ecut=    50.00 Ry     beta=0.60
     Davidson diagonalization with overlap
     ethr =  1.79E-03,  avg # of iterations =  1.2

     total cpu time spent up to now is     6476.4 secs

     total energy              =    -352.49703392 Ry
     Harris-Foulkes estimate   =    -352.53986915 Ry
     estimated scf accuracy    <       0.57359265 Ry

     iteration #  9     ecut=    50.00 Ry     beta=0.60
     Davidson diagonalization with overlap
     ethr =  1.51E-03,  avg # of iterations =  2.4

     total cpu time spent up to now is     6599.4 secs

     total energy              =    -352.50816427 Ry
     Harris-Foulkes estimate   =    -352.51305017 Ry
     estimated scf accuracy    <       0.22415628 Ry

     iteration # 10     ecut=    50.00 Ry     beta=0.60
     Davidson diagonalization with overlap
     ethr =  5.90E-04,  avg # of iterations =  3.3

     total cpu time spent up to now is     6727.9 secs

     total energy              =    -352.45362593 Ry
     Harris-Foulkes estimate   =    -352.51487878 Ry
     estimated scf accuracy    <       0.13694754 Ry

     iteration # 11     ecut=    50.00 Ry     beta=0.60
     Davidson diagonalization with overlap
     ethr =  3.60E-04,  avg # of iterations =  5.3

     total cpu time spent up to now is     6920.9 secs

     total energy              =    -352.52571371 Ry
     Harris-Foulkes estimate   =    -352.53808330 Ry
     estimated scf accuracy    <       0.92573301 Ry

     iteration # 12     ecut=    50.00 Ry     beta=0.60
     Davidson diagonalization with overlap
     ethr =  3.60E-04,  avg # of iterations =  1.0

     total cpu time spent up to now is     7036.7 secs

     total energy              =    -352.49944591 Ry
     Harris-Foulkes estimate   =    -352.52662574 Ry
     estimated scf accuracy    <       0.67289222 Ry

     iteration # 13     ecut=    50.00 Ry     beta=0.60
     Davidson diagonalization with overlap
     ethr =  3.60E-04,  avg # of iterations =  1.0

     total cpu time spent up to now is     7151.9 secs

     total energy              =    -352.46468809 Ry
     Harris-Foulkes estimate   =    -352.50454680 Ry
     estimated scf accuracy    <       0.28107578 Ry

     iteration # 14     ecut=    50.00 Ry     beta=0.60
     Davidson diagonalization with overlap
     ethr =  3.60E-04,  avg # of iterations =  5.0

     total cpu time spent up to now is     7310.2 secs

     total energy              =    -352.50410941 Ry
     Harris-Foulkes estimate   =    -352.51064570 Ry
     estimated scf accuracy    <       0.16831946 Ry

     iteration # 15     ecut=    50.00 Ry     beta=0.60
     Davidson diagonalization with overlap
     ethr =  3.60E-04,  avg # of iterations =  1.0

     total cpu time spent up to now is     7425.7 secs

     total energy              =    -352.50405585 Ry
     Harris-Foulkes estimate   =    -352.50484219 Ry
     estimated scf accuracy    <       0.10977650 Ry

     iteration # 16     ecut=    50.00 Ry     beta=0.60
     Davidson diagonalization with overlap
     ethr =  2.89E-04,  avg # of iterations =  1.0

     total cpu time spent up to now is     7540.8 secs

     total energy              =    -352.49640899 Ry
     Harris-Foulkes estimate   =    -352.50426180 Ry
     estimated scf accuracy    <       0.10648747 Ry

     iteration # 17     ecut=    50.00 Ry     beta=0.60
     Davidson diagonalization with overlap
     ethr =  2.80E-04,  avg # of iterations =  1.0

     total cpu time spent up to now is     7656.4 secs

     total energy              =    -352.49737022 Ry
     Harris-Foulkes estimate   =    -352.49842216 Ry
     estimated scf accuracy    <       0.02336676 Ry

     iteration # 18     ecut=    50.00 Ry     beta=0.60
     Davidson diagonalization with overlap
     ethr =  6.15E-05,  avg # of iterations =  4.3

     total cpu time spent up to now is     7800.4 secs

     total energy              =    -352.49934051 Ry
     Harris-Foulkes estimate   =    -352.49939319 Ry
     estimated scf accuracy    <       0.00043793 Ry

     iteration # 19     ecut=    50.00 Ry     beta=0.60
     Davidson diagonalization with overlap
     ethr =  1.15E-06,  avg # of iterations =  6.2

     total cpu time spent up to now is     7975.0 secs

     total energy              =    -352.49948031 Ry
     Harris-Foulkes estimate   =    -352.49948600 Ry
     estimated scf accuracy    <       0.00019409 Ry

     iteration # 20     ecut=    50.00 Ry     beta=0.60
     Davidson diagonalization with overlap
     ethr =  5.11E-07,  avg # of iterations =  1.0

     total cpu time spent up to now is     8090.3 secs

     total energy              =    -352.49948485 Ry
     Harris-Foulkes estimate   =    -352.49948292 Ry
     estimated scf accuracy    <       0.00009302 Ry

     iteration # 21     ecut=    50.00 Ry     beta=0.60
     Davidson diagonalization with overlap
     ethr =  2.45E-07,  avg # of iterations =  1.0

     total cpu time spent up to now is     8205.7 secs

     total energy              =    -352.49948201 Ry
     Harris-Foulkes estimate   =    -352.49948600 Ry
     estimated scf accuracy    <       0.00011575 Ry

     iteration # 22     ecut=    50.00 Ry     beta=0.60
     Davidson diagonalization with overlap
     ethr =  2.45E-07,  avg # of iterations =  1.0

     total cpu time spent up to now is     8321.0 secs

     total energy              =    -352.49948137 Ry
     Harris-Foulkes estimate   =    -352.49948324 Ry
     estimated scf accuracy    <       0.00015425 Ry

     iteration # 23     ecut=    50.00 Ry     beta=0.60
     Davidson diagonalization with overlap
     ethr =  2.45E-07,  avg # of iterations =  1.0

     total cpu time spent up to now is     8436.3 secs

     total energy              =    -352.49947517 Ry
     Harris-Foulkes estimate   =    -352.49948158 Ry
     estimated scf accuracy    <       0.00013691 Ry

     iteration # 24     ecut=    50.00 Ry     beta=0.60
     Davidson diagonalization with overlap
     ethr =  2.45E-07,  avg # of iterations =  1.0

     total cpu time spent up to now is     8551.6 secs

     total energy              =    -352.49947258 Ry
     Harris-Foulkes estimate   =    -352.49947593 Ry
     estimated scf accuracy    <       0.00008376 Ry

     iteration # 25     ecut=    50.00 Ry     beta=0.60
     Davidson diagonalization with overlap
     ethr =  2.20E-07,  avg # of iterations =  1.0

     total cpu time spent up to now is     8666.7 secs

     total energy              =    -352.49947111 Ry
     Harris-Foulkes estimate   =    -352.49947333 Ry
     estimated scf accuracy    <       0.00004273 Ry

     iteration # 26     ecut=    50.00 Ry     beta=0.60
     Davidson diagonalization with overlap
     ethr =  1.12E-07,  avg # of iterations =  1.2

     total cpu time spent up to now is     8783.0 secs

     total energy              =    -352.49946937 Ry
     Harris-Foulkes estimate   =    -352.49947165 Ry
     estimated scf accuracy    <       0.00001650 Ry

     iteration # 27     ecut=    50.00 Ry     beta=0.60
     Davidson diagonalization with overlap
     ethr =  4.34E-08,  avg # of iterations =  3.4

     total cpu time spent up to now is     8918.7 secs

     total energy              =    -352.49947131 Ry
     Harris-Foulkes estimate   =    -352.49947164 Ry
     estimated scf accuracy    <       0.00000280 Ry

     iteration # 28     ecut=    50.00 Ry     beta=0.60
     Davidson diagonalization with overlap
     ethr =  7.36E-09,  avg # of iterations =  2.2

     total cpu time spent up to now is     9040.6 secs

     total energy              =    -352.49947149 Ry
     Harris-Foulkes estimate   =    -352.49947150 Ry
     estimated scf accuracy    <       0.00000001 Ry

     iteration # 29     ecut=    50.00 Ry     beta=0.60
     Davidson diagonalization with overlap
     ethr =  3.49E-11,  avg # of iterations =  5.3

     total cpu time spent up to now is     9231.3 secs

     total energy              =    -352.49947153 Ry
     Harris-Foulkes estimate   =    -352.49947154 Ry
     estimated scf accuracy    <       0.00000018 Ry

     iteration # 30     ecut=    50.00 Ry     beta=0.60
     Davidson diagonalization with overlap
     ethr =  3.49E-11,  avg # of iterations =  3.5

     total cpu time spent up to now is     9362.6 secs

     total energy              =    -352.49947153 Ry
     Harris-Foulkes estimate   =    -352.49947153 Ry
     estimated scf accuracy    <       0.00000004 Ry

     iteration # 31     ecut=    50.00 Ry     beta=0.60
     Davidson diagonalization with overlap
     ethr =  3.49E-11,  avg # of iterations =  3.9

     total cpu time spent up to now is     9502.9 secs

     total energy              =    -352.49947153 Ry
     Harris-Foulkes estimate   =    -352.49947153 Ry
     estimated scf accuracy    <          1.1E-09 Ry

     iteration # 32     ecut=    50.00 Ry     beta=0.60
     Davidson diagonalization with overlap
     ethr =  2.93E-12,  avg # of iterations =  2.6

     total cpu time spent up to now is     9630.8 secs

     total energy              =    -352.49947153 Ry
     Harris-Foulkes estimate   =    -352.49947153 Ry
     estimated scf accuracy    <          1.4E-09 Ry

     iteration # 33     ecut=    50.00 Ry     beta=0.60
     Davidson diagonalization with overlap
     ethr =  2.93E-12,  avg # of iterations =  1.1

     total cpu time spent up to now is     9746.6 secs

     total energy              =    -352.49947153 Ry
     Harris-Foulkes estimate   =    -352.49947153 Ry
     estimated scf accuracy    <          1.1E-10 Ry

     iteration # 34     ecut=    50.00 Ry     beta=0.60
     Davidson diagonalization with overlap
     ethr =  2.90E-13,  avg # of iterations =  3.9

     total cpu time spent up to now is     9888.6 secs

     End of self-consistent calculation

     Number of k-points >= 100: set verbosity='high' to print the bands.

     the Fermi energy is    14.7112 ev

!    total energy              =    -352.49947153 Ry
     Harris-Foulkes estimate   =    -352.49947153 Ry
     estimated scf accuracy    <          5.5E-13 Ry

     The total energy is the sum of the following terms:

     one-electron contribution =     -86.04076141 Ry
     hartree contribution      =      57.96982136 Ry
     xc contribution           =     -51.14802812 Ry
     ewald contribution        =    -273.28083635 Ry
     smearing contrib. (-TS)   =       0.00033299 Ry

     convergence has been achieved in  34 iterations

     Forces acting on atoms (Ry/au):

     atom    1 type  2   force =     0.00000000    0.00000000    0.00000000
     atom    2 type  1   force =    -0.00000001   -0.00248270   -0.00248271
     atom    3 type  1   force =     0.00000001    0.00248270    0.00248271

     Total force =     0.004965     Total SCF correction =     0.000002


     entering subroutine stress ...

          total   stress  (Ry/bohr**3)                   (kbar)     P= -117.68
  -0.00075599   0.00000000  -0.00000000       -111.21      0.00     -0.00
   0.00000000  -0.00082192   0.00003766          0.00   -120.91      5.54
  -0.00000000   0.00003766  -0.00082192         -0.00      5.54   -120.91


     number of scf cycles    =   2
     number of bfgs steps    =   1

     enthalpy old            =    -352.4481878473 Ry
     enthalpy new            =    -352.4994715282 Ry

     CASE: enthalpy_new < enthalpy_old

     new trust radius        =       0.1673024950 bohr
     new conv_thr            =            1.0E-10 Ry

     new unit-cell volume =    348.56884 a.u.^3 (    51.65257 Ang^3 )

CELL_PARAMETERS (alat=  1.88972599)
  -0.000000154   6.505868746   3.268578616
   1.632367521   4.887223545   4.887223876
   1.632368567   1.618645446  -1.618645905

ATOMIC_POSITIONS (angstrom)
Ti       1.632367767   8.134943342   4.897653026
Nb       3.264735936  13.005590820   6.531009671
Nb       1.632368165   4.882941310   1.645650476


     NEW-OLD atomic charge density approx. for the potential
     extrapolated charge   33.06577, renormalised to   38.00000

     total cpu time spent up to now is     9913.7 secs

     per-process dynamical memory:   438.7 Mb

     Self-consistent Calculation

     iteration #  1     ecut=    50.00 Ry     beta=0.60
     Davidson diagonalization with overlap
     c_bands:  1 eigenvalues not converged
     c_bands:  1 eigenvalues not converged
     c_bands:  1 eigenvalues not converged
     c_bands:  1 eigenvalues not converged
     c_bands:  1 eigenvalues not converged
     c_bands:  1 eigenvalues not converged
     c_bands:  1 eigenvalues not converged
     c_bands:  1 eigenvalues not converged
     c_bands:  1 eigenvalues not converged
     c_bands:  1 eigenvalues not converged
     c_bands:  1 eigenvalues not converged
     c_bands:  1 eigenvalues not converged
     c_bands:  1 eigenvalues not converged
     c_bands:  2 eigenvalues not converged
     c_bands:  1 eigenvalues not converged
     c_bands:  1 eigenvalues not converged
     c_bands:  1 eigenvalues not converged
     c_bands:  1 eigenvalues not converged
     c_bands:  1 eigenvalues not converged
     c_bands:  1 eigenvalues not converged
     c_bands:  1 eigenvalues not converged
     c_bands:  1 eigenvalues not converged
     c_bands:  1 eigenvalues not converged
     c_bands:  1 eigenvalues not converged
     c_bands:  1 eigenvalues not converged
     c_bands:  1 eigenvalues not converged
     c_bands:  1 eigenvalues not converged
     c_bands:  1 eigenvalues not converged
     c_bands:  1 eigenvalues not converged
     c_bands:  1 eigenvalues not converged
     c_bands:  1 eigenvalues not converged
     c_bands:  1 eigenvalues not converged
     c_bands:  1 eigenvalues not converged
     c_bands:  1 eigenvalues not converged
     c_bands:  1 eigenvalues not converged
     c_bands:  1 eigenvalues not converged
     c_bands:  1 eigenvalues not converged
     c_bands:  1 eigenvalues not converged
     c_bands:  1 eigenvalues not converged
     c_bands:  1 eigenvalues not converged
     c_bands:  1 eigenvalues not converged
     c_bands:  1 eigenvalues not converged
     c_bands:  1 eigenvalues not converged
     c_bands:  1 eigenvalues not converged
     c_bands:  1 eigenvalues not converged
     c_bands:  1 eigenvalues not converged
     c_bands:  1 eigenvalues not converged
     c_bands:  1 eigenvalues not converged
     c_bands:  1 eigenvalues not converged
     c_bands:  1 eigenvalues not converged
     c_bands:  1 eigenvalues not converged
     c_bands:  1 eigenvalues not converged
     c_bands:  1 eigenvalues not converged
     c_bands:  1 eigenvalues not converged
     c_bands:  1 eigenvalues not converged
     c_bands:  1 eigenvalues not converged
     c_bands:  1 eigenvalues not converged
     c_bands:  1 eigenvalues not converged
     c_bands:  1 eigenvalues not converged
     c_bands:  1 eigenvalues not converged
     c_bands:  1 eigenvalues not converged
     c_bands:  1 eigenvalues not converged
     c_bands:  1 eigenvalues not converged
     c_bands:  2 eigenvalues not converged
     c_bands:  2 eigenvalues not converged
     c_bands:  2 eigenvalues not converged
     c_bands:  1 eigenvalues not converged
     c_bands:  1 eigenvalues not converged
     c_bands:  1 eigenvalues not converged
     c_bands:  1 eigenvalues not converged
     c_bands:  1 eigenvalues not converged
     c_bands:  1 eigenvalues not converged
     c_bands:  1 eigenvalues not converged
     c_bands:  1 eigenvalues not converged
     c_bands:  1 eigenvalues not converged
     c_bands:  1 eigenvalues not converged
     c_bands:  1 eigenvalues not converged
     c_bands:  1 eigenvalues not converged
     c_bands:  1 eigenvalues not converged
     c_bands:  1 eigenvalues not converged
     c_bands:  1 eigenvalues not converged
     c_bands:  1 eigenvalues not converged
     c_bands:  1 eigenvalues not converged
     c_bands:  1 eigenvalues not converged
     c_bands:  1 eigenvalues not converged
     c_bands:  1 eigenvalues not converged
     c_bands:  1 eigenvalues not converged
     c_bands:  1 eigenvalues not converged
     c_bands:  1 eigenvalues not converged
     c_bands:  1 eigenvalues not converged
     c_bands:  1 eigenvalues not converged
     c_bands:  1 eigenvalues not converged
     c_bands:  1 eigenvalues not converged
     c_bands:  1 eigenvalues not converged
     c_bands:  1 eigenvalues not converged
     c_bands:  1 eigenvalues not converged
     c_bands:  1 eigenvalues not converged
     ethr =  1.00E-06,  avg # of iterations = 13.8

     total cpu time spent up to now is    10337.8 secs

     total energy              =    -344.03476984 Ry
     Harris-Foulkes estimate   =    -359.73256503 Ry
     estimated scf accuracy    <       8.75005562 Ry

     iteration #  2     ecut=    50.00 Ry     beta=0.60
     Davidson diagonalization with overlap
     ethr =  1.00E-02,  avg # of iterations =  5.9

     total cpu time spent up to now is    10571.9 secs

     total energy              =    -343.93391233 Ry
     Harris-Foulkes estimate   =    -363.99017714 Ry
     estimated scf accuracy    <      80.84572026 Ry

     iteration #  3     ecut=    50.00 Ry     beta=0.60
     Davidson diagonalization with overlap
     ethr =  1.00E-02,  avg # of iterations =  4.2

     total cpu time spent up to now is    10767.4 secs

     total energy              =    -352.79185379 Ry
     Harris-Foulkes estimate   =    -354.17469766 Ry
     estimated scf accuracy    <       4.34011299 Ry

     iteration #  4     ecut=    50.00 Ry     beta=0.60
     Davidson diagonalization with overlap
     ethr =  1.00E-02,  avg # of iterations =  2.0

     total cpu time spent up to now is    10904.3 secs

     total energy              =    -352.62388100 Ry
     Harris-Foulkes estimate   =    -353.29048157 Ry
     estimated scf accuracy    <       4.12462203 Ry

     iteration #  5     ecut=    50.00 Ry     beta=0.60
     Davidson diagonalization with overlap
     ethr =  1.00E-02,  avg # of iterations =  1.0

     total cpu time spent up to now is    11018.7 secs

     total energy              =    -352.50137509 Ry
     Harris-Foulkes estimate   =    -352.72711510 Ry
     estimated scf accuracy    <       1.55380604 Ry

     iteration #  6     ecut=    50.00 Ry     beta=0.60
     Davidson diagonalization with overlap
     ethr =  4.09E-03,  avg # of iterations =  2.6

     total cpu time spent up to now is    11142.9 secs

     total energy              =    -352.61833729 Ry
     Harris-Foulkes estimate   =    -352.58183070 Ry
     estimated scf accuracy    <       0.28106746 Ry

     iteration #  7     ecut=    50.00 Ry     beta=0.60
     Davidson diagonalization with overlap
     ethr =  7.40E-04,  avg # of iterations =  2.6

     total cpu time spent up to now is    11267.8 secs

     total energy              =    -352.55636230 Ry
     Harris-Foulkes estimate   =    -352.65564308 Ry
     estimated scf accuracy    <       0.90570908 Ry

     iteration #  8     ecut=    50.00 Ry     beta=0.60
     Davidson diagonalization with overlap
     ethr =  7.40E-04,  avg # of iterations =  1.3

     total cpu time spent up to now is    11382.8 secs

     total energy              =    -352.51070728 Ry
     Harris-Foulkes estimate   =    -352.56537705 Ry
     estimated scf accuracy    <       0.46312207 Ry

     iteration #  9     ecut=    50.00 Ry     beta=0.60
     Davidson diagonalization with overlap
     ethr =  7.40E-04,  avg # of iterations =  2.6

     total cpu time spent up to now is    11508.1 secs

     total energy              =    -352.52374094 Ry
     Harris-Foulkes estimate   =    -352.52572210 Ry
     estimated scf accuracy    <       0.12088257 Ry

     iteration # 10     ecut=    50.00 Ry     beta=0.60
     Davidson diagonalization with overlap
     ethr =  3.18E-04,  avg # of iterations =  2.4

     total cpu time spent up to now is    11628.2 secs

     total energy              =    -352.49644486 Ry
     Harris-Foulkes estimate   =    -352.52556654 Ry
     estimated scf accuracy    <       0.08887863 Ry

     iteration # 11     ecut=    50.00 Ry     beta=0.60
     Davidson diagonalization with overlap
     ethr =  2.34E-04,  avg # of iterations =  5.3

     total cpu time spent up to now is    11791.4 secs

     total energy              =    -352.51222500 Ry
     Harris-Foulkes estimate   =    -352.51403669 Ry
     estimated scf accuracy    <       0.03026196 Ry

     iteration # 12     ecut=    50.00 Ry     beta=0.60
     Davidson diagonalization with overlap
     ethr =  7.96E-05,  avg # of iterations =  1.7

     total cpu time spent up to now is    11908.6 secs

     total energy              =    -352.51281893 Ry
     Harris-Foulkes estimate   =    -352.51285092 Ry
     estimated scf accuracy    <       0.00687880 Ry

     iteration # 13     ecut=    50.00 Ry     beta=0.60
     Davidson diagonalization with overlap
     ethr =  1.81E-05,  avg # of iterations =  2.8

     total cpu time spent up to now is    12031.1 secs

     total energy              =    -352.51264122 Ry
     Harris-Foulkes estimate   =    -352.51293412 Ry
     estimated scf accuracy    <       0.00665689 Ry

     iteration # 14     ecut=    50.00 Ry     beta=0.60
     Davidson diagonalization with overlap
     ethr =  1.75E-05,  avg # of iterations =  1.1

     total cpu time spent up to now is    12144.9 secs

     total energy              =    -352.51276720 Ry
     Harris-Foulkes estimate   =    -352.51273884 Ry
     estimated scf accuracy    <       0.00198847 Ry

     iteration # 15     ecut=    50.00 Ry     beta=0.60
     Davidson diagonalization with overlap
     ethr =  5.23E-06,  avg # of iterations =  2.5

     total cpu time spent up to now is    12266.0 secs

     total energy              =    -352.51279165 Ry
     Harris-Foulkes estimate   =    -352.51279594 Ry
     estimated scf accuracy    <       0.00200481 Ry

     iteration # 16     ecut=    50.00 Ry     beta=0.60
     Davidson diagonalization with overlap
     ethr =  5.23E-06,  avg # of iterations =  1.0

     total cpu time spent up to now is    12379.3 secs

     total energy              =    -352.51264878 Ry
     Harris-Foulkes estimate   =    -352.51279938 Ry
     estimated scf accuracy    <       0.00182594 Ry

     iteration # 17     ecut=    50.00 Ry     beta=0.60
     Davidson diagonalization with overlap
     ethr =  4.81E-06,  avg # of iterations =  3.1

     total cpu time spent up to now is    12504.6 secs

     total energy              =    -352.51271352 Ry
     Harris-Foulkes estimate   =    -352.51272803 Ry
     estimated scf accuracy    <       0.00007544 Ry

     iteration # 18     ecut=    50.00 Ry     beta=0.60
     Davidson diagonalization with overlap
     ethr =  1.99E-07,  avg # of iterations =  4.7

     total cpu time spent up to now is    12661.8 secs

     total energy              =    -352.51274873 Ry
     Harris-Foulkes estimate   =    -352.51274673 Ry
     estimated scf accuracy    <       0.00021365 Ry

     iteration # 19     ecut=    50.00 Ry     beta=0.60
     Davidson diagonalization with overlap
     ethr =  1.99E-07,  avg # of iterations =  1.0

     total cpu time spent up to now is    12775.2 secs

     total energy              =    -352.51275094 Ry
     Harris-Foulkes estimate   =    -352.51274913 Ry
     estimated scf accuracy    <       0.00025781 Ry

     iteration # 20     ecut=    50.00 Ry     beta=0.60
     Davidson diagonalization with overlap
     ethr =  1.99E-07,  avg # of iterations =  1.0

     total cpu time spent up to now is    12888.6 secs

     total energy              =    -352.51275042 Ry
     Harris-Foulkes estimate   =    -352.51275111 Ry
     estimated scf accuracy    <       0.00029372 Ry

     iteration # 21     ecut=    50.00 Ry     beta=0.60
     Davidson diagonalization with overlap
     ethr =  1.99E-07,  avg # of iterations =  1.0

     total cpu time spent up to now is    13002.0 secs

     total energy              =    -352.51274645 Ry
     Harris-Foulkes estimate   =    -352.51275048 Ry
     estimated scf accuracy    <       0.00028335 Ry

     iteration # 22     ecut=    50.00 Ry     beta=0.60
     Davidson diagonalization with overlap
     ethr =  1.99E-07,  avg # of iterations =  1.0

     total cpu time spent up to now is    13115.4 secs

     total energy              =    -352.51273943 Ry
     Harris-Foulkes estimate   =    -352.51274664 Ry
     estimated scf accuracy    <       0.00023513 Ry

     iteration # 23     ecut=    50.00 Ry     beta=0.60
     Davidson diagonalization with overlap
     ethr =  1.99E-07,  avg # of iterations =  1.0

     total cpu time spent up to now is    13229.4 secs

     total energy              =    -352.51272220 Ry
     Harris-Foulkes estimate   =    -352.51274026 Ry
     estimated scf accuracy    <       0.00013542 Ry

     iteration # 24     ecut=    50.00 Ry     beta=0.60
     Davidson diagonalization with overlap
     ethr =  1.99E-07,  avg # of iterations =  3.0

     total cpu time spent up to now is    13358.0 secs

     total energy              =    -352.51273291 Ry
     Harris-Foulkes estimate   =    -352.51273457 Ry
     estimated scf accuracy    <       0.00001457 Ry

     iteration # 25     ecut=    50.00 Ry     beta=0.60
     Davidson diagonalization with overlap
     ethr =  3.84E-08,  avg # of iterations =  2.0

     total cpu time spent up to now is    13476.8 secs

     total energy              =    -352.51273360 Ry
     Harris-Foulkes estimate   =    -352.51273374 Ry
     estimated scf accuracy    <       0.00000101 Ry

     iteration # 26     ecut=    50.00 Ry     beta=0.60
     Davidson diagonalization with overlap
     ethr =  2.67E-09,  avg # of iterations =  4.1

     total cpu time spent up to now is    13622.2 secs

     total energy              =    -352.51273387 Ry
     Harris-Foulkes estimate   =    -352.51273393 Ry
     estimated scf accuracy    <       0.00000069 Ry

     iteration # 27     ecut=    50.00 Ry     beta=0.60
     Davidson diagonalization with overlap
     ethr =  1.81E-09,  avg # of iterations =  1.0

     total cpu time spent up to now is    13735.8 secs

     total energy              =    -352.51273385 Ry
     Harris-Foulkes estimate   =    -352.51273388 Ry
     estimated scf accuracy    <       0.00000018 Ry

     iteration # 28     ecut=    50.00 Ry     beta=0.60
     Davidson diagonalization with overlap
     ethr =  4.73E-10,  avg # of iterations =  3.3

     total cpu time spent up to now is    13869.5 secs

     total energy              =    -352.51273388 Ry
     Harris-Foulkes estimate   =    -352.51273388 Ry
     estimated scf accuracy    <       0.00000004 Ry

     iteration # 29     ecut=    50.00 Ry     beta=0.60
     Davidson diagonalization with overlap
     ethr =  9.76E-11,  avg # of iterations =  1.9

     total cpu time spent up to now is    13987.7 secs

     total energy              =    -352.51273388 Ry
     Harris-Foulkes estimate   =    -352.51273388 Ry
     estimated scf accuracy    <          8.8E-09 Ry

     iteration # 30     ecut=    50.00 Ry     beta=0.60
     Davidson diagonalization with overlap
     ethr =  2.32E-11,  avg # of iterations =  3.2

     total cpu time spent up to now is    14116.4 secs

     total energy              =    -352.51273388 Ry
     Harris-Foulkes estimate   =    -352.51273388 Ry
     estimated scf accuracy    <          1.1E-10 Ry

     iteration # 31     ecut=    50.00 Ry     beta=0.60
     Davidson diagonalization with overlap
     ethr =  2.94E-13,  avg # of iterations =  4.8

     total cpu time spent up to now is    14287.5 secs

     End of self-consistent calculation

     Number of k-points >= 100: set verbosity='high' to print the bands.

     the Fermi energy is    17.0476 ev

!    total energy              =    -352.51273388 Ry
     Harris-Foulkes estimate   =    -352.51273388 Ry
     estimated scf accuracy    <          3.9E-11 Ry

     The total energy is the sum of the following terms:

     one-electron contribution =     -69.34933018 Ry
     hartree contribution      =      53.24913334 Ry
     xc contribution           =     -51.51870327 Ry
     ewald contribution        =    -284.89377867 Ry
     smearing contrib. (-TS)   =      -0.00005510 Ry

     convergence has been achieved in  31 iterations

     Forces acting on atoms (Ry/au):

     atom    1 type  2   force =     0.00000000    0.00000000    0.00000000
     atom    2 type  1   force =     0.00000006    0.00672438    0.00672445
     atom    3 type  1   force =    -0.00000006   -0.00672438   -0.00672445

     Total force =     0.013449     Total SCF correction =     0.000021


     entering subroutine stress ...

          total   stress  (Ry/bohr**3)                   (kbar)     P=   50.67
   0.00037298  -0.00000000   0.00000001         54.87     -0.00      0.00
  -0.00000000   0.00033023   0.00002152         -0.00     48.58      3.17
   0.00000001   0.00002152   0.00033023          0.00      3.17     48.58


     number of scf cycles    =   3
     number of bfgs steps    =   2

     enthalpy old            =    -352.4994715282 Ry
     enthalpy new            =    -352.5127338812 Ry

     CASE: enthalpy_new < enthalpy_old

     new trust radius        =       0.0450101634 bohr
     new conv_thr            =            1.0E-10 Ry

     new unit-cell volume =    361.26525 a.u.^3 (    53.53399 Ang^3 )

CELL_PARAMETERS (alat=  1.88972599)
  -0.000000039   6.583725022   3.307680680
   1.652044755   4.945702779   4.945702974
   1.652045043   1.638022314  -1.638022475

ATOMIC_POSITIONS (angstrom)
Ti       1.652044825   8.232292639   4.956248278
Nb       3.304089783  13.163815308   6.611726397
Nb       1.652044909   4.938792284   1.662747683


     NEW-OLD atomic charge density approx. for the potential
     extrapolated charge   39.30015, renormalised to   38.00000

     total cpu time spent up to now is    14312.1 secs

     per-process dynamical memory:   438.7 Mb

     Self-consistent Calculation

     iteration #  1     ecut=    50.00 Ry     beta=0.60
     Davidson diagonalization with overlap
     c_bands:  1 eigenvalues not converged
     ethr =  1.00E-06,  avg # of iterations = 10.8

     total cpu time spent up to now is    14620.2 secs

     total energy              =    -352.34968177 Ry
     Harris-Foulkes estimate   =    -350.73695412 Ry
     estimated scf accuracy    <       0.13092488 Ry

     iteration #  2     ecut=    50.00 Ry     beta=0.60
     Davidson diagonalization with overlap
     ethr =  3.45E-04,  avg # of iterations =  3.7

     total cpu time spent up to now is    14818.6 secs

     total energy              =    -352.45390455 Ry
     Harris-Foulkes estimate   =    -352.61369683 Ry
     estimated scf accuracy    <       0.49841838 Ry

     iteration #  3     ecut=    50.00 Ry     beta=0.60
     Davidson diagonalization with overlap
     ethr =  3.45E-04,  avg # of iterations =  5.0

     total cpu time spent up to now is    14998.7 secs

     total energy              =    -352.43465692 Ry
     Harris-Foulkes estimate   =    -352.65187323 Ry
     estimated scf accuracy    <       3.05297551 Ry

     iteration #  4     ecut=    50.00 Ry     beta=0.60
     Davidson diagonalization with overlap
     ethr =  3.45E-04,  avg # of iterations =  4.6

     total cpu time spent up to now is    15151.9 secs

     total energy              =    -352.52053216 Ry
     Harris-Foulkes estimate   =    -352.52706605 Ry
     estimated scf accuracy    <       0.06250551 Ry

     iteration #  5     ecut=    50.00 Ry     beta=0.60
     Davidson diagonalization with overlap
     ethr =  1.64E-04,  avg # of iterations =  1.4

     total cpu time spent up to now is    15268.4 secs

     total energy              =    -352.51488101 Ry
     Harris-Foulkes estimate   =    -352.52140380 Ry
     estimated scf accuracy    <       0.04133520 Ry

     iteration #  6     ecut=    50.00 Ry     beta=0.60
     Davidson diagonalization with overlap
     ethr =  1.09E-04,  avg # of iterations =  1.3

     total cpu time spent up to now is    15384.5 secs

     total energy              =    -352.51465093 Ry
     Harris-Foulkes estimate   =    -352.51600724 Ry
     estimated scf accuracy    <       0.01414143 Ry

     iteration #  7     ecut=    50.00 Ry     beta=0.60
     Davidson diagonalization with overlap
     ethr =  3.72E-05,  avg # of iterations =  3.4

     total cpu time spent up to now is    15513.0 secs

     total energy              =    -352.51479627 Ry
     Harris-Foulkes estimate   =    -352.51520856 Ry
     estimated scf accuracy    <       0.00568402 Ry

     iteration #  8     ecut=    50.00 Ry     beta=0.60
     Davidson diagonalization with overlap
     ethr =  1.50E-05,  avg # of iterations =  3.5

     total cpu time spent up to now is    15640.6 secs

     total energy              =    -352.51466676 Ry
     Harris-Foulkes estimate   =    -352.51496511 Ry
     estimated scf accuracy    <       0.00271384 Ry

     iteration #  9     ecut=    50.00 Ry     beta=0.60
     Davidson diagonalization with overlap
     ethr =  7.14E-06,  avg # of iterations =  3.9

     total cpu time spent up to now is    15773.8 secs

     total energy              =    -352.51461055 Ry
     Harris-Foulkes estimate   =    -352.51478624 Ry
     estimated scf accuracy    <       0.00091348 Ry

     iteration # 10     ecut=    50.00 Ry     beta=0.60
     Davidson diagonalization with overlap
     ethr =  2.40E-06,  avg # of iterations =  4.5

     total cpu time spent up to now is    15914.3 secs

     total energy              =    -352.51468560 Ry
     Harris-Foulkes estimate   =    -352.51468978 Ry
     estimated scf accuracy    <       0.00004894 Ry

     iteration # 11     ecut=    50.00 Ry     beta=0.60
     Davidson diagonalization with overlap
     ethr =  1.29E-07,  avg # of iterations =  3.9

     total cpu time spent up to now is    16062.7 secs

     total energy              =    -352.51469568 Ry
     Harris-Foulkes estimate   =    -352.51469626 Ry
     estimated scf accuracy    <       0.00000465 Ry

     iteration # 12     ecut=    50.00 Ry     beta=0.60
     Davidson diagonalization with overlap
     ethr =  1.22E-08,  avg # of iterations =  3.2

     total cpu time spent up to now is    16199.2 secs

     total energy              =    -352.51469625 Ry
     Harris-Foulkes estimate   =    -352.51469628 Ry
     estimated scf accuracy    <       0.00000080 Ry

     iteration # 13     ecut=    50.00 Ry     beta=0.60
     Davidson diagonalization with overlap
     ethr =  2.10E-09,  avg # of iterations =  2.7

     total cpu time spent up to now is    16324.7 secs

     total energy              =    -352.51469626 Ry
     Harris-Foulkes estimate   =    -352.51469630 Ry
     estimated scf accuracy    <       0.00000027 Ry

     iteration # 14     ecut=    50.00 Ry     beta=0.60
     Davidson diagonalization with overlap
     ethr =  7.10E-10,  avg # of iterations =  3.4

     total cpu time spent up to now is    16457.0 secs

     total energy              =    -352.51469629 Ry
     Harris-Foulkes estimate   =    -352.51469629 Ry
     estimated scf accuracy    <          5.1E-09 Ry

     iteration # 15     ecut=    50.00 Ry     beta=0.60
     Davidson diagonalization with overlap
     ethr =  1.33E-11,  avg # of iterations =  4.6

     total cpu time spent up to now is    16640.3 secs

     total energy              =    -352.51469629 Ry
     Harris-Foulkes estimate   =    -352.51469630 Ry
     estimated scf accuracy    <          8.0E-09 Ry

     iteration # 16     ecut=    50.00 Ry     beta=0.60
     Davidson diagonalization with overlap
     ethr =  1.33E-11,  avg # of iterations =  1.0

     total cpu time spent up to now is    16754.0 secs

     total energy              =    -352.51469629 Ry
     Harris-Foulkes estimate   =    -352.51469629 Ry
     estimated scf accuracy    <          2.7E-09 Ry

     iteration # 17     ecut=    50.00 Ry     beta=0.60
     Davidson diagonalization with overlap
     ethr =  7.09E-12,  avg # of iterations =  3.4

     total cpu time spent up to now is    16886.7 secs

     total energy              =    -352.51469629 Ry
     Harris-Foulkes estimate   =    -352.51469629 Ry
     estimated scf accuracy    <          4.3E-10 Ry

     iteration # 18     ecut=    50.00 Ry     beta=0.60
     Davidson diagonalization with overlap
     ethr =  1.13E-12,  avg # of iterations =  3.1

     total cpu time spent up to now is    17020.1 secs

     total energy              =    -352.51469629 Ry
     Harris-Foulkes estimate   =    -352.51469629 Ry
     estimated scf accuracy    <          2.1E-10 Ry

     iteration # 19     ecut=    50.00 Ry     beta=0.60
     Davidson diagonalization with overlap
     ethr =  5.63E-13,  avg # of iterations =  1.0

     total cpu time spent up to now is    17134.8 secs

     End of self-consistent calculation

     Number of k-points >= 100: set verbosity='high' to print the bands.

     the Fermi energy is    16.3508 ev

!    total energy              =    -352.51469629 Ry
     Harris-Foulkes estimate   =    -352.51469629 Ry
     estimated scf accuracy    <          9.0E-11 Ry

     The total energy is the sum of the following terms:

     one-electron contribution =     -74.12037568 Ry
     hartree contribution      =      54.56070697 Ry
     xc contribution           =     -51.40662107 Ry
     ewald contribution        =    -281.54848024 Ry
     smearing contrib. (-TS)   =       0.00007372 Ry

     convergence has been achieved in  19 iterations

     Forces acting on atoms (Ry/au):

     atom    1 type  2   force =     0.00000000    0.00000000    0.00000000
     atom    2 type  1   force =    -0.00000001    0.00318645    0.00318648
     atom    3 type  1   force =     0.00000001   -0.00318645   -0.00318648

     Total force =     0.006373     Total SCF correction =     0.000033


     entering subroutine stress ...

          total   stress  (Ry/bohr**3)                   (kbar)     P=   -5.89
  -0.00000844  -0.00000000   0.00000000         -1.24     -0.00      0.00
  -0.00000000  -0.00005582   0.00002826         -0.00     -8.21      4.16
   0.00000000   0.00002826  -0.00005582          0.00      4.16     -8.21


     number of scf cycles    =   4
     number of bfgs steps    =   3

     enthalpy old            =    -352.5127338812 Ry
     enthalpy new            =    -352.5146962948 Ry

     CASE: enthalpy_new < enthalpy_old

     new trust radius        =       0.0064300342 bohr
     new conv_thr            =            1.0E-10 Ry

     new unit-cell volume =    359.98153 a.u.^3 (    53.34376 Ang^3 )

CELL_PARAMETERS (alat=  1.88972599)
  -0.000000008   6.575671471   3.306896633
   1.651310792   4.941283992   4.941284167
   1.651310977   1.634387537  -1.634387658

ATOMIC_POSITIONS (angstrom)
Ti       1.651310848   8.222766154   4.953991314
Nb       3.302621781  13.149146206   6.611596388
Nb       1.651310893   4.930773639   1.661998583


     NEW-OLD atomic charge density approx. for the potential
     extrapolated charge   37.86807, renormalised to   38.00000

     total cpu time spent up to now is    17160.1 secs

     per-process dynamical memory:   438.7 Mb

     Self-consistent Calculation

     iteration #  1     ecut=    50.00 Ry     beta=0.60
     Davidson diagonalization with overlap
     ethr =  1.00E-06,  avg # of iterations =  4.1

     total cpu time spent up to now is    17385.2 secs

     total energy              =    -352.51268848 Ry
     Harris-Foulkes estimate   =    -352.69696566 Ry
     estimated scf accuracy    <       0.00170481 Ry

     iteration #  2     ecut=    50.00 Ry     beta=0.60
     Davidson diagonalization with overlap
     ethr =  4.49E-06,  avg # of iterations =  6.8

     total cpu time spent up to now is    17621.3 secs

     total energy              =    -352.51227075 Ry
     Harris-Foulkes estimate   =    -352.51736112 Ry
     estimated scf accuracy    <       0.03497332 Ry

     iteration #  3     ecut=    50.00 Ry     beta=0.60
     Davidson diagonalization with overlap
     ethr =  4.49E-06,  avg # of iterations =  5.2

     total cpu time spent up to now is    17805.4 secs

     total energy              =    -352.51392619 Ry
     Harris-Foulkes estimate   =    -352.51605923 Ry
     estimated scf accuracy    <       0.01555103 Ry

     iteration #  4     ecut=    50.00 Ry     beta=0.60
     Davidson diagonalization with overlap
     ethr =  4.49E-06,  avg # of iterations =  4.4

     total cpu time spent up to now is    17960.0 secs

     total energy              =    -352.51484361 Ry
     Harris-Foulkes estimate   =    -352.51495043 Ry
     estimated scf accuracy    <       0.00105189 Ry

     iteration #  5     ecut=    50.00 Ry     beta=0.60
     Davidson diagonalization with overlap
     ethr =  2.77E-06,  avg # of iterations =  1.0

     total cpu time spent up to now is    18074.3 secs

     total energy              =    -352.51476392 Ry
     Harris-Foulkes estimate   =    -352.51486054 Ry
     estimated scf accuracy    <       0.00052921 Ry

     iteration #  6     ecut=    50.00 Ry     beta=0.60
     Davidson diagonalization with overlap
     ethr =  1.39E-06,  avg # of iterations =  1.9

     total cpu time spent up to now is    18195.5 secs

     total energy              =    -352.51477261 Ry
     Harris-Foulkes estimate   =    -352.51478850 Ry
     estimated scf accuracy    <       0.00008969 Ry

     iteration #  7     ecut=    50.00 Ry     beta=0.60
     Davidson diagonalization with overlap
     ethr =  2.36E-07,  avg # of iterations =  3.7

     total cpu time spent up to now is    18334.4 secs

     total energy              =    -352.51478514 Ry
     Harris-Foulkes estimate   =    -352.51478555 Ry
     estimated scf accuracy    <       0.00000204 Ry

     iteration #  8     ecut=    50.00 Ry     beta=0.60
     Davidson diagonalization with overlap
     ethr =  5.36E-09,  avg # of iterations =  4.1

     total cpu time spent up to now is    18488.8 secs

     total energy              =    -352.51478511 Ry
     Harris-Foulkes estimate   =    -352.51478586 Ry
     estimated scf accuracy    <       0.00000098 Ry

     iteration #  9     ecut=    50.00 Ry     beta=0.60
     Davidson diagonalization with overlap
     ethr =  2.57E-09,  avg # of iterations =  4.1

     total cpu time spent up to now is    18673.8 secs

     total energy              =    -352.51478548 Ry
     Harris-Foulkes estimate   =    -352.51478580 Ry
     estimated scf accuracy    <       0.00000252 Ry

     iteration # 10     ecut=    50.00 Ry     beta=0.60
     Davidson diagonalization with overlap
     ethr =  2.57E-09,  avg # of iterations =  2.2

     total cpu time spent up to now is    18793.5 secs

     total energy              =    -352.51478545 Ry
     Harris-Foulkes estimate   =    -352.51478554 Ry
     estimated scf accuracy    <       0.00000058 Ry

     iteration # 11     ecut=    50.00 Ry     beta=0.60
     Davidson diagonalization with overlap
     ethr =  1.54E-09,  avg # of iterations =  2.8

     total cpu time spent up to now is    18921.5 secs

     total energy              =    -352.51478551 Ry
     Harris-Foulkes estimate   =    -352.51478551 Ry
     estimated scf accuracy    <          4.8E-09 Ry

     iteration # 12     ecut=    50.00 Ry     beta=0.60
     Davidson diagonalization with overlap
     ethr =  1.27E-11,  avg # of iterations =  5.1

     total cpu time spent up to now is    19106.1 secs

     total energy              =    -352.51478552 Ry
     Harris-Foulkes estimate   =    -352.51478552 Ry
     estimated scf accuracy    <       0.00000005 Ry

     iteration # 13     ecut=    50.00 Ry     beta=0.60
     Davidson diagonalization with overlap
     ethr =  1.27E-11,  avg # of iterations =  1.0

     total cpu time spent up to now is    19219.9 secs

     total energy              =    -352.51478552 Ry
     Harris-Foulkes estimate   =    -352.51478552 Ry
     estimated scf accuracy    <       0.00000003 Ry

     iteration # 14     ecut=    50.00 Ry     beta=0.60
     Davidson diagonalization with overlap
     ethr =  1.27E-11,  avg # of iterations =  3.2

     total cpu time spent up to now is    19351.6 secs

     total energy              =    -352.51478552 Ry
     Harris-Foulkes estimate   =    -352.51478552 Ry
     estimated scf accuracy    <          2.8E-09 Ry

     iteration # 15     ecut=    50.00 Ry     beta=0.60
     Davidson diagonalization with overlap
     ethr =  7.39E-12,  avg # of iterations =  1.0

     total cpu time spent up to now is    19465.4 secs

     total energy              =    -352.51478552 Ry
     Harris-Foulkes estimate   =    -352.51478552 Ry
     estimated scf accuracy    <          1.0E-09 Ry

     iteration # 16     ecut=    50.00 Ry     beta=0.60
     Davidson diagonalization with overlap
     ethr =  2.62E-12,  avg # of iterations =  3.7

     total cpu time spent up to now is    19603.1 secs

     End of self-consistent calculation

     Number of k-points >= 100: set verbosity='high' to print the bands.

     the Fermi energy is    16.4192 ev

!    total energy              =    -352.51478552 Ry
     Harris-Foulkes estimate   =    -352.51478552 Ry
     estimated scf accuracy    <          5.9E-11 Ry

     The total energy is the sum of the following terms:

     one-electron contribution =     -73.61040561 Ry
     hartree contribution      =      54.41116177 Ry
     xc contribution           =     -51.41710397 Ry
     ewald contribution        =    -281.89848396 Ry
     smearing contrib. (-TS)   =       0.00004626 Ry

     convergence has been achieved in  16 iterations

     Forces acting on atoms (Ry/au):

     atom    1 type  2   force =     0.00000000    0.00000000    0.00000000
     atom    2 type  1   force =    -0.00000001    0.00309993    0.00309994
     atom    3 type  1   force =     0.00000001   -0.00309993   -0.00309994

     Total force =     0.006200     Total SCF correction =     0.000029


     entering subroutine stress ...

          total   stress  (Ry/bohr**3)                   (kbar)     P=   -0.90
   0.00002106  -0.00000000   0.00000000          3.10     -0.00      0.00
  -0.00000000  -0.00001970   0.00002768         -0.00     -2.90      4.07
   0.00000000   0.00002768  -0.00001970          0.00      4.07     -2.90


     number of scf cycles    =   5
     number of bfgs steps    =   4

     enthalpy old            =    -352.5146962948 Ry
     enthalpy new            =    -352.5147855168 Ry

     CASE: enthalpy_new < enthalpy_old

     new trust radius        =       0.0070748528 bohr
     new conv_thr            =            1.0E-10 Ry

     new unit-cell volume =    359.11699 a.u.^3 (    53.21565 Ang^3 )

CELL_PARAMETERS (alat=  1.88972599)
   0.000000030   6.570350463   3.310116886
   1.652012051   4.940233634   4.940233769
   1.652012120   1.630116875  -1.630116943

ATOMIC_POSITIONS (angstrom)
Ti       1.652012094   8.217095023   4.956861456
Nb       3.304024213  13.141151376   6.620684173
Nb       1.652012095   4.923155545   1.662921795


     NEW-OLD atomic charge density approx. for the potential
     extrapolated charge   37.91094, renormalised to   38.00000

     total cpu time spent up to now is    19628.7 secs

     per-process dynamical memory:   438.7 Mb

     Self-consistent Calculation

     iteration #  1     ecut=    50.00 Ry     beta=0.60
     Davidson diagonalization with overlap
     ethr =  1.00E-06,  avg # of iterations =  4.1

     total cpu time spent up to now is    19858.1 secs

     total energy              =    -352.51368425 Ry
     Harris-Foulkes estimate   =    -352.63723524 Ry
     estimated scf accuracy    <       0.00105758 Ry

     iteration #  2     ecut=    50.00 Ry     beta=0.60
     Davidson diagonalization with overlap
     c_bands:  1 eigenvalues not converged
     c_bands:  1 eigenvalues not converged
     c_bands:  1 eigenvalues not converged
     c_bands:  1 eigenvalues not converged
     c_bands:  1 eigenvalues not converged
     c_bands:  2 eigenvalues not converged
     c_bands:  1 eigenvalues not converged
     c_bands:  1 eigenvalues not converged
     c_bands:  1 eigenvalues not converged
     c_bands:  1 eigenvalues not converged
     c_bands:  1 eigenvalues not converged
     c_bands:  1 eigenvalues not converged
     c_bands:  1 eigenvalues not converged
     c_bands:  1 eigenvalues not converged
     c_bands:  1 eigenvalues not converged
     c_bands:  1 eigenvalues not converged
     c_bands:  1 eigenvalues not converged
     c_bands:  1 eigenvalues not converged
     c_bands:  1 eigenvalues not converged
     c_bands:  1 eigenvalues not converged
     c_bands:  1 eigenvalues not converged
     c_bands:  2 eigenvalues not converged
     c_bands:  2 eigenvalues not converged
     c_bands:  2 eigenvalues not converged
     ethr =  2.78E-06,  avg # of iterations =  7.7

     total cpu time spent up to now is    20097.9 secs

     total energy              =    -352.51189979 Ry
     Harris-Foulkes estimate   =    -352.51835073 Ry
     estimated scf accuracy    <       0.06405553 Ry

     iteration #  3     ecut=    50.00 Ry     beta=0.60
     Davidson diagonalization with overlap
     ethr =  2.78E-06,  avg # of iterations =  5.5

     total cpu time spent up to now is    20286.6 secs

     total energy              =    -352.51479253 Ry
     Harris-Foulkes estimate   =    -352.51524226 Ry
     estimated scf accuracy    <       0.00162753 Ry

     iteration #  4     ecut=    50.00 Ry     beta=0.60
     Davidson diagonalization with overlap
     ethr =  2.78E-06,  avg # of iterations =  2.0

     total cpu time spent up to now is    20412.2 secs

     total energy              =    -352.51489736 Ry
     Harris-Foulkes estimate   =    -352.51494682 Ry
     estimated scf accuracy    <       0.00043162 Ry

     iteration #  5     ecut=    50.00 Ry     beta=0.60
     Davidson diagonalization with overlap
     ethr =  1.14E-06,  avg # of iterations =  1.0

     total cpu time spent up to now is    20525.8 secs

     total energy              =    -352.51485077 Ry
     Harris-Foulkes estimate   =    -352.51490761 Ry
     estimated scf accuracy    <       0.00021469 Ry

     iteration #  6     ecut=    50.00 Ry     beta=0.60
     Davidson diagonalization with overlap
     ethr =  5.65E-07,  avg # of iterations =  2.9

     total cpu time spent up to now is    20658.6 secs

     total energy              =    -352.51487667 Ry
     Harris-Foulkes estimate   =    -352.51487695 Ry
     estimated scf accuracy    <       0.00000322 Ry

     iteration #  7     ecut=    50.00 Ry     beta=0.60
     Davidson diagonalization with overlap
     ethr =  8.46E-09,  avg # of iterations =  4.2

     total cpu time spent up to now is    20830.2 secs

     total energy              =    -352.51487834 Ry
     Harris-Foulkes estimate   =    -352.51487916 Ry
     estimated scf accuracy    <       0.00000467 Ry

     iteration #  8     ecut=    50.00 Ry     beta=0.60
     Davidson diagonalization with overlap
     ethr =  8.46E-09,  avg # of iterations =  1.3

     total cpu time spent up to now is    20945.3 secs

     total energy              =    -352.51487831 Ry
     Harris-Foulkes estimate   =    -352.51487847 Ry
     estimated scf accuracy    <       0.00000119 Ry

     iteration #  9     ecut=    50.00 Ry     beta=0.60
     Davidson diagonalization with overlap
     ethr =  3.14E-09,  avg # of iterations =  2.8

     total cpu time spent up to now is    21073.6 secs

     total energy              =    -352.51487835 Ry
     Harris-Foulkes estimate   =    -352.51487841 Ry
     estimated scf accuracy    <       0.00000024 Ry

     iteration # 10     ecut=    50.00 Ry     beta=0.60
     Davidson diagonalization with overlap
     ethr =  6.40E-10,  avg # of iterations =  3.9

     total cpu time spent up to now is    21213.2 secs

     total energy              =    -352.51487839 Ry
     Harris-Foulkes estimate   =    -352.51487839 Ry
     estimated scf accuracy    <       0.00000002 Ry

     iteration # 11     ecut=    50.00 Ry     beta=0.60
     Davidson diagonalization with overlap
     ethr =  5.67E-11,  avg # of iterations =  3.4

     total cpu time spent up to now is    21357.7 secs

     total energy              =    -352.51487839 Ry
     Harris-Foulkes estimate   =    -352.51487839 Ry
     estimated scf accuracy    <       0.00000004 Ry

     iteration # 12     ecut=    50.00 Ry     beta=0.60
     Davidson diagonalization with overlap
     ethr =  5.67E-11,  avg # of iterations =  1.0

     total cpu time spent up to now is    21471.8 secs

     total energy              =    -352.51487839 Ry
     Harris-Foulkes estimate   =    -352.51487839 Ry
     estimated scf accuracy    <          8.0E-09 Ry

     iteration # 13     ecut=    50.00 Ry     beta=0.60
     Davidson diagonalization with overlap
     ethr =  2.12E-11,  avg # of iterations =  2.9

     total cpu time spent up to now is    21601.4 secs

     total energy              =    -352.51487839 Ry
     Harris-Foulkes estimate   =    -352.51487839 Ry
     estimated scf accuracy    <          1.9E-10 Ry

     iteration # 14     ecut=    50.00 Ry     beta=0.60
     Davidson diagonalization with overlap
[...]
     unit-cell volume          =     359.2217 (a.u.)^3
     number of atoms/cell      =            3
     number of atomic types    =            2
     number of electrons       =        38.00
     number of Kohn-Sham states=           23
     kinetic-energy cutoff     =      50.0000  Ry
     charge density cutoff     =     500.0000  Ry
     convergence threshold     =      1.0E-12
     mixing beta               =       0.6000
     number of iterations used =            8  plain     mixing
     Exchange-correlation      = SLA  PW   PBE  PBE ( 1  4  3  4 0 0)

     celldm(1)=   1.889726  celldm(2)=   0.000000  celldm(3)=   0.000000
     celldm(4)=   0.000000  celldm(5)=   0.000000  celldm(6)=   0.000000

     crystal axes: (cart. coord. in units of alat)
               a(1) = (   0.000000   6.600071   3.381074 )  
               a(2) = (   1.656781   4.990573   4.990573 )  
               a(3) = (   1.656781   1.609498  -1.609498 )  

     reciprocal axes: (cart. coord. in units 2 pi/alat)
               b(1) = ( -0.301790  0.205422 -0.105233 )  
               b(2) = (  0.301790 -0.105233  0.205422 )  
               b(3) = (  0.301790  0.105233 -0.205422 )  


     PseudoPot. # 1 for Nb read from file:
     ./Nb.pbe-nsp-van.UPF
     MD5 check sum: 0a22fc7fb0ba19a08ca5db297a5d2854
     Pseudo is Ultrasoft + core correction, Zval = 13.0
     Generated by new atomic code, or converted to UPF format
     Using radial grid of  887 points,  6 beta functions with: 
                l(1) =   0
                l(2) =   0
                l(3) =   1
                l(4) =   1
                l(5) =   2
                l(6) =   2
     Q(r) pseudized with  6 coefficients,  rinner =    1.000   1.000   1.000
                                                       1.000   1.000

     PseudoPot. # 2 for Ti read from file:
     ./Ti.pbe-sp-van_ak.UPF
     MD5 check sum: f98fea3e8887528921fefa5636a534ca
     Pseudo is Ultrasoft, Zval = 12.0
     Generated by new atomic code, or converted to UPF format
     Using radial grid of  851 points,  6 beta functions with: 
                l(1) =   0
                l(2) =   0
                l(3) =   1
                l(4) =   1
                l(5) =   2
                l(6) =   2
     Q(r) pseudized with  8 coefficients,  rinner =    1.000   1.000   1.000
                                                       1.000   1.000

     atomic species   valence    mass     pseudopotential
        Nb            13.00    92.90638     Nb( 1.00)
        Ti            12.00    47.86700     Ti( 1.00)

      2 Sym. Ops., with inversion, found ( 1 have fractional translation)



   Cartesian axes

     site n.     atom                  positions (alat units)
         1           Ti  tau(   1) = (   1.6567815   8.2635955   5.0445990  )
         2           Nb  tau(   2) = (   3.3135632  13.2150458   6.7770522  )
         3           Nb  tau(   3) = (   1.6567811   4.9216436   1.7026473  )

     number of k points=  1376  Marzari-Vanderbilt smearing, width (Ry)=  0.0200

     Number of k-points >= 100: set verbosity='high' to print them.

     Dense  grid:    67815 G-vectors     FFT dimensions: ( 108, 108,  45)

     Smooth grid:    17133 G-vectors     FFT dimensions: (  72,  72,  25)

     Estimated max dynamical RAM per process >     277.82Mb

     Estimated total allocated dynamical RAM >    1111.26Mb

     Initial potential from superposition of free atoms

     starting charge   36.99449, renormalised to   38.00000
     Starting wfc are   36 randomized atomic wfcs

     total cpu time spent up to now is    47385.3 secs

     per-process dynamical memory:   424.1 Mb

     Self-consistent Calculation

     iteration #  1     ecut=    50.00 Ry     beta=0.60
     Davidson diagonalization with overlap
     c_bands:  1 eigenvalues not converged
     c_bands:  1 eigenvalues not converged
     c_bands:  1 eigenvalues not converged
     c_bands:  1 eigenvalues not converged
     c_bands:  1 eigenvalues not converged
     c_bands:  1 eigenvalues not converged
     c_bands:  1 eigenvalues not converged
     c_bands:  1 eigenvalues not converged
     c_bands:  2 eigenvalues not converged
     c_bands:  1 eigenvalues not converged
     c_bands:  1 eigenvalues not converged
     c_bands:  1 eigenvalues not converged
     c_bands:  1 eigenvalues not converged
     c_bands:  1 eigenvalues not converged
     c_bands:  1 eigenvalues not converged
     c_bands:  1 eigenvalues not converged
     c_bands:  1 eigenvalues not converged
     c_bands:  1 eigenvalues not converged
     c_bands:  1 eigenvalues not converged
     c_bands:  1 eigenvalues not converged
     c_bands:  1 eigenvalues not converged
     c_bands:  1 eigenvalues not converged
     c_bands:  1 eigenvalues not converged
     c_bands:  1 eigenvalues not converged
     c_bands:  1 eigenvalues not converged
     ethr =  1.00E-06,  avg # of iterations = 13.7

     total cpu time spent up to now is    47749.0 secs

     total energy              =    -310.93206832 Ry
     Harris-Foulkes estimate   =    -356.48420187 Ry
     estimated scf accuracy    <      55.96368206 Ry

     iteration #  2     ecut=    50.00 Ry     beta=0.60
     Davidson diagonalization with overlap
     ethr =  1.00E-02,  avg # of iterations =  8.6

     total cpu time spent up to now is    48037.3 secs

     total energy              =    -341.12780286 Ry
     Harris-Foulkes estimate   =    -441.09081646 Ry
     estimated scf accuracy    <     322.84204169 Ry

     iteration #  3     ecut=    50.00 Ry     beta=0.60
     Davidson diagonalization with overlap
     ethr =  1.00E-02,  avg # of iterations =  7.3

     total cpu time spent up to now is    48280.6 secs

     total energy              =    -354.28885765 Ry
     Harris-Foulkes estimate   =    -358.34241172 Ry
     estimated scf accuracy    <      24.46098242 Ry

     iteration #  4     ecut=    50.00 Ry     beta=0.60
     Davidson diagonalization with overlap
     ethr =  1.00E-02,  avg # of iterations =  2.4

     total cpu time spent up to now is    48398.5 secs

     total energy              =    -353.69802660 Ry
     Harris-Foulkes estimate   =    -354.81915480 Ry
     estimated scf accuracy    <      12.97956628 Ry

     iteration #  5     ecut=    50.00 Ry     beta=0.60
     Davidson diagonalization with overlap
     ethr =  1.00E-02,  avg # of iterations =  1.1

     total cpu time spent up to now is    48506.4 secs

     total energy              =    -352.51894175 Ry
     Harris-Foulkes estimate   =    -353.76873492 Ry
     estimated scf accuracy    <       9.65516444 Ry

     iteration #  6     ecut=    50.00 Ry     beta=0.60
     Davidson diagonalization with overlap
     ethr =  1.00E-02,  avg # of iterations =  3.1

     total cpu time spent up to now is    48626.0 secs

     total energy              =    -352.71027688 Ry
     Harris-Foulkes estimate   =    -352.77244104 Ry
     estimated scf accuracy    <       3.03774524 Ry

     iteration #  7     ecut=    50.00 Ry     beta=0.60
     Davidson diagonalization with overlap
     ethr =  7.99E-03,  avg # of iterations =  1.2

     total cpu time spent up to now is    48734.1 secs

     total energy              =    -352.31278573 Ry
     Harris-Foulkes estimate   =    -352.73940334 Ry
     estimated scf accuracy    <       2.27427994 Ry

     iteration #  8     ecut=    50.00 Ry     beta=0.60
     Davidson diagonalization with overlap
     ethr =  5.98E-03,  avg # of iterations =  3.6

     total cpu time spent up to now is    48859.2 secs

     total energy              =    -352.54124761 Ry
     Harris-Foulkes estimate   =    -352.54708105 Ry
     estimated scf accuracy    <       0.33728676 Ry

     iteration #  9     ecut=    50.00 Ry     beta=0.60
     Davidson diagonalization with overlap
     ethr =  8.88E-04,  avg # of iterations =  4.9

     total cpu time spent up to now is    49007.5 secs

     total energy              =    -352.56789849 Ry
     Harris-Foulkes estimate   =    -352.61302233 Ry
     estimated scf accuracy    <       1.69335380 Ry

     iteration # 10     ecut=    50.00 Ry     beta=0.60
     Davidson diagonalization with overlap
     ethr =  8.88E-04,  avg # of iterations =  1.0

     total cpu time spent up to now is    49114.9 secs

     total energy              =    -352.47446048 Ry
     Harris-Foulkes estimate   =    -352.57273965 Ry
     estimated scf accuracy    <       1.07326542 Ry

     iteration # 11     ecut=    50.00 Ry     beta=0.60
     Davidson diagonalization with overlap
     ethr =  8.88E-04,  avg # of iterations =  2.0

     total cpu time spent up to now is    49227.4 secs

     total energy              =    -352.51152724 Ry
     Harris-Foulkes estimate   =    -352.51566358 Ry
     estimated scf accuracy    <       0.01903520 Ry

     iteration # 12     ecut=    50.00 Ry     beta=0.60
     Davidson diagonalization with overlap
     ethr =  5.01E-05,  avg # of iterations =  5.7

     total cpu time spent up to now is    49400.7 secs

     total energy              =    -352.52486919 Ry
     Harris-Foulkes estimate   =    -352.53400651 Ry
     estimated scf accuracy    <       0.31390696 Ry

     iteration # 13     ecut=    50.00 Ry     beta=0.60
     Davidson diagonalization with overlap
     ethr =  5.01E-05,  avg # of iterations =  1.0

     total cpu time spent up to now is    49508.0 secs

     total energy              =    -352.49572792 Ry
     Harris-Foulkes estimate   =    -352.52551698 Ry
     estimated scf accuracy    <       0.22618200 Ry

     iteration # 14     ecut=    50.00 Ry     beta=0.60
     Davidson diagonalization with overlap
     ethr =  5.01E-05,  avg # of iterations =  5.1

     total cpu time spent up to now is    49681.0 secs

     total energy              =    -352.51388325 Ry
     Harris-Foulkes estimate   =    -352.51683981 Ry
     estimated scf accuracy    <       0.03524486 Ry

     iteration # 15     ecut=    50.00 Ry     beta=0.60
     Davidson diagonalization with overlap
     ethr =  5.01E-05,  avg # of iterations =  1.0

     total cpu time spent up to now is    49788.3 secs

     total energy              =    -352.51675200 Ry
     Harris-Foulkes estimate   =    -352.51468992 Ry
     estimated scf accuracy    <       0.00508037 Ry

     iteration # 16     ecut=    50.00 Ry     beta=0.60
     Davidson diagonalization with overlap
     ethr =  1.34E-05,  avg # of iterations =  2.9

     total cpu time spent up to now is    49909.0 secs

     total energy              =    -352.50996137 Ry
     Harris-Foulkes estimate   =    -352.51906796 Ry
     estimated scf accuracy    <       0.08479212 Ry

     iteration # 17     ecut=    50.00 Ry     beta=0.60
     Davidson diagonalization with overlap
     ethr =  1.34E-05,  avg # of iterations =  5.1

     total cpu time spent up to now is    50073.7 secs

     total energy              =    -352.51477917 Ry
     Harris-Foulkes estimate   =    -352.51490165 Ry
     estimated scf accuracy    <       0.00107354 Ry

     iteration # 18     ecut=    50.00 Ry     beta=0.60
     Davidson diagonalization with overlap
     ethr =  2.83E-06,  avg # of iterations =  1.3

     total cpu time spent up to now is    50182.5 secs

     total energy              =    -352.51477545 Ry
     Harris-Foulkes estimate   =    -352.51480451 Ry
     estimated scf accuracy    <       0.00045514 Ry

     iteration # 19     ecut=    50.00 Ry     beta=0.60
     Davidson diagonalization with overlap
     ethr =  1.20E-06,  avg # of iterations =  2.7

     total cpu time spent up to now is    50298.1 secs

     total energy              =    -352.51479320 Ry
     Harris-Foulkes estimate   =    -352.51479487 Ry
     estimated scf accuracy    <       0.00009773 Ry

     iteration # 20     ecut=    50.00 Ry     beta=0.60
     Davidson diagonalization with overlap
     ethr =  2.57E-07,  avg # of iterations =  2.7

     total cpu time spent up to now is    50415.6 secs

     total energy              =    -352.51479535 Ry
     Harris-Foulkes estimate   =    -352.51479794 Ry
     estimated scf accuracy    <       0.00004445 Ry

     iteration # 21     ecut=    50.00 Ry     beta=0.60
     Davidson diagonalization with overlap
     ethr =  1.17E-07,  avg # of iterations =  2.2

     total cpu time spent up to now is    50528.9 secs

     total energy              =    -352.51479683 Ry
     Harris-Foulkes estimate   =    -352.51479715 Ry
     estimated scf accuracy    <       0.00000502 Ry

     iteration # 22     ecut=    50.00 Ry     beta=0.60
     Davidson diagonalization with overlap
     ethr =  1.32E-08,  avg # of iterations =  3.8

     total cpu time spent up to now is    50657.6 secs

     total energy              =    -352.51479737 Ry
     Harris-Foulkes estimate   =    -352.51479739 Ry
     estimated scf accuracy    <       0.00000042 Ry

     iteration # 23     ecut=    50.00 Ry     beta=0.60
     Davidson diagonalization with overlap
     ethr =  1.10E-09,  avg # of iterations =  2.9

     total cpu time spent up to now is    50777.9 secs

     total energy              =    -352.51479737 Ry
     Harris-Foulkes estimate   =    -352.51479740 Ry
     estimated scf accuracy    <       0.00000048 Ry

     iteration # 24     ecut=    50.00 Ry     beta=0.60
     Davidson diagonalization with overlap
     ethr =  1.10E-09,  avg # of iterations =  1.0

     total cpu time spent up to now is    50885.3 secs

     total energy              =    -352.51479737 Ry
     Harris-Foulkes estimate   =    -352.51479738 Ry
     estimated scf accuracy    <       0.00000018 Ry

     iteration # 25     ecut=    50.00 Ry     beta=0.60
     Davidson diagonalization with overlap
     ethr =  4.63E-10,  avg # of iterations =  1.9

     total cpu time spent up to now is    50996.2 secs

     total energy              =    -352.51479737 Ry
     Harris-Foulkes estimate   =    -352.51479737 Ry
     estimated scf accuracy    <       0.00000006 Ry

     iteration # 26     ecut=    50.00 Ry     beta=0.60
     Davidson diagonalization with overlap
     ethr =  1.59E-10,  avg # of iterations =  3.2

     total cpu time spent up to now is    51116.5 secs

     total energy              =    -352.51479737 Ry
     Harris-Foulkes estimate   =    -352.51479737 Ry
     estimated scf accuracy    <          6.5E-09 Ry

     iteration # 27     ecut=    50.00 Ry     beta=0.60
     Davidson diagonalization with overlap
     ethr =  1.72E-11,  avg # of iterations =  3.5

     total cpu time spent up to now is    51242.6 secs

     total energy              =    -352.51479737 Ry
     Harris-Foulkes estimate   =    -352.51479737 Ry
     estimated scf accuracy    <          1.9E-09 Ry

     iteration # 28     ecut=    50.00 Ry     beta=0.60
     Davidson diagonalization with overlap
     ethr =  4.97E-12,  avg # of iterations =  1.2

     total cpu time spent up to now is    51350.3 secs

     total energy              =    -352.51479737 Ry
     Harris-Foulkes estimate   =    -352.51479737 Ry
     estimated scf accuracy    <          2.1E-09 Ry

     iteration # 29     ecut=    50.00 Ry     beta=0.60
     Davidson diagonalization with overlap
     ethr =  4.97E-12,  avg # of iterations =  2.1

     total cpu time spent up to now is    51462.3 secs

     total energy              =    -352.51479737 Ry
     Harris-Foulkes estimate   =    -352.51479737 Ry
     estimated scf accuracy    <          7.7E-10 Ry

     iteration # 30     ecut=    50.00 Ry     beta=0.60
     Davidson diagonalization with overlap
     ethr =  2.02E-12,  avg # of iterations =  2.8

     total cpu time spent up to now is    51578.7 secs

     total energy              =    -352.51479737 Ry
     Harris-Foulkes estimate   =    -352.51479737 Ry
     estimated scf accuracy    <          1.3E-10 Ry

     iteration # 31     ecut=    50.00 Ry     beta=0.60
     Davidson diagonalization with overlap
     ethr =  3.54E-13,  avg # of iterations =  3.7

     total cpu time spent up to now is    51705.6 secs

     End of self-consistent calculation

     Number of k-points >= 100: set verbosity='high' to print the bands.

     the Fermi energy is    16.4630 ev

!    total energy              =    -352.51479737 Ry
     Harris-Foulkes estimate   =    -352.51479737 Ry
     estimated scf accuracy    <          4.6E-13 Ry

     The total energy is the sum of the following terms:

     one-electron contribution =     -73.14257947 Ry
     hartree contribution      =      54.23942691 Ry
     xc contribution           =     -51.42174274 Ry
     ewald contribution        =    -282.18986515 Ry
     smearing contrib. (-TS)   =      -0.00003693 Ry

     convergence has been achieved in  31 iterations

     Forces acting on atoms (Ry/au):

     atom    1 type  2   force =     0.00000000    0.00000000    0.00000000
     atom    2 type  1   force =    -0.00000003   -0.00000615   -0.00000611
     atom    3 type  1   force =     0.00000003    0.00000615    0.00000611

     Total force =     0.000012     Total SCF correction =     0.000003
     SCF correction compared to forces is large: reduce conv_thr to get better values


     entering subroutine stress ...

          total   stress  (Ry/bohr**3)                   (kbar)     P=   -1.17
  -0.00000814  -0.00000000   0.00000001         -1.20     -0.00      0.00
  -0.00000000  -0.00000790   0.00000000         -0.00     -1.16      0.00
   0.00000001   0.00000000  -0.00000790          0.00      0.00     -1.16


     init_run     :    125.89s CPU    127.79s WALL (       2 calls)
     electrons    :  50362.36s CPU  51075.42s WALL (      21 calls)
     update_pot   :     30.89s CPU     30.97s WALL (      19 calls)
     forces       :    164.61s CPU    165.88s WALL (      21 calls)
     stress       :    317.92s CPU    319.95s WALL (      21 calls)

     Called by init_run:
     wfcinit      :    122.97s CPU    124.81s WALL (       2 calls)
     potinit      :      0.97s CPU      0.98s WALL (       2 calls)

     Called by electrons:
     c_bands      :  40307.06s CPU  40884.09s WALL (     353 calls)
     sum_band     :   9963.00s CPU  10091.65s WALL (     353 calls)
     v_of_rho     :     35.33s CPU     35.69s WALL (     366 calls)
     newd         :     55.07s CPU     62.49s WALL (     366 calls)
     mix_rho      :      3.63s CPU      3.67s WALL (     353 calls)

     Called by c_bands:
     init_us_2    :    380.44s CPU    383.95s WALL ( 1032000 calls)
     cegterg      :  39583.32s CPU  40155.50s WALL (  485728 calls)

     Called by sum_band:
     sum_band:bec :     18.59s CPU     18.84s WALL (  485728 calls)
     addusdens    :     49.86s CPU     59.35s WALL (     353 calls)

     Called by *egterg:
     h_psi        :  32088.47s CPU  32606.08s WALL ( 1983227 calls)
     s_psi        :   1165.53s CPU   1176.30s WALL ( 1983227 calls)
     g_psi        :     33.94s CPU     34.22s WALL ( 1494747 calls)
     cdiaghg      :   1787.75s CPU   1801.44s WALL ( 1943323 calls)

     Called by h_psi:
     h_psi:pot    :  31965.25s CPU  32481.45s WALL ( 1983227 calls)
     h_psi:calbec :   1837.08s CPU   1868.26s WALL ( 1983227 calls)
     vloc_psi     :  28929.91s CPU  29399.50s WALL ( 1983227 calls)
     add_vuspsi   :   1192.31s CPU   1208.22s WALL ( 1983227 calls)

     General routines
     calbec       :   2643.60s CPU   2684.31s WALL ( 2613435 calls)
     fft          :     21.51s CPU     21.95s WALL (    6348 calls)
     ffts         :      0.29s CPU      0.30s WALL (     719 calls)
     fftw         :  20160.19s CPU  20465.38s WALL (68815562 calls)
     interpolate  :      3.86s CPU      3.95s WALL (     719 calls)

     Parallel routines
     fft_scatter  :   3024.26s CPU   3094.40s WALL (68822629 calls)

     PWSCF        :    14h10m CPU       14h22m WALL


   This run was terminated on:   5:48:56   8May2018            

=------------------------------------------------------------------------------=
   JOB DONE.
=------------------------------------------------------------------------------=
