
     Program PWSCF v.6.3MaX starts on 24Feb2020 at 10: 0:44 

     This program is part of the open-source Quantum ESPRESSO suite
     for quantum simulation of materials; please cite
         "P. Giannozzi et al., J. Phys.:Condens. Matter 21 395502 (2009);
         "P. Giannozzi et al., J. Phys.:Condens. Matter 29 465901 (2017);
          URL http://www.quantum-espresso.org", 
     in publications or presentations arising from this work. More details at
     http://www.quantum-espresso.org/quote

     Parallel version (MPI), running on     4 processors

     MPI processes distributed on     1 nodes
     R & G space division:  proc/nbgrp/npool/nimage =       4
     Waiting for input...
     Reading input from standard input

     Current dimensions of program PWSCF are:
     Max number of different atomic species (ntypx) = 10
     Max number of k-points (npk) =  40000
     Max angular momentum in pseudopotentials (lmaxx) =  3
     Message from routine iosys:
     minimal I/O required, wf_collect reset to FALSE

     Subspace diagonalization in iterative solution of the eigenvalue problem:
     a serial algorithm will be used

 
     Parallelization info
     --------------------
     sticks:   dense  smooth     PW     G-vecs:    dense   smooth      PW
     Min         761     303     87                41551    10499    1613
     Max         763     304     88                41553    10504    1618
     Sum        3049    1213    349               166209    42003    6459
 


     bravais-lattice index     =            0
     lattice parameter (alat)  =       1.8897  a.u.
     unit-cell volume          =     880.0102 (a.u.)^3
     number of atoms/cell      =            6
     number of atomic types    =            2
     number of electrons       =        74.00
     number of Kohn-Sham states=           44
     kinetic-energy cutoff     =      50.0000  Ry
     charge density cutoff     =     500.0000  Ry
     convergence threshold     =      1.0E-10
     mixing beta               =       0.6000
     number of iterations used =            8  plain     mixing
     Exchange-correlation      = SLA PW PBE PBE ( 1  4  3  4 0 0)
     nstep                     =           50


     celldm(1)=   1.889726  celldm(2)=   0.000000  celldm(3)=   0.000000
     celldm(4)=   0.000000  celldm(5)=   0.000000  celldm(6)=   0.000000

     crystal axes: (cart. coord. in units of alat)
               a(1) = (   0.000000   3.516063   3.516063 )  
               a(2) = (  -3.516063   0.000000  -3.516063 )  
               a(3) = (  -3.516063  -3.516063   3.516063 )  

     reciprocal axes: (cart. coord. in units 2 pi/alat)
               b(1) = ( -0.094803  0.189606  0.094803 )  
               b(2) = ( -0.189606  0.094803 -0.094803 )  
               b(3) = ( -0.094803 -0.094803  0.094803 )  


     PseudoPot. # 1 for Nb read from file:
     ./Nb.pbe-nsp-van.UPF
     MD5 check sum: 0a22fc7fb0ba19a08ca5db297a5d2854
     Pseudo is Ultrasoft + core correction, Zval = 13.0
     Generated by new atomic code, or converted to UPF format
     Using radial grid of  887 points,  6 beta functions with: 
                l(1) =   0
                l(2) =   0
                l(3) =   1
                l(4) =   1
                l(5) =   2
                l(6) =   2
     Q(r) pseudized with  6 coefficients,  rinner =    1.000   1.000   1.000
                                                       1.000   1.000

     PseudoPot. # 2 for Ti read from file:
     ./Ti.pbe-sp-van_ak.UPF
     MD5 check sum: f98fea3e8887528921fefa5636a534ca
     Pseudo is Ultrasoft, Zval = 12.0
     Generated by new atomic code, or converted to UPF format
     Using radial grid of  851 points,  6 beta functions with: 
                l(1) =   0
                l(2) =   0
                l(3) =   1
                l(4) =   1
                l(5) =   2
                l(6) =   2
     Q(r) pseudized with  8 coefficients,  rinner =    1.000   1.000   1.000
                                                       1.000   1.000

     atomic species   valence    mass     pseudopotential
        Nb            13.00    92.90638     Nb( 1.00)
        Ti            12.00    47.86700     Ti( 1.00)

     12 Sym. Ops., with inversion, found ( 6 have fractional translation)



   Cartesian axes

     site n.     atom                  positions (alat units)
         1           Ti  tau(   1) = (  -3.5160633   0.0000000   3.5160633  )
         2           Ti  tau(   2) = (  -1.7580316   1.7580316   1.7580316  )
         3           Nb  tau(   3) = (  -3.5160633   0.0000000   0.0000000  )
         4           Ti  tau(   4) = (  -5.2740949   1.7580316   1.7580316  )
         5           Ti  tau(   5) = (  -5.2740949  -1.7580316   1.7580316  )
         6           Nb  tau(   6) = (  -7.0321265   0.0000000   3.5160633  )

     number of k points=   162  Marzari-Vanderbilt smearing, width (Ry)=  0.0200

     Number of k-points >= 100: set verbosity='high' to print them.

     Dense  grid:   166209 G-vectors     FFT dimensions: (  72,  72,  81)

     Smooth grid:    42003 G-vectors     FFT dimensions: (  45,  45,  54)

     Estimated max dynamical RAM per process >     302.22 MB

     Estimated total dynamical RAM >       1.18 GB

     Initial potential from superposition of free atoms

     starting charge   69.99436, renormalised to   74.00000
     Starting wfcs are   66 randomized atomic wfcs

     total cpu time spent up to now is       14.6 secs

     Self-consistent Calculation

     iteration #  1     ecut=    50.00 Ry     beta= 0.60
     Davidson diagonalization with overlap
     ethr =  1.00E-02,  avg # of iterations =  3.8

     total cpu time spent up to now is       42.5 secs

     total energy              =    -693.19171399 Ry
     Harris-Foulkes estimate   =    -704.51335090 Ry
     estimated scf accuracy    <      14.38119492 Ry

     iteration #  2     ecut=    50.00 Ry     beta= 0.60
     Davidson diagonalization with overlap
     ethr =  1.00E-02,  avg # of iterations =  5.9

     total cpu time spent up to now is       82.8 secs

     total energy              =    -699.06239716 Ry
     Harris-Foulkes estimate   =    -720.74984308 Ry
     estimated scf accuracy    <      67.26154527 Ry

     iteration #  3     ecut=    50.00 Ry     beta= 0.60
     Davidson diagonalization with overlap
     ethr =  1.00E-02,  avg # of iterations =  5.6

     total cpu time spent up to now is      117.7 secs

     total energy              =    -702.89682112 Ry
     Harris-Foulkes estimate   =    -703.81058264 Ry
     estimated scf accuracy    <       5.53381699 Ry

     iteration #  4     ecut=    50.00 Ry     beta= 0.60
     Davidson diagonalization with overlap
     ethr =  7.48E-03,  avg # of iterations =  1.2

     total cpu time spent up to now is      137.2 secs

     total energy              =    -702.79381685 Ry
     Harris-Foulkes estimate   =    -703.01447701 Ry
     estimated scf accuracy    <       4.08126596 Ry

     iteration #  5     ecut=    50.00 Ry     beta= 0.60
     Davidson diagonalization with overlap
     ethr =  5.52E-03,  avg # of iterations =  1.2

     total cpu time spent up to now is      156.8 secs

     total energy              =    -702.58595362 Ry
     Harris-Foulkes estimate   =    -702.83033558 Ry
     estimated scf accuracy    <       3.30812000 Ry

     iteration #  6     ecut=    50.00 Ry     beta= 0.60
     Davidson diagonalization with overlap
     ethr =  4.47E-03,  avg # of iterations =  1.4

     total cpu time spent up to now is      176.3 secs

     total energy              =    -701.89655144 Ry
     Harris-Foulkes estimate   =    -702.98301507 Ry
     estimated scf accuracy    <       8.52430876 Ry

     iteration #  7     ecut=    50.00 Ry     beta= 0.60
     Davidson diagonalization with overlap
     ethr =  4.47E-03,  avg # of iterations =  5.1

     total cpu time spent up to now is      207.3 secs

     total energy              =    -702.54154906 Ry
     Harris-Foulkes estimate   =    -702.93427036 Ry
     estimated scf accuracy    <      13.32908690 Ry

     iteration #  8     ecut=    50.00 Ry     beta= 0.60
     Davidson diagonalization with overlap
     ethr =  4.47E-03,  avg # of iterations =  1.0

     total cpu time spent up to now is      226.6 secs

     total energy              =    -702.15056157 Ry
     Harris-Foulkes estimate   =    -702.58795352 Ry
     estimated scf accuracy    <       8.47125349 Ry

     iteration #  9     ecut=    50.00 Ry     beta= 0.60
     Davidson diagonalization with overlap
     ethr =  4.47E-03,  avg # of iterations =  1.3

     total cpu time spent up to now is      246.0 secs

     total energy              =    -702.29620599 Ry
     Harris-Foulkes estimate   =    -702.31772451 Ry
     estimated scf accuracy    <       1.30936837 Ry

     iteration # 10     ecut=    50.00 Ry     beta= 0.60
     Davidson diagonalization with overlap
     ethr =  1.77E-03,  avg # of iterations =  1.4

     total cpu time spent up to now is      265.7 secs

     total energy              =    -702.06867951 Ry
     Harris-Foulkes estimate   =    -702.33979659 Ry
     estimated scf accuracy    <       2.29652240 Ry

     iteration # 11     ecut=    50.00 Ry     beta= 0.60
     Davidson diagonalization with overlap
     ethr =  1.77E-03,  avg # of iterations =  4.7

     total cpu time spent up to now is      290.2 secs

     total energy              =    -702.25458662 Ry
     Harris-Foulkes estimate   =    -702.32429308 Ry
     estimated scf accuracy    <       0.43755023 Ry

     iteration # 12     ecut=    50.00 Ry     beta= 0.60
     Davidson diagonalization with overlap
     ethr =  5.91E-04,  avg # of iterations =  4.7

     total cpu time spent up to now is      315.2 secs

     total energy              =    -702.31107158 Ry
     Harris-Foulkes estimate   =    -702.31385976 Ry
     estimated scf accuracy    <       0.16881982 Ry

     iteration # 13     ecut=    50.00 Ry     beta= 0.60
     Davidson diagonalization with overlap
     ethr =  2.28E-04,  avg # of iterations =  3.8

     total cpu time spent up to now is      337.6 secs

     total energy              =    -702.30692208 Ry
     Harris-Foulkes estimate   =    -702.31702648 Ry
     estimated scf accuracy    <       0.15363534 Ry

     iteration # 14     ecut=    50.00 Ry     beta= 0.60
     Davidson diagonalization with overlap
     ethr =  2.08E-04,  avg # of iterations =  2.5

     total cpu time spent up to now is      358.3 secs

     total energy              =    -702.30719861 Ry
     Harris-Foulkes estimate   =    -702.31574799 Ry
     estimated scf accuracy    <       0.10148184 Ry

     iteration # 15     ecut=    50.00 Ry     beta= 0.60
     Davidson diagonalization with overlap
     ethr =  1.37E-04,  avg # of iterations =  1.5

     total cpu time spent up to now is      378.0 secs

     total energy              =    -702.30807802 Ry
     Harris-Foulkes estimate   =    -702.31092779 Ry
     estimated scf accuracy    <       0.02297673 Ry

     iteration # 16     ecut=    50.00 Ry     beta= 0.60
     Davidson diagonalization with overlap
     ethr =  3.10E-05,  avg # of iterations =  7.1

     total cpu time spent up to now is      408.6 secs

     total energy              =    -702.31088996 Ry
     Harris-Foulkes estimate   =    -702.31163748 Ry
     estimated scf accuracy    <       0.00814102 Ry

     iteration # 17     ecut=    50.00 Ry     beta= 0.60
     Davidson diagonalization with overlap
     ethr =  1.10E-05,  avg # of iterations =  3.1

     total cpu time spent up to now is      430.2 secs

     total energy              =    -702.31065791 Ry
     Harris-Foulkes estimate   =    -702.31117803 Ry
     estimated scf accuracy    <       0.00435551 Ry

     iteration # 18     ecut=    50.00 Ry     beta= 0.60
     Davidson diagonalization with overlap
     c_bands:  1 eigenvalues not converged
     ethr =  5.89E-06,  avg # of iterations =  6.4

     total cpu time spent up to now is      461.4 secs

     total energy              =    -702.31189548 Ry
     Harris-Foulkes estimate   =    -702.31172495 Ry
     estimated scf accuracy    <       0.01862866 Ry

     iteration # 19     ecut=    50.00 Ry     beta= 0.60
     Davidson diagonalization with overlap
     ethr =  5.89E-06,  avg # of iterations =  1.1

     total cpu time spent up to now is      480.7 secs

     total energy              =    -702.31021823 Ry
     Harris-Foulkes estimate   =    -702.31199289 Ry
     estimated scf accuracy    <       0.02382348 Ry

     iteration # 20     ecut=    50.00 Ry     beta= 0.60
     Davidson diagonalization with overlap
     ethr =  5.89E-06,  avg # of iterations =  3.8

     total cpu time spent up to now is      503.1 secs

     total energy              =    -702.31096896 Ry
     Harris-Foulkes estimate   =    -702.31113126 Ry
     estimated scf accuracy    <       0.00739400 Ry

     iteration # 21     ecut=    50.00 Ry     beta= 0.60
     Davidson diagonalization with overlap
     ethr =  5.89E-06,  avg # of iterations =  1.1

     total cpu time spent up to now is      522.5 secs

     total energy              =    -702.31074100 Ry
     Harris-Foulkes estimate   =    -702.31112730 Ry
     estimated scf accuracy    <       0.00412238 Ry

     iteration # 22     ecut=    50.00 Ry     beta= 0.60
     Davidson diagonalization with overlap
     ethr =  5.57E-06,  avg # of iterations =  1.0

     total cpu time spent up to now is      541.8 secs

     total energy              =    -702.31068075 Ry
     Harris-Foulkes estimate   =    -702.31084739 Ry
     estimated scf accuracy    <       0.00171615 Ry

     iteration # 23     ecut=    50.00 Ry     beta= 0.60
     Davidson diagonalization with overlap
     ethr =  2.32E-06,  avg # of iterations =  5.7

     total cpu time spent up to now is      569.8 secs

     total energy              =    -702.31086002 Ry
     Harris-Foulkes estimate   =    -702.31089817 Ry
     estimated scf accuracy    <       0.00026334 Ry

     iteration # 24     ecut=    50.00 Ry     beta= 0.60
     Davidson diagonalization with overlap
     ethr =  3.56E-07,  avg # of iterations =  4.1

     total cpu time spent up to now is      593.9 secs

     total energy              =    -702.31087658 Ry
     Harris-Foulkes estimate   =    -702.31088242 Ry
     estimated scf accuracy    <       0.00004538 Ry

     iteration # 25     ecut=    50.00 Ry     beta= 0.60
     Davidson diagonalization with overlap
     ethr =  6.13E-08,  avg # of iterations =  4.9

     total cpu time spent up to now is      622.5 secs

     total energy              =    -702.31088620 Ry
     Harris-Foulkes estimate   =    -702.31088680 Ry
     estimated scf accuracy    <       0.00000403 Ry

     iteration # 26     ecut=    50.00 Ry     beta= 0.60
     Davidson diagonalization with overlap
     ethr =  5.45E-09,  avg # of iterations =  4.3

     total cpu time spent up to now is      648.3 secs

     total energy              =    -702.31088636 Ry
     Harris-Foulkes estimate   =    -702.31088685 Ry
     estimated scf accuracy    <       0.00000412 Ry

     iteration # 27     ecut=    50.00 Ry     beta= 0.60
     Davidson diagonalization with overlap
     ethr =  5.45E-09,  avg # of iterations =  1.2

     total cpu time spent up to now is      667.8 secs

     total energy              =    -702.31088638 Ry
     Harris-Foulkes estimate   =    -702.31088650 Ry
     estimated scf accuracy    <       0.00000103 Ry

     iteration # 28     ecut=    50.00 Ry     beta= 0.60
     Davidson diagonalization with overlap
     ethr =  1.39E-09,  avg # of iterations =  4.5

     total cpu time spent up to now is      696.0 secs

     total energy              =    -702.31088657 Ry
     Harris-Foulkes estimate   =    -702.31088662 Ry
     estimated scf accuracy    <       0.00000052 Ry

     iteration # 29     ecut=    50.00 Ry     beta= 0.60
     Davidson diagonalization with overlap
     ethr =  7.00E-10,  avg # of iterations =  1.0

     total cpu time spent up to now is      715.3 secs

     total energy              =    -702.31088655 Ry
     Harris-Foulkes estimate   =    -702.31088658 Ry
     estimated scf accuracy    <       0.00000024 Ry

     iteration # 30     ecut=    50.00 Ry     beta= 0.60
     Davidson diagonalization with overlap
     ethr =  3.20E-10,  avg # of iterations =  3.8

     total cpu time spent up to now is      740.7 secs

     total energy              =    -702.31088658 Ry
     Harris-Foulkes estimate   =    -702.31088658 Ry
     estimated scf accuracy    <       0.00000002 Ry

     iteration # 31     ecut=    50.00 Ry     beta= 0.60
     Davidson diagonalization with overlap
     ethr =  2.07E-11,  avg # of iterations =  5.1

     total cpu time spent up to now is      771.5 secs

     total energy              =    -702.31088658 Ry
     Harris-Foulkes estimate   =    -702.31088659 Ry
     estimated scf accuracy    <       0.00000006 Ry

     iteration # 32     ecut=    50.00 Ry     beta= 0.60
     Davidson diagonalization with overlap
     ethr =  2.07E-11,  avg # of iterations =  4.0

     total cpu time spent up to now is      795.8 secs

     total energy              =    -702.31088658 Ry
     Harris-Foulkes estimate   =    -702.31088659 Ry
     estimated scf accuracy    <       0.00000002 Ry

     iteration # 33     ecut=    50.00 Ry     beta= 0.60
     Davidson diagonalization with overlap
     ethr =  2.07E-11,  avg # of iterations =  3.8

     total cpu time spent up to now is      819.2 secs

     total energy              =    -702.31088659 Ry
     Harris-Foulkes estimate   =    -702.31088659 Ry
     estimated scf accuracy    <          1.6E-09 Ry

     iteration # 34     ecut=    50.00 Ry     beta= 0.60
     Davidson diagonalization with overlap
     ethr =  2.21E-12,  avg # of iterations =  5.0

     total cpu time spent up to now is      849.6 secs

     total energy              =    -702.31088659 Ry
     Harris-Foulkes estimate   =    -702.31088659 Ry
     estimated scf accuracy    <          1.6E-09 Ry

     iteration # 35     ecut=    50.00 Ry     beta= 0.60
     Davidson diagonalization with overlap
     ethr =  2.17E-12,  avg # of iterations =  1.1

     total cpu time spent up to now is      868.9 secs

     total energy              =    -702.31088659 Ry
     Harris-Foulkes estimate   =    -702.31088659 Ry
     estimated scf accuracy    <          3.4E-10 Ry

     iteration # 36     ecut=    50.00 Ry     beta= 0.60
     Davidson diagonalization with overlap
     ethr =  4.66E-13,  avg # of iterations =  4.9

     total cpu time spent up to now is      898.9 secs

     total energy              =    -702.31088659 Ry
     Harris-Foulkes estimate   =    -702.31088659 Ry
     estimated scf accuracy    <          1.2E-09 Ry

     iteration # 37     ecut=    50.00 Ry     beta= 0.60
     Davidson diagonalization with overlap
     ethr =  4.66E-13,  avg # of iterations =  1.0

     total cpu time spent up to now is      918.1 secs

     total energy              =    -702.31088659 Ry
     Harris-Foulkes estimate   =    -702.31088659 Ry
     estimated scf accuracy    <          6.2E-10 Ry

     iteration # 38     ecut=    50.00 Ry     beta= 0.60
     Davidson diagonalization with overlap
     ethr =  4.66E-13,  avg # of iterations =  3.9

     total cpu time spent up to now is      944.8 secs

     End of self-consistent calculation

     Number of k-points >= 100: set verbosity='high' to print the bands.

     the Fermi energy is    11.4410 ev

!    total energy              =    -702.31088659 Ry
     Harris-Foulkes estimate   =    -702.31088659 Ry
     estimated scf accuracy    <          5.1E-11 Ry

     The total energy is the sum of the following terms:

     one-electron contribution =    -252.67726763 Ry
     hartree contribution      =     144.60124503 Ry
     xc contribution           =     -93.99959089 Ry
     ewald contribution        =    -500.23348290 Ry
     smearing contrib. (-TS)   =      -0.00179019 Ry

     convergence has been achieved in  38 iterations

     Forces acting on atoms (cartesian axes, Ry/au):

     atom    1 type  2   force =     0.00000000    0.00000000    0.00000000
     atom    2 type  2   force =     0.00000000    0.00000000    0.00000000
     atom    3 type  1   force =    -0.00148062   -0.00148062    0.00148062
     atom    4 type  2   force =     0.00484016    0.00484016   -0.00484016
     atom    5 type  2   force =    -0.00484016   -0.00484016    0.00484016
     atom    6 type  1   force =     0.00148062    0.00148062   -0.00148062

     Total force =     0.012398     Total SCF correction =     0.000004


     Computing stress (Cartesian axis) and pressure

          total   stress  (Ry/bohr**3)                   (kbar)     P= -191.20
  -0.00129977  -0.00000217   0.00000217       -191.20     -0.32      0.32
  -0.00000217  -0.00129977   0.00000217         -0.32   -191.20      0.32
   0.00000217   0.00000217  -0.00129977          0.32      0.32   -191.20


     BFGS Geometry Optimization

     number of scf cycles    =   1
     number of bfgs steps    =   0

     enthalpy new            =    -702.3108865859 Ry

     new trust radius        =       0.1927890236 bohr
     new conv_thr            =            1.0E-10 Ry

     new unit-cell volume =    796.98160 a.u.^3 (   118.10049 Ang^3 )
     density =      5.30471 g/cm^3

CELL_PARAMETERS (alat=  1.88972599)
   0.000000000   3.402001554   3.402001554
  -3.402001554   0.000000000  -3.402001554
  -3.401429822  -3.401429822   3.401429822

ATOMIC_POSITIONS (angstrom)
Ti      -3.401620400   0.000381154   3.401620400
Ti      -1.700905488   1.701096066   1.700905488
Nb      -3.402568941  -0.000567387   0.000567387
Ti      -5.100238666   1.703764442   1.698237112
Ti      -5.105003687  -1.703002133   1.703002133
Nb      -6.802673412   0.001329696   3.400671858


     NEW-OLD atomic charge density approx. for the potential
     extrapolated charge   66.70807, renormalised to   74.00000

     total cpu time spent up to now is      959.7 secs

     Self-consistent Calculation

     iteration #  1     ecut=    50.00 Ry     beta= 0.60
     Davidson diagonalization with overlap
     c_bands:  1 eigenvalues not converged
     c_bands:  1 eigenvalues not converged
     c_bands:  2 eigenvalues not converged
     c_bands:  2 eigenvalues not converged
     c_bands:  2 eigenvalues not converged
     c_bands:  3 eigenvalues not converged
     ethr =  1.00E-06,  avg # of iterations = 15.9

     total cpu time spent up to now is     1041.9 secs

     total energy              =    -677.54731566 Ry
     Harris-Foulkes estimate   =    -720.52902265 Ry
     estimated scf accuracy    <      27.14445306 Ry

     iteration #  2     ecut=    50.00 Ry     beta= 0.60
     Davidson diagonalization with overlap
     ethr =  1.00E-02,  avg # of iterations =  5.7

     total cpu time spent up to now is     1083.4 secs

     total energy              =    -699.69214136 Ry
     Harris-Foulkes estimate   =    -733.57175251 Ry
     estimated scf accuracy    <      99.75299465 Ry

     iteration #  3     ecut=    50.00 Ry     beta= 0.60
     Davidson diagonalization with overlap
     ethr =  1.00E-02,  avg # of iterations =  5.3

     total cpu time spent up to now is     1119.8 secs

     total energy              =    -704.25854770 Ry
     Harris-Foulkes estimate   =    -707.96484008 Ry
     estimated scf accuracy    <      14.61286741 Ry

     iteration #  4     ecut=    50.00 Ry     beta= 0.60
     Davidson diagonalization with overlap
     ethr =  1.00E-02,  avg # of iterations =  2.9

     total cpu time spent up to now is     1142.5 secs

     total energy              =    -703.45554828 Ry
     Harris-Foulkes estimate   =    -705.86876487 Ry
     estimated scf accuracy    <      16.58828475 Ry

     iteration #  5     ecut=    50.00 Ry     beta= 0.60
     Davidson diagonalization with overlap
     ethr =  1.00E-02,  avg # of iterations =  1.0

     total cpu time spent up to now is     1162.0 secs

     total energy              =    -702.61441022 Ry
     Harris-Foulkes estimate   =    -703.75536918 Ry
     estimated scf accuracy    <       7.83248364 Ry

     iteration #  6     ecut=    50.00 Ry     beta= 0.60
     Davidson diagonalization with overlap
     ethr =  1.00E-02,  avg # of iterations =  1.5

     total cpu time spent up to now is     1182.0 secs

     total energy              =    -702.54157265 Ry
     Harris-Foulkes estimate   =    -702.84251101 Ry
     estimated scf accuracy    <       3.12997260 Ry

     iteration #  7     ecut=    50.00 Ry     beta= 0.60
     Davidson diagonalization with overlap
     ethr =  4.23E-03,  avg # of iterations =  2.9

     total cpu time spent up to now is     1203.8 secs

     total energy              =    -702.82506074 Ry
     Harris-Foulkes estimate   =    -702.64501721 Ry
     estimated scf accuracy    <       2.13550573 Ry

     iteration #  8     ecut=    50.00 Ry     beta= 0.60
     Davidson diagonalization with overlap
     ethr =  2.89E-03,  avg # of iterations =  1.1

     total cpu time spent up to now is     1223.5 secs

     total energy              =    -702.57547703 Ry
     Harris-Foulkes estimate   =    -702.90815573 Ry
     estimated scf accuracy    <       3.78571019 Ry

     iteration #  9     ecut=    50.00 Ry     beta= 0.60
     Davidson diagonalization with overlap
     ethr =  2.89E-03,  avg # of iterations =  1.1

     total cpu time spent up to now is     1243.1 secs

     total energy              =    -702.53543644 Ry
     Harris-Foulkes estimate   =    -702.61498904 Ry
     estimated scf accuracy    <       2.43978382 Ry

     iteration # 10     ecut=    50.00 Ry     beta= 0.60
     Davidson diagonalization with overlap
     ethr =  2.89E-03,  avg # of iterations =  1.0

     total cpu time spent up to now is     1262.6 secs

     total energy              =    -701.74562533 Ry
     Harris-Foulkes estimate   =    -702.55796594 Ry
     estimated scf accuracy    <       1.97451194 Ry

     iteration # 11     ecut=    50.00 Ry     beta= 0.60
     Davidson diagonalization with overlap
