
     Program PWSCF v.6.3MaX starts on 13Jan2020 at 13:40:17 

     This program is part of the open-source Quantum ESPRESSO suite
     for quantum simulation of materials; please cite
         "P. Giannozzi et al., J. Phys.:Condens. Matter 21 395502 (2009);
         "P. Giannozzi et al., J. Phys.:Condens. Matter 29 465901 (2017);
          URL http://www.quantum-espresso.org", 
     in publications or presentations arising from this work. More details at
     http://www.quantum-espresso.org/quote

     Parallel version (MPI), running on     1 processors

     MPI processes distributed on     1 nodes
     Waiting for input...
     Reading input from standard input

     Current dimensions of program PWSCF are:
     Max number of different atomic species (ntypx) = 10
     Max number of k-points (npk) =  40000
     Max angular momentum in pseudopotentials (lmaxx) =  3
     Message from routine iosys:
     minimal I/O required, wf_collect reset to FALSE

     Subspace diagonalization in iterative solution of the eigenvalue problem:
     a serial algorithm will be used

 
     G-vector sticks info
     --------------------
     sticks:   dense  smooth     PW     G-vecs:    dense   smooth      PW
     Sum        1247     487    165                55493    13993    2561
 


     bravais-lattice index     =            0
     lattice parameter (alat)  =       1.8897  a.u.
     unit-cell volume          =     293.3367 (a.u.)^3
     number of atoms/cell      =            2
     number of atomic types    =            2
     number of electrons       =        25.00
     number of Kohn-Sham states=           17
     kinetic-energy cutoff     =      50.0000  Ry
     charge density cutoff     =     500.0000  Ry
     convergence threshold     =      1.0E-10
     mixing beta               =       0.6000
     number of iterations used =            8  plain     mixing
     Exchange-correlation      = SLA PW PBE PBE ( 1  4  3  4 0 0)
     nstep                     =           50


     celldm(1)=   1.889726  celldm(2)=   0.000000  celldm(3)=   0.000000
     celldm(4)=   0.000000  celldm(5)=   0.000000  celldm(6)=   0.000000

     crystal axes: (cart. coord. in units of alat)
               a(1) = (  -1.758031   1.758031  -1.758031 )  
               a(2) = (  -1.758031  -1.758031   1.758031 )  
               a(3) = (   0.000000   3.516063   3.516063 )  

     reciprocal axes: (cart. coord. in units 2 pi/alat)
               b(1) = ( -0.284409  0.142205 -0.142205 )  
               b(2) = ( -0.284409 -0.142205  0.142205 )  
               b(3) = (  0.000000  0.142205  0.142205 )  


     PseudoPot. # 1 for Nb read from file:
     /home/u16/abhishekkt/fp/krishna/calculations/pseudopotentials/Nb.pbe-nsp-van.UPF
     MD5 check sum: c44c1a86bf31974e1e832c2ec821fd5f
     Pseudo is Ultrasoft + core correction, Zval = 13.0
     Generated by new atomic code, or converted to UPF format
     Using radial grid of  887 points,  6 beta functions with: 
                l(1) =   0
                l(2) =   0
                l(3) =   1
                l(4) =   1
                l(5) =   2
                l(6) =   2
     Q(r) pseudized with  6 coefficients,  rinner =    1.000   1.000   1.000
                                                       1.000   1.000

     PseudoPot. # 2 for Ti read from file:
     /home/u16/abhishekkt/fp/krishna/calculations/pseudopotentials/Ti.pbe-sp-van_ak.UPF
     MD5 check sum: 84d3ec9e8983e94242673103c800fb48
     Pseudo is Ultrasoft, Zval = 12.0
     Generated by new atomic code, or converted to UPF format
     Using radial grid of  851 points,  6 beta functions with: 
                l(1) =   0
                l(2) =   0
                l(3) =   1
                l(4) =   1
                l(5) =   2
                l(6) =   2
     Q(r) pseudized with  8 coefficients,  rinner =    1.000   1.000   1.000
                                                       1.000   1.000

     atomic species   valence    mass     pseudopotential
        Nb            13.00    92.90638     Nb( 1.00)
        Ti            12.00    47.86700     Ti( 1.00)

      8 Sym. Ops., with inversion, found



   Cartesian axes

     site n.     atom                  positions (alat units)
         1           Ti  tau(   1) = (  -1.7580316   1.7580316   1.7580316  )
         2           Nb  tau(   2) = (  -3.5160633   3.5160633   3.5160633  )

     number of k points=   700  Marzari-Vanderbilt smearing, width (Ry)=  0.0200

     Number of k-points >= 100: set verbosity='high' to print them.

     Dense  grid:    55493 G-vectors     FFT dimensions: (  45,  45,  72)

     Smooth grid:    13993 G-vectors     FFT dimensions: (  25,  25,  45)

     Estimated max dynamical RAM per process >     526.19 MB

     Initial potential from superposition of free atoms

     starting charge   23.99722, renormalised to   25.00000
     Starting wfcs are   23 randomized atomic wfcs

     total cpu time spent up to now is       19.5 secs

     Self-consistent Calculation

     iteration #  1     ecut=    50.00 Ry     beta= 0.60
     Davidson diagonalization with overlap
     ethr =  1.00E-02,  avg # of iterations =  3.0

     total cpu time spent up to now is       61.0 secs

     total energy              =    -228.93495209 Ry
     Harris-Foulkes estimate   =    -235.60715974 Ry
     estimated scf accuracy    <       8.41087705 Ry

     iteration #  2     ecut=    50.00 Ry     beta= 0.60
     Davidson diagonalization with overlap
     ethr =  1.00E-02,  avg # of iterations =  5.3

     total cpu time spent up to now is      121.7 secs

     total energy              =    -234.09176470 Ry
     Harris-Foulkes estimate   =    -243.78751968 Ry
     estimated scf accuracy    <      26.60611513 Ry

     iteration #  3     ecut=    50.00 Ry     beta= 0.60
     Davidson diagonalization with overlap
     ethr =  1.00E-02,  avg # of iterations =  3.9

     total cpu time spent up to now is      165.6 secs

     total energy              =    -235.12548879 Ry
     Harris-Foulkes estimate   =    -235.61855302 Ry
     estimated scf accuracy    <       5.52229284 Ry

     iteration #  4     ecut=    50.00 Ry     beta= 0.60
     Davidson diagonalization with overlap
     ethr =  1.00E-02,  avg # of iterations =  1.1

     total cpu time spent up to now is      196.8 secs

     total energy              =    -234.76348717 Ry
     Harris-Foulkes estimate   =    -235.15230200 Ry
     estimated scf accuracy    <       4.09007192 Ry

     iteration #  5     ecut=    50.00 Ry     beta= 0.60
     Davidson diagonalization with overlap
     ethr =  1.00E-02,  avg # of iterations =  1.2

     total cpu time spent up to now is      227.7 secs

     total energy              =    -234.33026366 Ry
     Harris-Foulkes estimate   =    -234.79893166 Ry
     estimated scf accuracy    <       2.59976025 Ry

     iteration #  6     ecut=    50.00 Ry     beta= 0.60
     Davidson diagonalization with overlap
     ethr =  1.00E-02,  avg # of iterations =  2.3

     total cpu time spent up to now is      260.8 secs

     total energy              =    -234.46593324 Ry
     Harris-Foulkes estimate   =    -234.48643796 Ry
     estimated scf accuracy    <       0.14971625 Ry

     iteration #  7     ecut=    50.00 Ry     beta= 0.60
     Davidson diagonalization with overlap
     ethr =  5.99E-04,  avg # of iterations =  5.1

     total cpu time spent up to now is      311.7 secs

     total energy              =    -234.50975066 Ry
     Harris-Foulkes estimate   =    -234.54683001 Ry
     estimated scf accuracy    <       0.20118435 Ry

     iteration #  8     ecut=    50.00 Ry     beta= 0.60
     Davidson diagonalization with overlap
     ethr =  5.99E-04,  avg # of iterations =  1.6

     total cpu time spent up to now is      343.4 secs

     total energy              =    -234.52878381 Ry
     Harris-Foulkes estimate   =    -234.53921614 Ry
     estimated scf accuracy    <       0.06276483 Ry

     iteration #  9     ecut=    50.00 Ry     beta= 0.60
     Davidson diagonalization with overlap
     ethr =  2.51E-04,  avg # of iterations =  1.4

     total cpu time spent up to now is      374.7 secs

     total energy              =    -234.53438174 Ry
     Harris-Foulkes estimate   =    -234.53555926 Ry
     estimated scf accuracy    <       0.00279558 Ry

     iteration # 10     ecut=    50.00 Ry     beta= 0.60
     Davidson diagonalization with overlap
     ethr =  1.12E-05,  avg # of iterations =  5.1

     total cpu time spent up to now is      424.6 secs

     total energy              =    -234.52906182 Ry
     Harris-Foulkes estimate   =    -234.53815239 Ry
     estimated scf accuracy    <       0.03585469 Ry

     iteration # 11     ecut=    50.00 Ry     beta= 0.60
     Davidson diagonalization with overlap
     ethr =  1.12E-05,  avg # of iterations =  4.9

     total cpu time spent up to now is      478.8 secs

     total energy              =    -234.53394796 Ry
     Harris-Foulkes estimate   =    -234.54031662 Ry
     estimated scf accuracy    <       0.07751077 Ry

     iteration # 12     ecut=    50.00 Ry     beta= 0.60
     Davidson diagonalization with overlap
     ethr =  1.12E-05,  avg # of iterations =  4.6

     total cpu time spent up to now is      519.4 secs

     total energy              =    -234.53556537 Ry
     Harris-Foulkes estimate   =    -234.53622665 Ry
     estimated scf accuracy    <       0.00515216 Ry

     iteration # 13     ecut=    50.00 Ry     beta= 0.60
     Davidson diagonalization with overlap
     ethr =  1.12E-05,  avg # of iterations =  1.7

     total cpu time spent up to now is      551.6 secs

     total energy              =    -234.53589844 Ry
     Harris-Foulkes estimate   =    -234.53589939 Ry
     estimated scf accuracy    <       0.00001203 Ry

     iteration # 14     ecut=    50.00 Ry     beta= 0.60
     Davidson diagonalization with overlap
     ethr =  4.81E-08,  avg # of iterations =  5.1

     total cpu time spent up to now is      605.2 secs

     total energy              =    -234.53592441 Ry
     Harris-Foulkes estimate   =    -234.53598459 Ry
     estimated scf accuracy    <       0.00058009 Ry

     iteration # 15     ecut=    50.00 Ry     beta= 0.60
     Davidson diagonalization with overlap
     ethr =  4.81E-08,  avg # of iterations =  4.3

     total cpu time spent up to now is      650.9 secs

     total energy              =    -234.53594479 Ry
     Harris-Foulkes estimate   =    -234.53594706 Ry
     estimated scf accuracy    <       0.00002079 Ry

     iteration # 16     ecut=    50.00 Ry     beta= 0.60
     Davidson diagonalization with overlap
     ethr =  4.81E-08,  avg # of iterations =  1.0

     total cpu time spent up to now is      682.2 secs

     total energy              =    -234.53594561 Ry
     Harris-Foulkes estimate   =    -234.53594568 Ry
     estimated scf accuracy    <       0.00000066 Ry

     iteration # 17     ecut=    50.00 Ry     beta= 0.60
     Davidson diagonalization with overlap
     ethr =  2.65E-09,  avg # of iterations =  4.3

     total cpu time spent up to now is      723.3 secs

     total energy              =    -234.53594583 Ry
     Harris-Foulkes estimate   =    -234.53594583 Ry
     estimated scf accuracy    <       0.00000006 Ry

     iteration # 18     ecut=    50.00 Ry     beta= 0.60
     Davidson diagonalization with overlap
     ethr =  2.31E-10,  avg # of iterations =  1.8

     total cpu time spent up to now is      756.2 secs

     total energy              =    -234.53594583 Ry
     Harris-Foulkes estimate   =    -234.53594583 Ry
     estimated scf accuracy    <       0.00000005 Ry

     iteration # 19     ecut=    50.00 Ry     beta= 0.60
     Davidson diagonalization with overlap
     ethr =  1.84E-10,  avg # of iterations =  1.3

     total cpu time spent up to now is      787.9 secs

     total energy              =    -234.53594583 Ry
     Harris-Foulkes estimate   =    -234.53594583 Ry
     estimated scf accuracy    <          2.7E-09 Ry

     iteration # 20     ecut=    50.00 Ry     beta= 0.60
     Davidson diagonalization with overlap
     ethr =  1.06E-11,  avg # of iterations =  4.1

     total cpu time spent up to now is      827.4 secs

     End of self-consistent calculation

     Number of k-points >= 100: set verbosity='high' to print the bands.

     the Fermi energy is    12.1671 ev

!    total energy              =    -234.53594583 Ry
     Harris-Foulkes estimate   =    -234.53594583 Ry
     estimated scf accuracy    <          4.3E-11 Ry

     The total energy is the sum of the following terms:

     one-electron contribution =     -75.42100259 Ry
     hartree contribution      =      44.77911293 Ry
     xc contribution           =     -32.62205652 Ry
     ewald contribution        =    -171.27225879 Ry
     smearing contrib. (-TS)   =       0.00025914 Ry

     convergence has been achieved in  20 iterations

     Forces acting on atoms (cartesian axes, Ry/au):

     atom    1 type  2   force =     0.00000000    0.00000000    0.00000000
     atom    2 type  1   force =     0.00000000    0.00000000    0.00000000

     Total force =     0.000000     Total SCF correction =     0.000000


     Computing stress (Cartesian axis) and pressure

          total   stress  (Ry/bohr**3)                   (kbar)     P= -200.28
  -0.00135464   0.00000000   0.00000000       -199.27      0.00      0.00
   0.00000000  -0.00136488   0.00003972          0.00   -200.78      5.84
   0.00000000   0.00003972  -0.00136488          0.00      5.84   -200.78


     BFGS Geometry Optimization

     number of scf cycles    =   1
     number of bfgs steps    =   0

     enthalpy new            =    -234.5359458309 Ry

     new trust radius        =       0.1169318906 bohr
     new conv_thr            =            1.0E-10 Ry

     new unit-cell volume =    264.39170 a.u.^3 (    39.17881 Ang^3 )
     density =      5.96648 g/cm^3

CELL_PARAMETERS (alat=  1.88972599)
  -1.698494077   1.696298018  -1.696298018
  -1.698494077  -1.696298018   1.696298018
   0.000000000   3.399578958   3.399578958

ATOMIC_POSITIONS (angstrom)
Ti      -1.698494077   1.699789479   1.699789479
Nb      -3.396988154   3.399578958   3.399578958


     NEW-OLD atomic charge density approx. for the potential
     extrapolated charge   22.37284, renormalised to   25.00000

     total cpu time spent up to now is      851.0 secs

     Self-consistent Calculation

     iteration #  1     ecut=    50.00 Ry     beta= 0.60
     Davidson diagonalization with overlap
     c_bands:  1 eigenvalues not converged
     c_bands:  1 eigenvalues not converged
     c_bands:  1 eigenvalues not converged
     c_bands:  1 eigenvalues not converged
     ethr =  1.00E-06,  avg # of iterations = 10.7

     total cpu time spent up to now is      948.5 secs

     total energy              =    -221.14117165 Ry
     Harris-Foulkes estimate   =    -240.21851732 Ry
     estimated scf accuracy    <      15.08640233 Ry

     iteration #  2     ecut=    50.00 Ry     beta= 0.60
     Davidson diagonalization with overlap
     ethr =  1.00E-02,  avg # of iterations =  5.6

     total cpu time spent up to now is     1009.3 secs

     total energy              =    -225.66242988 Ry
     Harris-Foulkes estimate   =    -254.54693143 Ry
     estimated scf accuracy    <     100.51900548 Ry

     iteration #  3     ecut=    50.00 Ry     beta= 0.60
     Davidson diagonalization with overlap
     ethr =  1.00E-02,  avg # of iterations =  3.8

     total cpu time spent up to now is     1058.6 secs

     total energy              =    -235.42685918 Ry
     Harris-Foulkes estimate   =    -236.75092203 Ry
     estimated scf accuracy    <       6.78495024 Ry

     iteration #  4     ecut=    50.00 Ry     beta= 0.60
     Davidson diagonalization with overlap
     ethr =  1.00E-02,  avg # of iterations =  1.1

     total cpu time spent up to now is     1089.7 secs

     total energy              =    -234.53422836 Ry
     Harris-Foulkes estimate   =    -235.51021905 Ry
     estimated scf accuracy    <       4.33626541 Ry

     iteration #  5     ecut=    50.00 Ry     beta= 0.60
     Davidson diagonalization with overlap
     ethr =  1.00E-02,  avg # of iterations =  2.2

     total cpu time spent up to now is     1123.8 secs

     total energy              =    -234.97449851 Ry
     Harris-Foulkes estimate   =    -234.74027910 Ry
     estimated scf accuracy    <       0.91235436 Ry

     iteration #  6     ecut=    50.00 Ry     beta= 0.60
     Davidson diagonalization with overlap
     ethr =  3.65E-03,  avg # of iterations =  1.5

     total cpu time spent up to now is     1156.1 secs

     total energy              =    -234.86627604 Ry
     Harris-Foulkes estimate   =    -235.06337342 Ry
     estimated scf accuracy    <       2.54410620 Ry

     iteration #  7     ecut=    50.00 Ry     beta= 0.60
     Davidson diagonalization with overlap
     ethr =  3.65E-03,  avg # of iterations =  1.0

     total cpu time spent up to now is     1187.3 secs

     total energy              =    -234.82793467 Ry
     Harris-Foulkes estimate   =    -234.87678834 Ry
     estimated scf accuracy    <       1.85663851 Ry

     iteration #  8     ecut=    50.00 Ry     beta= 0.60
     Davidson diagonalization with overlap
     ethr =  3.65E-03,  avg # of iterations =  1.0

     total cpu time spent up to now is     1218.3 secs

     total energy              =    -234.61570003 Ry
     Harris-Foulkes estimate   =    -234.83039307 Ry
     estimated scf accuracy    <       1.65042794 Ry

     iteration #  9     ecut=    50.00 Ry     beta= 0.60
     Davidson diagonalization with overlap
     ethr =  3.65E-03,  avg # of iterations =  1.0

     total cpu time spent up to now is     1249.6 secs

     total energy              =    -234.62878581 Ry
     Harris-Foulkes estimate   =    -234.64003654 Ry
     estimated scf accuracy    <       0.71271164 Ry

     iteration # 10     ecut=    50.00 Ry     beta= 0.60
     Davidson diagonalization with overlap
     ethr =  2.85E-03,  avg # of iterations =  1.0

     total cpu time spent up to now is     1281.1 secs

     total energy              =    -234.34935005 Ry
     Harris-Foulkes estimate   =    -234.63301254 Ry
     estimated scf accuracy    <       0.64332981 Ry

     iteration # 11     ecut=    50.00 Ry     beta= 0.60
     Davidson diagonalization with overlap
     ethr =  2.57E-03,  avg # of iterations =  4.5

     total cpu time spent up to now is     1329.4 secs

     total energy              =    -234.68082714 Ry
     Harris-Foulkes estimate   =    -234.80203654 Ry
     estimated scf accuracy    <       3.97001581 Ry

     iteration # 12     ecut=    50.00 Ry     beta= 0.60
     Davidson diagonalization with overlap
     ethr =  2.57E-03,  avg # of iterations =  1.0

     total cpu time spent up to now is     1360.9 secs

     total energy              =    -234.78740065 Ry
     Harris-Foulkes estimate   =    -234.69427474 Ry
     estimated scf accuracy    <       2.35579822 Ry

     iteration # 13     ecut=    50.00 Ry     beta= 0.60
     Davidson diagonalization with overlap
     ethr =  2.57E-03,  avg # of iterations =  1.0

     total cpu time spent up to now is     1392.2 secs

     total energy              =    -235.13145964 Ry
     Harris-Foulkes estimate   =    -234.80039060 Ry
     estimated scf accuracy    <       3.85196831 Ry

     iteration # 14     ecut=    50.00 Ry     beta= 0.60
     Davidson diagonalization with overlap
     ethr =  2.57E-03,  avg # of iterations =  2.2

     total cpu time spent up to now is     1424.8 secs

     total energy              =    -235.09771722 Ry
     Harris-Foulkes estimate   =    -235.23116410 Ry
     estimated scf accuracy    <      10.05818723 Ry

     iteration # 15     ecut=    50.00 Ry     beta= 0.60
     Davidson diagonalization with overlap
     ethr =  2.57E-03,  avg # of iterations =  1.0

     total cpu time spent up to now is     1455.9 secs

     total energy              =    -234.67979359 Ry
     Harris-Foulkes estimate   =    -235.10825051 Ry
     estimated scf accuracy    <       8.55819089 Ry

     iteration # 16     ecut=    50.00 Ry     beta= 0.60
     Davidson diagonalization with overlap
     ethr =  2.57E-03,  avg # of iterations =  1.3

     total cpu time spent up to now is     1487.6 secs

     total energy              =    -234.27791460 Ry
     Harris-Foulkes estimate   =    -234.75214266 Ry
     estimated scf accuracy    <       3.41931181 Ry

     iteration # 17     ecut=    50.00 Ry     beta= 0.60
     Davidson diagonalization with overlap
     ethr =  2.57E-03,  avg # of iterations =  3.7

     total cpu time spent up to now is     1523.2 secs

     total energy              =    -234.56383295 Ry
     Harris-Foulkes estimate   =    -234.57283017 Ry
     estimated scf accuracy    <       0.06830980 Ry

     iteration # 18     ecut=    50.00 Ry     beta= 0.60
     Davidson diagonalization with overlap
     ethr =  2.73E-04,  avg # of iterations =  4.0

     total cpu time spent up to now is     1562.4 secs

     total energy              =    -234.56962100 Ry
     Harris-Foulkes estimate   =    -234.56951753 Ry
     estimated scf accuracy    <       0.01650490 Ry

     iteration # 19     ecut=    50.00 Ry     beta= 0.60
     Davidson diagonalization with overlap
     ethr =  6.60E-05,  avg # of iterations =  2.2

     total cpu time spent up to now is     1595.6 secs

     total energy              =    -234.56798732 Ry
     Harris-Foulkes estimate   =    -234.56998662 Ry
     estimated scf accuracy    <       0.01626772 Ry

     iteration # 20     ecut=    50.00 Ry     beta= 0.60
     Davidson diagonalization with overlap
     ethr =  6.51E-05,  avg # of iterations =  2.1

     total cpu time spent up to now is     1628.0 secs

     total energy              =    -234.56884416 Ry
     Harris-Foulkes estimate   =    -234.56882323 Ry
     estimated scf accuracy    <       0.00474970 Ry

     iteration # 21     ecut=    50.00 Ry     beta= 0.60
     Davidson diagonalization with overlap
     ethr =  1.90E-05,  avg # of iterations =  3.4

     total cpu time spent up to now is     1665.2 secs

     total energy              =    -234.56974344 Ry
     Harris-Foulkes estimate   =    -234.56949934 Ry
     estimated scf accuracy    <       0.00337220 Ry

     iteration # 22     ecut=    50.00 Ry     beta= 0.60
     Davidson diagonalization with overlap
     ethr =  1.35E-05,  avg # of iterations =  1.2

     total cpu time spent up to now is     1696.5 secs

     total energy              =    -234.56825750 Ry
     Harris-Foulkes estimate   =    -234.56978806 Ry
     estimated scf accuracy    <       0.00390151 Ry

     iteration # 23     ecut=    50.00 Ry     beta= 0.60
     Davidson diagonalization with overlap
     ethr =  1.35E-05,  avg # of iterations =  3.2

     total cpu time spent up to now is     1737.6 secs

     total energy              =    -234.56864482 Ry
     Harris-Foulkes estimate   =    -234.56921853 Ry
     estimated scf accuracy    <       0.00696802 Ry

     iteration # 24     ecut=    50.00 Ry     beta= 0.60
     Davidson diagonalization with overlap
     ethr =  1.35E-05,  avg # of iterations =  2.6

     total cpu time spent up to now is     1772.0 secs

     total energy              =    -234.56846697 Ry
     Harris-Foulkes estimate   =    -234.56896881 Ry
     estimated scf accuracy    <       0.00242329 Ry

     iteration # 25     ecut=    50.00 Ry     beta= 0.60
     Davidson diagonalization with overlap
     ethr =  9.69E-06,  avg # of iterations =  1.6

     total cpu time spent up to now is     1804.0 secs

     total energy              =    -234.56868537 Ry
     Harris-Foulkes estimate   =    -234.56866980 Ry
     estimated scf accuracy    <       0.00010318 Ry

     iteration # 26     ecut=    50.00 Ry     beta= 0.60
     Davidson diagonalization with overlap
     ethr =  4.13E-07,  avg # of iterations =  4.7

     total cpu time spent up to now is     1848.9 secs

     total energy              =    -234.56869820 Ry
     Harris-Foulkes estimate   =    -234.56874155 Ry
     estimated scf accuracy    <       0.00070036 Ry

     iteration # 27     ecut=    50.00 Ry     beta= 0.60
     Davidson diagonalization with overlap
     ethr =  4.13E-07,  avg # of iterations =  1.0

     total cpu time spent up to now is     1880.2 secs

     total energy              =    -234.56869156 Ry
     Harris-Foulkes estimate   =    -234.56870328 Ry
     estimated scf accuracy    <       0.00037294 Ry

     iteration # 28     ecut=    50.00 Ry     beta= 0.60
     Davidson diagonalization with overlap
     ethr =  4.13E-07,  avg # of iterations =  1.1

     total cpu time spent up to now is     1911.7 secs

     total energy              =    -234.56865073 Ry
     Harris-Foulkes estimate   =    -234.56869431 Ry
     estimated scf accuracy    <       0.00024916 Ry

     iteration # 29     ecut=    50.00 Ry     beta= 0.60
     Davidson diagonalization with overlap
     ethr =  4.13E-07,  avg # of iterations =  3.4

     total cpu time spent up to now is     1948.7 secs

     total energy              =    -234.56866534 Ry
     Harris-Foulkes estimate   =    -234.56866841 Ry
     estimated scf accuracy    <       0.00000941 Ry

     iteration # 30     ecut=    50.00 Ry     beta= 0.60
     Davidson diagonalization with overlap
     ethr =  3.76E-08,  avg # of iterations =  3.2

     total cpu time spent up to now is     1987.6 secs

     total energy              =    -234.56866729 Ry
     Harris-Foulkes estimate   =    -234.56866733 Ry
     estimated scf accuracy    <       0.00000047 Ry

     iteration # 31     ecut=    50.00 Ry     beta= 0.60
     Davidson diagonalization with overlap
     ethr =  1.86E-09,  avg # of iterations =  3.7

     total cpu time spent up to now is     2025.2 secs

     total energy              =    -234.56866736 Ry
     Harris-Foulkes estimate   =    -234.56866737 Ry
     estimated scf accuracy    <       0.00000005 Ry

     iteration # 32     ecut=    50.00 Ry     beta= 0.60
     Davidson diagonalization with overlap
     ethr =  1.90E-10,  avg # of iterations =  3.3

     total cpu time spent up to now is     2062.0 secs

     total energy              =    -234.56866737 Ry
     Harris-Foulkes estimate   =    -234.56866737 Ry
     estimated scf accuracy    <          3.3E-09 Ry

     iteration # 33     ecut=    50.00 Ry     beta= 0.60
     Davidson diagonalization with overlap
     ethr =  1.32E-11,  avg # of iterations =  3.7

     total cpu time spent up to now is     2099.9 secs

     End of self-consistent calculation

     Number of k-points >= 100: set verbosity='high' to print the bands.

     the Fermi energy is    13.8126 ev

!    total energy              =    -234.56866737 Ry
     Harris-Foulkes estimate   =    -234.56866737 Ry
     estimated scf accuracy    <          3.0E-11 Ry

     The total energy is the sum of the following terms:

     one-electron contribution =     -66.51460443 Ry
     hartree contribution      =      42.03839195 Ry
     xc contribution           =     -32.78576887 Ry
     ewald contribution        =    -177.30691769 Ry
     smearing contrib. (-TS)   =       0.00023167 Ry

     convergence has been achieved in  33 iterations

     Forces acting on atoms (cartesian axes, Ry/au):

     atom    1 type  2   force =     0.00000000    0.00000000    0.00000000
     atom    2 type  1   force =     0.00000000    0.00000000    0.00000000

     Total force =     0.000000     Total SCF correction =     0.000000


     Computing stress (Cartesian axis) and pressure

          total   stress  (Ry/bohr**3)                   (kbar)     P= -124.83
  -0.00085278   0.00000000   0.00000000       -125.45      0.00      0.00
  -0.00000000  -0.00084647   0.00002614         -0.00   -124.52      3.85
   0.00000000   0.00002614  -0.00084647          0.00      3.85   -124.52


     number of scf cycles    =   2
     number of bfgs steps    =   1

     enthalpy old            =    -234.5359458309 Ry
     enthalpy new            =    -234.5686673661 Ry

     CASE: enthalpy_new < enthalpy_old

     new trust radius        =       0.1600199491 bohr
     new conv_thr            =            1.0E-12 Ry

     new unit-cell volume =    227.41091 a.u.^3 (    33.69882 Ang^3 )
     density =      6.93673 g/cm^3

CELL_PARAMETERS (alat=  1.88972599)
  -1.614917561   1.610666897  -1.610666897
  -1.614917561  -1.610666897   1.610666897
   0.000000000   3.238908690   3.238908690

ATOMIC_POSITIONS (angstrom)
Ti      -1.614917561   1.619454345   1.619454345
Nb      -3.229835122   3.238908690   3.238908690


     NEW-OLD atomic charge density approx. for the potential
     extrapolated charge   21.09765, renormalised to   25.00000

     total cpu time spent up to now is     2123.4 secs

     Self-consistent Calculation

     iteration #  1     ecut=    50.00 Ry     beta= 0.60
     Davidson diagonalization with overlap
     c_bands:  1 eigenvalues not converged
     ethr =  1.00E-06,  avg # of iterations = 10.4

     total cpu time spent up to now is     2219.9 secs

     total energy              =    -211.87291983 Ry
     Harris-Foulkes estimate   =    -242.04193622 Ry
     estimated scf accuracy    <      25.44996786 Ry

     iteration #  2     ecut=    50.00 Ry     beta= 0.60
     Davidson diagonalization with overlap
     ethr =  1.00E-02,  avg # of iterations =  5.8

     total cpu time spent up to now is     2281.3 secs

     total energy              =    -226.21133862 Ry
     Harris-Foulkes estimate   =    -267.29637207 Ry
     estimated scf accuracy    <     131.80137308 Ry

     iteration #  3     ecut=    50.00 Ry     beta= 0.60
     Davidson diagonalization with overlap
     ethr =  1.00E-02,  avg # of iterations =  4.4

     total cpu time spent up to now is     2335.9 secs

     total energy              =    -235.93584484 Ry
     Harris-Foulkes estimate   =    -238.19404815 Ry
     estimated scf accuracy    <      10.37929354 Ry

     iteration #  4     ecut=    50.00 Ry     beta= 0.60
     Davidson diagonalization with overlap
     ethr =  1.00E-02,  avg # of iterations =  1.9

     total cpu time spent up to now is     2368.1 secs

     total energy              =    -234.56317924 Ry
     Harris-Foulkes estimate   =    -236.09457893 Ry
     estimated scf accuracy    <       6.07350422 Ry

     iteration #  5     ecut=    50.00 Ry     beta= 0.60
     Davidson diagonalization with overlap
     ethr =  1.00E-02,  avg # of iterations =  2.3

     total cpu time spent up to now is     2403.7 secs

     total energy              =    -235.25522646 Ry
     Harris-Foulkes estimate   =    -234.86851139 Ry
     estimated scf accuracy    <       1.28389621 Ry

     iteration #  6     ecut=    50.00 Ry     beta= 0.60
     Davidson diagonalization with overlap
     ethr =  5.14E-03,  avg # of iterations =  1.3

     total cpu time spent up to now is     2434.7 secs

     total energy              =    -235.01760116 Ry
     Harris-Foulkes estimate   =    -235.37805087 Ry
     estimated scf accuracy    <       3.52581482 Ry

     iteration #  7     ecut=    50.00 Ry     beta= 0.60
     Davidson diagonalization with overlap
     ethr =  5.14E-03,  avg # of iterations =  1.0

     total cpu time spent up to now is     2465.6 secs

     total energy              =    -234.79726954 Ry
     Harris-Foulkes estimate   =    -235.03764161 Ry
     estimated scf accuracy    <       2.44435130 Ry

     iteration #  8     ecut=    50.00 Ry     beta= 0.60
     Davidson diagonalization with overlap
     ethr =  5.14E-03,  avg # of iterations =  1.0

     total cpu time spent up to now is     2496.2 secs

     total energy              =    -234.67956420 Ry
     Harris-Foulkes estimate   =    -234.81572811 Ry
     estimated scf accuracy    <       1.52399510 Ry

     iteration #  9     ecut=    50.00 Ry     beta= 0.60
     Davidson diagonalization with overlap
     ethr =  5.14E-03,  avg # of iterations =  1.0

     total cpu time spent up to now is     2526.9 secs

     total energy              =    -234.60741919 Ry
     Harris-Foulkes estimate   =    -234.69630690 Ry
     estimated scf accuracy    <       0.85028876 Ry

     iteration # 10     ecut=    50.00 Ry     beta= 0.60
     Davidson diagonalization with overlap
     ethr =  3.40E-03,  avg # of iterations =  1.1

     total cpu time spent up to now is     2557.8 secs

     total energy              =    -234.40953733 Ry
     Harris-Foulkes estimate   =    -234.62127449 Ry
     estimated scf accuracy    <       0.37171258 Ry

     iteration # 11     ecut=    50.00 Ry     beta= 0.60
     Davidson diagonalization with overlap
     ethr =  1.49E-03,  avg # of iterations =  4.1

     total cpu time spent up to now is     2607.0 secs

     total energy              =    -234.70867873 Ry
     Harris-Foulkes estimate   =    -234.83498732 Ry
     estimated scf accuracy    <       3.65433908 Ry

     iteration # 12     ecut=    50.00 Ry     beta= 0.60
     Davidson diagonalization with overlap
     ethr =  1.49E-03,  avg # of iterations =  1.0

     total cpu time spent up to now is     2637.9 secs

     total energy              =    -234.67754190 Ry
     Harris-Foulkes estimate   =    -234.72205834 Ry
     estimated scf accuracy    <       2.19072177 Ry

     iteration # 13     ecut=    50.00 Ry     beta= 0.60
     Davidson diagonalization with overlap
     ethr =  1.49E-03,  avg # of iterations =  1.0

     total cpu time spent up to now is     2668.8 secs

     total energy              =    -234.69097216 Ry
     Harris-Foulkes estimate   =    -234.68200528 Ry
     estimated scf accuracy    <       1.57718536 Ry

     iteration # 14     ecut=    50.00 Ry     beta= 0.60
     Davidson diagonalization with overlap
     ethr =  1.49E-03,  avg # of iterations =  1.0

     total cpu time spent up to now is     2699.2 secs

     total energy              =    -234.79392159 Ry
     Harris-Foulkes estimate   =    -234.69208811 Ry
     estimated scf accuracy    <       1.63995353 Ry

     iteration # 15     ecut=    50.00 Ry     beta= 0.60
     Davidson diagonalization with overlap
     ethr =  1.49E-03,  avg # of iterations =  1.0

     total cpu time spent up to now is     2730.1 secs

     total energy              =    -234.90274385 Ry
     Harris-Foulkes estimate   =    -234.81193356 Ry
     estimated scf accuracy    <       3.18906232 Ry

     iteration # 16     ecut=    50.00 Ry     beta= 0.60
     Davidson diagonalization with overlap
     ethr =  1.49E-03,  avg # of iterations =  1.0

     total cpu time spent up to now is     2760.9 secs

     total energy              =    -234.39269386 Ry
     Harris-Foulkes estimate   =    -234.91331936 Ry
     estimated scf accuracy    <       4.60107371 Ry

     iteration # 17     ecut=    50.00 Ry     beta= 0.60
     Davidson diagonalization with overlap
     ethr =  1.49E-03,  avg # of iterations =  3.3

     total cpu time spent up to now is     2797.4 secs

     total energy              =    -234.59950307 Ry
     Harris-Foulkes estimate   =    -234.59610359 Ry
     estimated scf accuracy    <       0.26826994 Ry

     iteration # 18     ecut=    50.00 Ry     beta= 0.60
     Davidson diagonalization with overlap
     ethr =  1.07E-03,  avg # of iterations =  1.1

     total cpu time spent up to now is     2828.7 secs

     total energy              =    -234.55277164 Ry
     Harris-Foulkes estimate   =    -234.60166528 Ry
     estimated scf accuracy    <       0.31446190 Ry

     iteration # 19     ecut=    50.00 Ry     beta= 0.60
     Davidson diagonalization with overlap
     ethr =  1.07E-03,  avg # of iterations =  1.3

     total cpu time spent up to now is     2860.0 secs

     total energy              =    -234.58159224 Ry
     Harris-Foulkes estimate   =    -234.58109336 Ry
     estimated scf accuracy    <       0.01239612 Ry

     iteration # 20     ecut=    50.00 Ry     beta= 0.60
     Davidson diagonalization with overlap
     ethr =  4.96E-05,  avg # of iterations =  5.0

     total cpu time spent up to now is     2907.7 secs

     total energy              =    -234.58359042 Ry
     Harris-Foulkes estimate   =    -234.58592948 Ry
     estimated scf accuracy    <       0.01816149 Ry

     iteration # 21     ecut=    50.00 Ry     beta= 0.60
     Davidson diagonalization with overlap
     ethr =  4.96E-05,  avg # of iterations =  1.0

     total cpu time spent up to now is     2938.6 secs

     total energy              =    -234.58240902 Ry
     Harris-Foulkes estimate   =    -234.58369567 Ry
     estimated scf accuracy    <       0.01302392 Ry

     iteration # 22     ecut=    50.00 Ry     beta= 0.60
     Davidson diagonalization with overlap
     ethr =  4.96E-05,  avg # of iterations =  1.0

     total cpu time spent up to now is     2969.6 secs

     total energy              =    -234.58279665 Ry
     Harris-Foulkes estimate   =    -234.58254290 Ry
     estimated scf accuracy    <       0.01146222 Ry

     iteration # 23     ecut=    50.00 Ry     beta= 0.60
     Davidson diagonalization with overlap
     ethr =  4.58E-05,  avg # of iterations =  1.0

     total cpu time spent up to now is     3000.5 secs

     total energy              =    -234.58246078 Ry
     Harris-Foulkes estimate   =    -234.58293552 Ry
     estimated scf accuracy    <       0.01621841 Ry

     iteration # 24     ecut=    50.00 Ry     beta= 0.60
     Davidson diagonalization with overlap
     ethr =  4.58E-05,  avg # of iterations =  1.0

     total cpu time spent up to now is     3031.5 secs

     total energy              =    -234.58176481 Ry
     Harris-Foulkes estimate   =    -234.58248818 Ry
     estimated scf accuracy    <       0.01326772 Ry

     iteration # 25     ecut=    50.00 Ry     beta= 0.60
     Davidson diagonalization with overlap
     ethr =  4.58E-05,  avg # of iterations =  1.0

     total cpu time spent up to now is     3062.5 secs

     total energy              =    -234.57907809 Ry
     Harris-Foulkes estimate   =    -234.58181819 Ry
     estimated scf accuracy    <       0.01310925 Ry

     iteration # 26     ecut=    50.00 Ry     beta= 0.60
     Davidson diagonalization with overlap
     ethr =  4.58E-05,  avg # of iterations =  1.7

     total cpu time spent up to now is     3094.6 secs

     total energy              =    -234.57868955 Ry
     Harris-Foulkes estimate   =    -234.57965490 Ry
     estimated scf accuracy    <       0.00370451 Ry

     iteration # 27     ecut=    50.00 Ry     beta= 0.60
     Davidson diagonalization with overlap
     ethr =  1.48E-05,  avg # of iterations =  4.0

     total cpu time spent up to now is     3136.8 secs

     total energy              =    -234.57958561 Ry
     Harris-Foulkes estimate   =    -234.57961209 Ry
     estimated scf accuracy    <       0.00100122 Ry

     iteration # 28     ecut=    50.00 Ry     beta= 0.60
     Davidson diagonalization with overlap
     ethr =  4.00E-06,  avg # of iterations =  1.5

     total cpu time spent up to now is     3168.6 secs

     total energy              =    -234.57945695 Ry
     Harris-Foulkes estimate   =    -234.57959125 Ry
     estimated scf accuracy    <       0.00080351 Ry

     iteration # 29     ecut=    50.00 Ry     beta= 0.60
     Davidson diagonalization with overlap
     ethr =  3.21E-06,  avg # of iterations =  1.0

     total cpu time spent up to now is     3199.8 secs

     total energy              =    -234.57945600 Ry
     Harris-Foulkes estimate   =    -234.57948970 Ry
     estimated scf accuracy    <       0.00010447 Ry

     iteration # 30     ecut=    50.00 Ry     beta= 0.60
     Davidson diagonalization with overlap
     ethr =  4.18E-07,  avg # of iterations =  3.8

     total cpu time spent up to now is     3238.6 secs

     total energy              =    -234.57948592 Ry
     Harris-Foulkes estimate   =    -234.57950088 Ry
     estimated scf accuracy    <       0.00008447 Ry

     iteration # 31     ecut=    50.00 Ry     beta= 0.60
     Davidson diagonalization with overlap
     ethr =  3.38E-07,  avg # of iterations =  1.0

     total cpu time spent up to now is     3269.9 secs

     total energy              =    -234.57948924 Ry
     Harris-Foulkes estimate   =    -234.57949067 Ry
     estimated scf accuracy    <       0.00000479 Ry

     iteration # 32     ecut=    50.00 Ry     beta= 0.60
     Davidson diagonalization with overlap
     ethr =  1.92E-08,  avg # of iterations =  4.1

     total cpu time spent up to now is     3310.5 secs

     total energy              =    -234.57949164 Ry
     Harris-Foulkes estimate   =    -234.57949287 Ry
     estimated scf accuracy    <       0.00001045 Ry

     iteration # 33     ecut=    50.00 Ry     beta= 0.60
     Davidson diagonalization with overlap
     ethr =  1.92E-08,  avg # of iterations =  1.0

     total cpu time spent up to now is     3341.3 secs

     total energy              =    -234.57949120 Ry
     Harris-Foulkes estimate   =    -234.57949186 Ry
     estimated scf accuracy    <       0.00000280 Ry

     iteration # 34     ecut=    50.00 Ry     beta= 0.60
     Davidson diagonalization with overlap
     ethr =  1.12E-08,  avg # of iterations =  2.7

     total cpu time spent up to now is     3376.5 secs

     total energy              =    -234.57949168 Ry
     Harris-Foulkes estimate   =    -234.57949177 Ry
     estimated scf accuracy    <       0.00000059 Ry

     iteration # 35     ecut=    50.00 Ry     beta= 0.60
     Davidson diagonalization with overlap
     ethr =  2.35E-09,  avg # of iterations =  1.6

     total cpu time spent up to now is     3408.5 secs

     total energy              =    -234.57949170 Ry
     Harris-Foulkes estimate   =    -234.57949171 Ry
     estimated scf accuracy    <       0.00000005 Ry

     iteration # 36     ecut=    50.00 Ry     beta= 0.60
     Davidson diagonalization with overlap
     ethr =  2.12E-10,  avg # of iterations =  3.5

     total cpu time spent up to now is     3445.3 secs

     total energy              =    -234.57949171 Ry
     Harris-Foulkes estimate   =    -234.57949171 Ry
     estimated scf accuracy    <          5.5E-10 Ry

     iteration # 37     ecut=    50.00 Ry     beta= 0.60
     Davidson diagonalization with overlap
     ethr =  2.19E-12,  avg # of iterations =  3.7

     total cpu time spent up to now is     3486.4 secs

     total energy              =    -234.57949171 Ry
     Harris-Foulkes estimate   =    -234.57949171 Ry
     estimated scf accuracy    <          8.7E-10 Ry

     iteration # 38     ecut=    50.00 Ry     beta= 0.60
     Davidson diagonalization with overlap
     ethr =  2.19E-12,  avg # of iterations =  2.8

     total cpu time spent up to now is     3520.6 secs

     total energy              =    -234.57949171 Ry
     Harris-Foulkes estimate   =    -234.57949171 Ry
     estimated scf accuracy    <          2.9E-11 Ry

     iteration # 39     ecut=    50.00 Ry     beta= 0.60
     Davidson diagonalization with overlap
     ethr =  1.16E-13,  avg # of iterations =  3.3

     total cpu time spent up to now is     3558.5 secs

     total energy              =    -234.57949171 Ry
     Harris-Foulkes estimate   =    -234.57949171 Ry
     estimated scf accuracy    <          3.7E-12 Ry

     iteration # 40     ecut=    50.00 Ry     beta= 0.60
     Davidson diagonalization with overlap
     ethr =  1.00E-13,  avg # of iterations =  1.0

     total cpu time spent up to now is     3589.5 secs

     total energy              =    -234.57949171 Ry
     Harris-Foulkes estimate   =    -234.57949171 Ry
     estimated scf accuracy    <          1.5E-12 Ry

     iteration # 41     ecut=    50.00 Ry     beta= 0.60
     Davidson diagonalization with overlap
     ethr =  1.00E-13,  avg # of iterations =  1.0

     total cpu time spent up to now is     3621.8 secs

     End of self-consistent calculation

     Number of k-points >= 100: set verbosity='high' to print the bands.

     the Fermi energy is    16.4980 ev

!    total energy              =    -234.57949171 Ry
     Harris-Foulkes estimate   =    -234.57949171 Ry
     estimated scf accuracy    <          2.5E-13 Ry

     The total energy is the sum of the following terms:

     one-electron contribution =     -53.25260287 Ry
     hartree contribution      =      38.17599459 Ry
     xc contribution           =     -33.06445272 Ry
     ewald contribution        =    -186.43841729 Ry
     smearing contrib. (-TS)   =      -0.00001342 Ry

     convergence has been achieved in  41 iterations

     Forces acting on atoms (cartesian axes, Ry/au):

     atom    1 type  2   force =     0.00000000    0.00000000    0.00000000
     atom    2 type  1   force =     0.00000000    0.00000000    0.00000000

     Total force =     0.000000     Total SCF correction =     0.000000


     Computing stress (Cartesian axis) and pressure

          total   stress  (Ry/bohr**3)                   (kbar)     P=   60.68
   0.00039409   0.00000000   0.00000000         57.97      0.00      0.00
   0.00000000   0.00042168  -0.00001937          0.00     62.03     -2.85
   0.00000000  -0.00001937   0.00042168          0.00     -2.85     62.03


     number of scf cycles    =   3
     number of bfgs steps    =   2

     enthalpy old            =    -234.5686673661 Ry
     enthalpy new            =    -234.5794917113 Ry

     CASE: enthalpy_new < enthalpy_old

     new trust radius        =       0.0478575455 bohr
     new conv_thr            =            1.0E-12 Ry

     new unit-cell volume =    238.31112 a.u.^3 (    35.31406 Ang^3 )
     density =      6.61945 g/cm^3

CELL_PARAMETERS (alat=  1.88972599)
  -1.639913802   1.637267944  -1.637267944
  -1.639913802  -1.637267944   1.637267944
   0.000000000   3.288115200   3.288115200

ATOMIC_POSITIONS (angstrom)
Ti      -1.639913802   1.644057600   1.644057600
Nb      -3.279827603   3.288115200   3.288115200


     NEW-OLD atomic charge density approx. for the potential
     extrapolated charge   26.09762, renormalised to   25.00000

     total cpu time spent up to now is     3645.4 secs

     Self-consistent Calculation

     iteration #  1     ecut=    50.00 Ry     beta= 0.60
     Davidson diagonalization with overlap
     ethr =  1.00E-06,  avg # of iterations = 11.1

     total cpu time spent up to now is     3731.1 secs

     total energy              =    -234.34953471 Ry
     Harris-Foulkes estimate   =    -232.81576739 Ry
     estimated scf accuracy    <       0.18528536 Ry

     iteration #  2     ecut=    50.00 Ry     beta= 0.60
     Davidson diagonalization with overlap
     ethr =  7.41E-04,  avg # of iterations =  4.8

     total cpu time spent up to now is     3790.5 secs

     total energy              =    -234.17538618 Ry
     Harris-Foulkes estimate   =    -235.03793520 Ry
     estimated scf accuracy    <       6.67605283 Ry

     iteration #  3     ecut=    50.00 Ry     beta= 0.60
     Davidson diagonalization with overlap
     ethr =  7.41E-04,  avg # of iterations =  4.5

     total cpu time spent up to now is     3836.6 secs

     total energy              =    -234.56775171 Ry
     Harris-Foulkes estimate   =    -234.63519412 Ry
     estimated scf accuracy    <       0.22842138 Ry

     iteration #  4     ecut=    50.00 Ry     beta= 0.60
     Davidson diagonalization with overlap
     ethr =  7.41E-04,  avg # of iterations =  1.6

     total cpu time spent up to now is     3868.8 secs

     total energy              =    -234.58570560 Ry
     Harris-Foulkes estimate   =    -234.59132934 Ry
     estimated scf accuracy    <       0.05885006 Ry

     iteration #  5     ecut=    50.00 Ry     beta= 0.60
     Davidson diagonalization with overlap
     ethr =  2.35E-04,  avg # of iterations =  1.8

     total cpu time spent up to now is     3901.3 secs

     total energy              =    -234.58486145 Ry
     Harris-Foulkes estimate   =    -234.58790236 Ry
     estimated scf accuracy    <       0.04018639 Ry

     iteration #  6     ecut=    50.00 Ry     beta= 0.60
     Davidson diagonalization with overlap
     ethr =  1.61E-04,  avg # of iterations =  1.1

     total cpu time spent up to now is     3932.6 secs

     total energy              =    -234.58147673 Ry
     Harris-Foulkes estimate   =    -234.58552727 Ry
     estimated scf accuracy    <       0.02721050 Ry

     iteration #  7     ecut=    50.00 Ry     beta= 0.60
     Davidson diagonalization with overlap
     ethr =  1.09E-04,  avg # of iterations =  1.6

     total cpu time spent up to now is     3964.4 secs

     total energy              =    -234.58137951 Ry
     Harris-Foulkes estimate   =    -234.58252274 Ry
     estimated scf accuracy    <       0.00914258 Ry

     iteration #  8     ecut=    50.00 Ry     beta= 0.60
     Davidson diagonalization with overlap
     ethr =  3.66E-05,  avg # of iterations =  2.4

     total cpu time spent up to now is     3997.3 secs

     total energy              =    -234.58118480 Ry
     Harris-Foulkes estimate   =    -234.58173431 Ry
     estimated scf accuracy    <       0.00347176 Ry

     iteration #  9     ecut=    50.00 Ry     beta= 0.60
     Davidson diagonalization with overlap
     ethr =  1.39E-05,  avg # of iterations =  2.7

     total cpu time spent up to now is     4031.8 secs

     total energy              =    -234.58127224 Ry
     Harris-Foulkes estimate   =    -234.58138645 Ry
     estimated scf accuracy    <       0.00064620 Ry

     iteration # 10     ecut=    50.00 Ry     beta= 0.60
     Davidson diagonalization with overlap
     ethr =  2.58E-06,  avg # of iterations =  3.6

     total cpu time spent up to now is     4069.5 secs

     total energy              =    -234.58133687 Ry
     Harris-Foulkes estimate   =    -234.58134464 Ry
     estimated scf accuracy    <       0.00004355 Ry

     iteration # 11     ecut=    50.00 Ry     beta= 0.60
     Davidson diagonalization with overlap
     ethr =  1.74E-07,  avg # of iterations =  3.2

     total cpu time spent up to now is     4106.1 secs

     total energy              =    -234.58134560 Ry
     Harris-Foulkes estimate   =    -234.58134565 Ry
     estimated scf accuracy    <       0.00000052 Ry

     iteration # 12     ecut=    50.00 Ry     beta= 0.60
     Davidson diagonalization with overlap
     ethr =  2.08E-09,  avg # of iterations =  4.2

     total cpu time spent up to now is     4152.2 secs

     total energy              =    -234.58134592 Ry
     Harris-Foulkes estimate   =    -234.58134608 Ry
     estimated scf accuracy    <       0.00000090 Ry

     iteration # 13     ecut=    50.00 Ry     beta= 0.60
     Davidson diagonalization with overlap
     ethr =  2.08E-09,  avg # of iterations =  1.9

     total cpu time spent up to now is     4184.8 secs

     total energy              =    -234.58134592 Ry
     Harris-Foulkes estimate   =    -234.58134596 Ry
     estimated scf accuracy    <       0.00000016 Ry

     iteration # 14     ecut=    50.00 Ry     beta= 0.60
     Davidson diagonalization with overlap
     ethr =  6.55E-10,  avg # of iterations =  3.3

     total cpu time spent up to now is     4221.1 secs

     total energy              =    -234.58134594 Ry
     Harris-Foulkes estimate   =    -234.58134595 Ry
     estimated scf accuracy    <       0.00000003 Ry

     iteration # 15     ecut=    50.00 Ry     beta= 0.60
     Davidson diagonalization with overlap
     ethr =  1.37E-10,  avg # of iterations =  2.1

     total cpu time spent up to now is     4254.6 secs

     total energy              =    -234.58134594 Ry
     Harris-Foulkes estimate   =    -234.58134594 Ry
     estimated scf accuracy    <          7.8E-09 Ry

     iteration # 16     ecut=    50.00 Ry     beta= 0.60
     Davidson diagonalization with overlap
     ethr =  3.12E-11,  avg # of iterations =  3.1

     total cpu time spent up to now is     4292.1 secs

     total energy              =    -234.58134594 Ry
     Harris-Foulkes estimate   =    -234.58134594 Ry
     estimated scf accuracy    <          1.2E-10 Ry

     iteration # 17     ecut=    50.00 Ry     beta= 0.60
     Davidson diagonalization with overlap
     ethr =  4.72E-13,  avg # of iterations =  3.8

     total cpu time spent up to now is     4337.2 secs

     total energy              =    -234.58134594 Ry
     Harris-Foulkes estimate   =    -234.58134594 Ry
     estimated scf accuracy    <          1.4E-11 Ry

     iteration # 18     ecut=    50.00 Ry     beta= 0.60
     Davidson diagonalization with overlap
     ethr =  1.00E-13,  avg # of iterations =  2.7

     total cpu time spent up to now is     4372.7 secs

     total energy              =    -234.58134594 Ry
     Harris-Foulkes estimate   =    -234.58134594 Ry
     estimated scf accuracy    <          2.5E-11 Ry

     iteration # 19     ecut=    50.00 Ry     beta= 0.60
     Davidson diagonalization with overlap
     ethr =  1.00E-13,  avg # of iterations =  2.6

     total cpu time spent up to now is     4406.4 secs

     End of self-consistent calculation

     Number of k-points >= 100: set verbosity='high' to print the bands.

     the Fermi energy is    15.6230 ev

!    total energy              =    -234.58134594 Ry
     Harris-Foulkes estimate   =    -234.58134594 Ry
     estimated scf accuracy    <          1.7E-13 Ry

     The total energy is the sum of the following terms:

     one-electron contribution =     -57.41925368 Ry
     hartree contribution      =      39.36213309 Ry
     xc contribution           =     -32.97251718 Ry
     ewald contribution        =    -183.55181850 Ry
     smearing contrib. (-TS)   =       0.00011032 Ry

     convergence has been achieved in  19 iterations

     Forces acting on atoms (cartesian axes, Ry/au):

     atom    1 type  2   force =     0.00000000    0.00000000    0.00000000
     atom    2 type  1   force =     0.00000000    0.00000000    0.00000000

     Total force =     0.000000     Total SCF correction =     0.000000


     Computing stress (Cartesian axis) and pressure

          total   stress  (Ry/bohr**3)                   (kbar)     P=   -8.33
  -0.00006971   0.00000000   0.00000000        -10.25      0.00      0.00
   0.00000000  -0.00005013  -0.00000047          0.00     -7.37     -0.07
   0.00000000  -0.00000047  -0.00005013          0.00     -0.07     -7.37


     number of scf cycles    =   4
     number of bfgs steps    =   3

     enthalpy old            =    -234.5794917113 Ry
     enthalpy new            =    -234.5813459414 Ry

     CASE: enthalpy_new < enthalpy_old

     new trust radius        =       0.0068176861 bohr
     new conv_thr            =            1.0E-12 Ry

     new unit-cell volume =    236.94160 a.u.^3 (    35.11112 Ang^3 )
     density =      6.65771 g/cm^3

CELL_PARAMETERS (alat=  1.88972599)
  -1.636292574   1.634339162  -1.634339162
  -1.636292574  -1.634339162   1.634339162
   0.000000000   3.282325661   3.282325661

ATOMIC_POSITIONS (angstrom)
Ti      -1.636292574   1.641162831   1.641162831
Nb      -3.272585147   3.282325661   3.282325661


     NEW-OLD atomic charge density approx. for the potential
     extrapolated charge   24.86130, renormalised to   25.00000

     total cpu time spent up to now is     4430.1 secs

     Self-consistent Calculation

     iteration #  1     ecut=    50.00 Ry     beta= 0.60
     Davidson diagonalization with overlap
     ethr =  1.00E-06,  avg # of iterations =  4.9

     total cpu time spent up to now is     4489.0 secs

     total energy              =    -234.57518486 Ry
     Harris-Foulkes estimate   =    -234.80824902 Ry
     estimated scf accuracy    <       0.00567004 Ry

     iteration #  2     ecut=    50.00 Ry     beta= 0.60
     Davidson diagonalization with overlap
     ethr =  2.27E-05,  avg # of iterations =  5.3

     total cpu time spent up to now is     4547.9 secs

     total energy              =    -234.57195199 Ry
     Harris-Foulkes estimate   =    -234.59589446 Ry
     estimated scf accuracy    <       0.15684203 Ry

     iteration #  3     ecut=    50.00 Ry     beta= 0.60
     Davidson diagonalization with overlap
     ethr =  2.27E-05,  avg # of iterations =  4.6

     total cpu time spent up to now is     4596.0 secs

     total energy              =    -234.58146451 Ry
     Harris-Foulkes estimate   =    -234.58253503 Ry
     estimated scf accuracy    <       0.00324286 Ry

     iteration #  4     ecut=    50.00 Ry     beta= 0.60
     Davidson diagonalization with overlap
     ethr =  1.30E-05,  avg # of iterations =  1.2

     total cpu time spent up to now is     4627.3 secs

     total energy              =    -234.58142400 Ry
     Harris-Foulkes estimate   =    -234.58170883 Ry
     estimated scf accuracy    <       0.00241653 Ry

     iteration #  5     ecut=    50.00 Ry     beta= 0.60
     Davidson diagonalization with overlap
     ethr =  9.67E-06,  avg # of iterations =  1.8

     total cpu time spent up to now is     4659.7 secs

     total energy              =    -234.58141967 Ry
     Harris-Foulkes estimate   =    -234.58151543 Ry
     estimated scf accuracy    <       0.00101576 Ry

     iteration #  6     ecut=    50.00 Ry     beta= 0.60
     Davidson diagonalization with overlap
     ethr =  4.06E-06,  avg # of iterations =  1.0

     total cpu time spent up to now is     4691.0 secs

     total energy              =    -234.58137799 Ry
     Harris-Foulkes estimate   =    -234.58143884 Ry
     estimated scf accuracy    <       0.00049792 Ry

     iteration #  7     ecut=    50.00 Ry     beta= 0.60
     Davidson diagonalization with overlap
     ethr =  1.99E-06,  avg # of iterations =  1.8

     total cpu time spent up to now is     4723.9 secs

     total energy              =    -234.58139116 Ry
     Harris-Foulkes estimate   =    -234.58140119 Ry
     estimated scf accuracy    <       0.00012901 Ry

     iteration #  8     ecut=    50.00 Ry     beta= 0.60
     Davidson diagonalization with overlap
     ethr =  5.16E-07,  avg # of iterations =  1.5

     total cpu time spent up to now is     4755.7 secs

     total energy              =    -234.58138192 Ry
     Harris-Foulkes estimate   =    -234.58139437 Ry
     estimated scf accuracy    <       0.00006537 Ry

     iteration #  9     ecut=    50.00 Ry     beta= 0.60
     Davidson diagonalization with overlap
     ethr =  2.61E-07,  avg # of iterations =  2.8

     total cpu time spent up to now is     4790.9 secs

     total energy              =    -234.58138760 Ry
     Harris-Foulkes estimate   =    -234.58138800 Ry
     estimated scf accuracy    <       0.00000282 Ry

     iteration # 10     ecut=    50.00 Ry     beta= 0.60
     Davidson diagonalization with overlap
     ethr =  1.13E-08,  avg # of iterations =  3.4

     total cpu time spent up to now is     4830.1 secs

     total energy              =    -234.58138828 Ry
     Harris-Foulkes estimate   =    -234.58138832 Ry
     estimated scf accuracy    <       0.00000048 Ry

     iteration # 11     ecut=    50.00 Ry     beta= 0.60
     Davidson diagonalization with overlap
     ethr =  1.93E-09,  avg # of iterations =  3.5

     total cpu time spent up to now is     4868.0 secs

     total energy              =    -234.58138834 Ry
     Harris-Foulkes estimate   =    -234.58138841 Ry
     estimated scf accuracy    <       0.00000040 Ry

     iteration # 12     ecut=    50.00 Ry     beta= 0.60
     Davidson diagonalization with overlap
     ethr =  1.58E-09,  avg # of iterations =  1.0

     total cpu time spent up to now is     4899.3 secs

     total energy              =    -234.58138831 Ry
     Harris-Foulkes estimate   =    -234.58138835 Ry
     estimated scf accuracy    <       0.00000020 Ry

     iteration # 13     ecut=    50.00 Ry     beta= 0.60
     Davidson diagonalization with overlap
     ethr =  7.98E-10,  avg # of iterations =  1.9

     total cpu time spent up to now is     4932.4 secs

     total energy              =    -234.58138831 Ry
     Harris-Foulkes estimate   =    -234.58138832 Ry
     estimated scf accuracy    <       0.00000006 Ry

     iteration # 14     ecut=    50.00 Ry     beta= 0.60
     Davidson diagonalization with overlap
     ethr =  2.54E-10,  avg # of iterations =  1.2

     total cpu time spent up to now is     4963.8 secs

     total energy              =    -234.58138830 Ry
     Harris-Foulkes estimate   =    -234.58138831 Ry
     estimated scf accuracy    <       0.00000003 Ry

     iteration # 15     ecut=    50.00 Ry     beta= 0.60
     Davidson diagonalization with overlap
     ethr =  1.13E-10,  avg # of iterations =  2.7

     total cpu time spent up to now is     4999.2 secs

     total energy              =    -234.58138830 Ry
     Harris-Foulkes estimate   =    -234.58138830 Ry
     estimated scf accuracy    <          4.5E-09 Ry

     iteration # 16     ecut=    50.00 Ry     beta= 0.60
     Davidson diagonalization with overlap
     ethr =  1.80E-11,  avg # of iterations =  2.4

     total cpu time spent up to now is     5034.1 secs

     total energy              =    -234.58138830 Ry
     Harris-Foulkes estimate   =    -234.58138830 Ry
     estimated scf accuracy    <          2.5E-09 Ry

     iteration # 17     ecut=    50.00 Ry     beta= 0.60
     Davidson diagonalization with overlap
     ethr =  1.00E-11,  avg # of iterations =  1.6

     total cpu time spent up to now is     5066.1 secs

     total energy              =    -234.58138830 Ry
     Harris-Foulkes estimate   =    -234.58138830 Ry
     estimated scf accuracy    <          5.7E-10 Ry

     iteration # 18     ecut=    50.00 Ry     beta= 0.60
     Davidson diagonalization with overlap
     ethr =  2.29E-12,  avg # of iterations =  2.6

     total cpu time spent up to now is     5100.4 secs

     total energy              =    -234.58138830 Ry
     Harris-Foulkes estimate   =    -234.58138830 Ry
     estimated scf accuracy    <          1.4E-10 Ry

     iteration # 19     ecut=    50.00 Ry     beta= 0.60
     Davidson diagonalization with overlap
     ethr =  5.47E-13,  avg # of iterations =  2.9

     total cpu time spent up to now is     5135.5 secs

     total energy              =    -234.58138830 Ry
     Harris-Foulkes estimate   =    -234.58138830 Ry
     estimated scf accuracy    <          3.8E-12 Ry

     iteration # 20     ecut=    50.00 Ry     beta= 0.60
     Davidson diagonalization with overlap
     ethr =  1.00E-13,  avg # of iterations =  2.4

     total cpu time spent up to now is     5169.6 secs

     End of self-consistent calculation

     Number of k-points >= 100: set verbosity='high' to print the bands.

     the Fermi energy is    15.7287 ev

!    total energy              =    -234.58138830 Ry
     Harris-Foulkes estimate   =    -234.58138830 Ry
     estimated scf accuracy    <          8.7E-13 Ry

     The total energy is the sum of the following terms:

     one-electron contribution =     -56.90866000 Ry
     hartree contribution      =      39.21547913 Ry
     xc contribution           =     -32.98357545 Ry
     ewald contribution        =    -183.90473143 Ry
     smearing contrib. (-TS)   =       0.00009945 Ry

     convergence has been achieved in  20 iterations

     Forces acting on atoms (cartesian axes, Ry/au):

     atom    1 type  2   force =     0.00000000    0.00000000    0.00000000
     atom    2 type  1   force =     0.00000000    0.00000000    0.00000000

     Total force =     0.000000     Total SCF correction =     0.000000


     Computing stress (Cartesian axis) and pressure

          total   stress  (Ry/bohr**3)                   (kbar)     P=   -0.45
  -0.00001526  -0.00000000   0.00000000         -2.25     -0.00      0.00
  -0.00000000   0.00000307  -0.00000216         -0.00      0.45     -0.32
   0.00000000  -0.00000216   0.00000307          0.00     -0.32      0.45


     number of scf cycles    =   5
     number of bfgs steps    =   4

     enthalpy old            =    -234.5813459414 Ry
     enthalpy new            =    -234.5813883037 Ry

     CASE: enthalpy_new < enthalpy_old

     new trust radius        =       0.0013842426 bohr
     new conv_thr            =            1.0E-12 Ry

     new unit-cell volume =    236.84229 a.u.^3 (    35.09641 Ang^3 )
     density =      6.66050 g/cm^3

CELL_PARAMETERS (alat=  1.88972599)
  -1.635556837   1.634450613  -1.634450613
  -1.635556837  -1.634450613   1.634450613
   0.000000000   3.282202076   3.282202076

ATOMIC_POSITIONS (angstrom)
Ti      -1.635556837   1.641101038   1.641101038
Nb      -3.271113674   3.282202076   3.282202076


     NEW-OLD atomic charge density approx. for the potential
     extrapolated charge   24.98994, renormalised to   25.00000

     total cpu time spent up to now is     5193.0 secs

     Self-consistent Calculation

     iteration #  1     ecut=    50.00 Ry     beta= 0.60
     Davidson diagonalization with overlap
     ethr =  1.00E-06,  avg # of iterations =  2.0

     Threshold (ethr) on eigenvalues was too large:
     Diagonalizing with lowered threshold

     Davidson diagonalization with overlap
     ethr =  9.69E-08,  avg # of iterations =  1.1

     total cpu time spent up to now is     5266.1 secs

     total energy              =    -234.58136204 Ry
     Harris-Foulkes estimate   =    -234.59778407 Ry
     estimated scf accuracy    <       0.00002570 Ry

     iteration #  2     ecut=    50.00 Ry     beta= 0.60
     Davidson diagonalization with overlap
     ethr =  1.03E-07,  avg # of iterations =  4.6

     total cpu time spent up to now is     5317.0 secs

     total energy              =    -234.58134113 Ry
     Harris-Foulkes estimate   =    -234.58145813 Ry
     estimated scf accuracy    <       0.00082527 Ry

     iteration #  3     ecut=    50.00 Ry     beta= 0.60
     Davidson diagonalization with overlap
     ethr =  1.03E-07,  avg # of iterations =  4.0

     total cpu time spent up to now is     5357.9 secs

     total energy              =    -234.58139071 Ry
     Harris-Foulkes estimate   =    -234.58139603 Ry
     estimated scf accuracy    <       0.00001504 Ry

     iteration #  4     ecut=    50.00 Ry     beta= 0.60
     Davidson diagonalization with overlap
     ethr =  6.01E-08,  avg # of iterations =  1.4

     total cpu time spent up to now is     5389.2 secs

     total energy              =    -234.58139079 Ry
     Harris-Foulkes estimate   =    -234.58139205 Ry
     estimated scf accuracy    <       0.00000973 Ry

     iteration #  5     ecut=    50.00 Ry     beta= 0.60
     Davidson diagonalization with overlap
     ethr =  3.89E-08,  avg # of iterations =  1.8

     total cpu time spent up to now is     5421.9 secs

     total energy              =    -234.58139072 Ry
     Harris-Foulkes estimate   =    -234.58139121 Ry
     estimated scf accuracy    <       0.00000438 Ry

     iteration #  6     ecut=    50.00 Ry     beta= 0.60
     Davidson diagonalization with overlap
     ethr =  1.75E-08,  avg # of iterations =  1.1

     total cpu time spent up to now is     5452.9 secs

     total energy              =    -234.58139038 Ry
     Harris-Foulkes estimate   =    -234.58139083 Ry
     estimated scf accuracy    <       0.00000187 Ry

     iteration #  7     ecut=    50.00 Ry     beta= 0.60
     Davidson diagonalization with overlap
     ethr =  7.48E-09,  avg # of iterations =  2.9

     total cpu time spent up to now is     5492.8 secs

     total energy              =    -234.58139066 Ry
     Harris-Foulkes estimate   =    -234.58139066 Ry
     estimated scf accuracy    <          8.4E-09 Ry

     iteration #  8     ecut=    50.00 Ry     beta= 0.60
     Davidson diagonalization with overlap
     ethr =  3.37E-11,  avg # of iterations =  4.5

     total cpu time spent up to now is     5541.4 secs

     total energy              =    -234.58139067 Ry
     Harris-Foulkes estimate   =    -234.58139068 Ry
     estimated scf accuracy    <       0.00000003 Ry

     iteration #  9     ecut=    50.00 Ry     beta= 0.60
     Davidson diagonalization with overlap
     ethr =  3.37E-11,  avg # of iterations =  2.9

     total cpu time spent up to now is     5577.0 secs

     total energy              =    -234.58139067 Ry
     Harris-Foulkes estimate   =    -234.58139067 Ry
     estimated scf accuracy    <          3.1E-09 Ry

     iteration # 10     ecut=    50.00 Ry     beta= 0.60
     Davidson diagonalization with overlap
     ethr =  1.22E-11,  avg # of iterations =  3.7

     total cpu time spent up to now is     5618.8 secs

     total energy              =    -234.58139067 Ry
     Harris-Foulkes estimate   =    -234.58139067 Ry
     estimated scf accuracy    <          2.1E-09 Ry

     iteration # 11     ecut=    50.00 Ry     beta= 0.60
     Davidson diagonalization with overlap
     ethr =  8.43E-12,  avg # of iterations =  2.3

     total cpu time spent up to now is     5652.0 secs

     total energy              =    -234.58139067 Ry
     Harris-Foulkes estimate   =    -234.58139067 Ry
     estimated scf accuracy    <          6.0E-11 Ry

     iteration # 12     ecut=    50.00 Ry     beta= 0.60
     Davidson diagonalization with overlap
     ethr =  2.41E-13,  avg # of iterations =  4.2

     total cpu time spent up to now is     5696.0 secs

     total energy              =    -234.58139067 Ry
     Harris-Foulkes estimate   =    -234.58139067 Ry
     estimated scf accuracy    <          1.1E-10 Ry

     iteration # 13     ecut=    50.00 Ry     beta= 0.60
     Davidson diagonalization with overlap
     ethr =  2.41E-13,  avg # of iterations =  1.0

     total cpu time spent up to now is     5726.8 secs

     total energy              =    -234.58139067 Ry
     Harris-Foulkes estimate   =    -234.58139067 Ry
     estimated scf accuracy    <          5.8E-11 Ry

     iteration # 14     ecut=    50.00 Ry     beta= 0.60
     Davidson diagonalization with overlap
     ethr =  2.33E-13,  avg # of iterations =  1.9

     total cpu time spent up to now is     5759.9 secs

     total energy              =    -234.58139067 Ry
     Harris-Foulkes estimate   =    -234.58139067 Ry
     estimated scf accuracy    <          8.8E-12 Ry

     iteration # 15     ecut=    50.00 Ry     beta= 0.60
     Davidson diagonalization with overlap
     ethr =  1.00E-13,  avg # of iterations =  1.0

     total cpu time spent up to now is     5790.5 secs

     total energy              =    -234.58139067 Ry
     Harris-Foulkes estimate   =    -234.58139067 Ry
     estimated scf accuracy    <          3.6E-12 Ry

     iteration # 16     ecut=    50.00 Ry     beta= 0.60
     Davidson diagonalization with overlap
     ethr =  1.00E-13,  avg # of iterations =  1.1

     total cpu time spent up to now is     5820.6 secs

     End of self-consistent calculation

     Number of k-points >= 100: set verbosity='high' to print the bands.

     the Fermi energy is    15.7363 ev

!    total energy              =    -234.58139067 Ry
     Harris-Foulkes estimate   =    -234.58139067 Ry
     estimated scf accuracy    <          3.8E-13 Ry

     The total energy is the sum of the following terms:

     one-electron contribution =     -56.87154792 Ry
     hartree contribution      =      39.20486169 Ry
     xc contribution           =     -32.98438689 Ry
     ewald contribution        =    -183.93041790 Ry
     smearing contrib. (-TS)   =       0.00010036 Ry

     convergence has been achieved in  16 iterations

     Forces acting on atoms (cartesian axes, Ry/au):

     atom    1 type  2   force =     0.00000000    0.00000000    0.00000000
     atom    2 type  1   force =     0.00000000    0.00000000    0.00000000

     Total force =     0.000000     Total SCF correction =     0.000000


     Computing stress (Cartesian axis) and pressure

          total   stress  (Ry/bohr**3)                   (kbar)     P=    0.12
  -0.00000999   0.00000000  -0.00000000         -1.47      0.00     -0.00
   0.00000000   0.00000625  -0.00000193          0.00      0.92     -0.28
  -0.00000000  -0.00000193   0.00000625         -0.00     -0.28      0.92


     number of scf cycles    =   6
     number of bfgs steps    =   5

     enthalpy old            =    -234.5813883037 Ry
     enthalpy new            =    -234.5813906705 Ry

     CASE: enthalpy_new < enthalpy_old

     new trust radius        =       0.0015230325 bohr
     new conv_thr            =            1.0E-12 Ry

     new unit-cell volume =    236.79566 a.u.^3 (    35.08950 Ang^3 )
     density =      6.66181 g/cm^3

CELL_PARAMETERS (alat=  1.88972599)
  -1.634747526   1.634817342  -1.634817342
  -1.634747526  -1.634817342   1.634817342
   0.000000000   3.282443862   3.282443862

ATOMIC_POSITIONS (angstrom)
Ti      -1.634747526   1.641221931   1.641221931
Nb      -3.269495053   3.282443862   3.282443862


     NEW-OLD atomic charge density approx. for the potential
     extrapolated charge   24.99527, renormalised to   25.00000

     total cpu time spent up to now is     5844.0 secs

     Self-consistent Calculation

     iteration #  1     ecut=    50.00 Ry     beta= 0.60
     Davidson diagonalization with overlap
     ethr =  1.00E-06,  avg # of iterations =  2.0

     Threshold (ethr) on eigenvalues was too large:
     Diagonalizing with lowered threshold

     Davidson diagonalization with overlap
     ethr =  2.22E-08,  avg # of iterations =  1.3

     total cpu time spent up to now is     5914.8 secs

     total energy              =    -234.58138470 Ry
     Harris-Foulkes estimate   =    -234.58908876 Ry
     estimated scf accuracy    <       0.00000595 Ry

     iteration #  2     ecut=    50.00 Ry     beta= 0.60
     Davidson diagonalization with overlap
     ethr =  2.38E-08,  avg # of iterations =  4.5

     total cpu time spent up to now is     5962.8 secs

     total energy              =    -234.58137921 Ry
     Harris-Foulkes estimate   =    -234.58140741 Ry
     estimated scf accuracy    <       0.00020138 Ry

     iteration #  3     ecut=    50.00 Ry     beta= 0.60
     Davidson diagonalization with overlap
     ethr =  2.38E-08,  avg # of iterations =  4.0

     total cpu time spent up to now is     6001.8 secs

     total energy              =    -234.58139124 Ry
     Harris-Foulkes estimate   =    -234.58139237 Ry
     estimated scf accuracy    <       0.00000325 Ry

     iteration #  4     ecut=    50.00 Ry     beta= 0.60
     Davidson diagonalization with overlap
     ethr =  1.30E-08,  avg # of iterations =  1.4

     total cpu time spent up to now is     6032.3 secs

     total energy              =    -234.58139118 Ry
     Harris-Foulkes estimate   =    -234.58139151 Ry
     estimated scf accuracy    <       0.00000213 Ry

     iteration #  5     ecut=    50.00 Ry     beta= 0.60
     Davidson diagonalization with overlap
     ethr =  8.52E-09,  avg # of iterations =  2.0

     total cpu time spent up to now is     6064.5 secs

     total energy              =    -234.58139116 Ry
     Harris-Foulkes estimate   =    -234.58139129 Ry
     estimated scf accuracy    <       0.00000072 Ry

     iteration #  6     ecut=    50.00 Ry     beta= 0.60
     Davidson diagonalization with overlap
     ethr =  2.88E-09,  avg # of iterations =  1.7

     total cpu time spent up to now is     6095.6 secs

     total energy              =    -234.58139118 Ry
     Harris-Foulkes estimate   =    -234.58139121 Ry
     estimated scf accuracy    <       0.00000008 Ry

     iteration #  7     ecut=    50.00 Ry     beta= 0.60
     Davidson diagonalization with overlap
     ethr =  3.27E-10,  avg # of iterations =  3.7

     total cpu time spent up to now is     6135.5 secs

     total energy              =    -234.58139122 Ry
     Harris-Foulkes estimate   =    -234.58139123 Ry
     estimated scf accuracy    <       0.00000007 Ry

     iteration #  8     ecut=    50.00 Ry     beta= 0.60
     Davidson diagonalization with overlap
     ethr =  2.65E-10,  avg # of iterations =  1.0

     total cpu time spent up to now is     6165.6 secs

     total energy              =    -234.58139121 Ry
     Harris-Foulkes estimate   =    -234.58139122 Ry
     estimated scf accuracy    <       0.00000003 Ry

     iteration #  9     ecut=    50.00 Ry     beta= 0.60
     Davidson diagonalization with overlap
     ethr =  1.02E-10,  avg # of iterations =  2.9

     total cpu time spent up to now is     6200.2 secs

     total energy              =    -234.58139121 Ry
     Harris-Foulkes estimate   =    -234.58139121 Ry
     estimated scf accuracy    <          8.4E-11 Ry

     iteration # 10     ecut=    50.00 Ry     beta= 0.60
     Davidson diagonalization with overlap
     ethr =  3.35E-13,  avg # of iterations =  4.6

     total cpu time spent up to now is     6249.1 secs

     total energy              =    -234.58139121 Ry
     Harris-Foulkes estimate   =    -234.58139121 Ry
     estimated scf accuracy    <          3.6E-10 Ry

     iteration # 11     ecut=    50.00 Ry     beta= 0.60
     Davidson diagonalization with overlap
     ethr =  3.35E-13,  avg # of iterations =  3.4

     total cpu time spent up to now is     6289.7 secs

     total energy              =    -234.58139121 Ry
     Harris-Foulkes estimate   =    -234.58139121 Ry
     estimated scf accuracy    <          3.1E-12 Ry

     iteration # 12     ecut=    50.00 Ry     beta= 0.60
     Davidson diagonalization with overlap
     ethr =  1.00E-13,  avg # of iterations =  1.1

     total cpu time spent up to now is     6319.8 secs

     total energy              =    -234.58139121 Ry
     Harris-Foulkes estimate   =    -234.58139121 Ry
     estimated scf accuracy    <          2.4E-12 Ry

     iteration # 13     ecut=    50.00 Ry     beta= 0.60
     Davidson diagonalization with overlap
     ethr =  1.00E-13,  avg # of iterations =  1.0

     total cpu time spent up to now is     6349.8 secs

     End of self-consistent calculation

     Number of k-points >= 100: set verbosity='high' to print the bands.

     the Fermi energy is    15.7399 ev

!    total energy              =    -234.58139121 Ry
     Harris-Foulkes estimate   =    -234.58139121 Ry
     estimated scf accuracy    <          9.0E-13 Ry

     The total energy is the sum of the following terms:

     one-electron contribution =     -56.85416757 Ry
     hartree contribution      =      39.19991901 Ry
     xc contribution           =     -32.98477249 Ry
     ewald contribution        =    -183.94247263 Ry
     smearing contrib. (-TS)   =       0.00010247 Ry

     convergence has been achieved in  13 iterations

     Forces acting on atoms (cartesian axes, Ry/au):

     atom    1 type  2   force =     0.00000000    0.00000000    0.00000000
     atom    2 type  1   force =     0.00000000    0.00000000    0.00000000

     Total force =     0.000000     Total SCF correction =     0.000000


     Computing stress (Cartesian axis) and pressure

          total   stress  (Ry/bohr**3)                   (kbar)     P=    0.38
  -0.00000621   0.00000000   0.00000000         -0.91      0.00      0.00
   0.00000000   0.00000702  -0.00000148          0.00      1.03     -0.22
  -0.00000000  -0.00000148   0.00000702         -0.00     -0.22      1.03


     number of scf cycles    =   7
     number of bfgs steps    =   6

     enthalpy old            =    -234.5813906705 Ry
     enthalpy new            =    -234.5813912148 Ry

     CASE: enthalpy_new < enthalpy_old

     new trust radius        =       0.0022854547 bohr
     new conv_thr            =            1.0E-12 Ry

     new unit-cell volume =    236.77681 a.u.^3 (    35.08670 Ang^3 )
     density =      6.66234 g/cm^3

CELL_PARAMETERS (alat=  1.88972599)
  -1.633533560   1.635559279  -1.635559279
  -1.633533560  -1.635559279   1.635559279
   0.000000000   3.283131770   3.283131770

ATOMIC_POSITIONS (angstrom)
Ti      -1.633533560   1.641565885   1.641565885
Nb      -3.267067121   3.283131770   3.283131770


     NEW-OLD atomic charge density approx. for the potential
     extrapolated charge   24.99809, renormalised to   25.00000

     total cpu time spent up to now is     6372.8 secs

     Self-consistent Calculation

[...]

     iteration #  2     ecut=    50.00 Ry     beta= 0.60
     Davidson diagonalization with overlap
     ethr =  2.61E-12,  avg # of iterations =  4.1

     total cpu time spent up to now is     8921.7 secs

     total energy              =    -234.58139429 Ry
     Harris-Foulkes estimate   =    -234.58139430 Ry
     estimated scf accuracy    <       0.00000003 Ry

     iteration #  3     ecut=    50.00 Ry     beta= 0.60
     Davidson diagonalization with overlap
     ethr =  2.61E-12,  avg # of iterations =  4.2

     total cpu time spent up to now is     8965.1 secs

     total energy              =    -234.58139430 Ry
     Harris-Foulkes estimate   =    -234.58139430 Ry
     estimated scf accuracy    <          1.2E-11 Ry

     iteration #  4     ecut=    50.00 Ry     beta= 0.60
     Davidson diagonalization with overlap
     ethr =  1.00E-13,  avg # of iterations =  2.7

     total cpu time spent up to now is     9004.0 secs

     total energy              =    -234.58139430 Ry
     Harris-Foulkes estimate   =    -234.58139430 Ry
     estimated scf accuracy    <          1.3E-12 Ry

     iteration #  5     ecut=    50.00 Ry     beta= 0.60
     Davidson diagonalization with overlap
     ethr =  1.00E-13,  avg # of iterations =  1.0

     total cpu time spent up to now is     9036.4 secs

     End of self-consistent calculation

     Number of k-points >= 100: set verbosity='high' to print the bands.

     the Fermi energy is    15.7353 ev

!    total energy              =    -234.58139430 Ry
     Harris-Foulkes estimate   =    -234.58139430 Ry
     estimated scf accuracy    <          1.0E-13 Ry

     The total energy is the sum of the following terms:

     one-electron contribution =     -56.87604951 Ry
     hartree contribution      =      39.20640305 Ry
     xc contribution           =     -32.98434183 Ry
     ewald contribution        =    -183.92752007 Ry
     smearing contrib. (-TS)   =       0.00011406 Ry

     convergence has been achieved in   5 iterations

     Forces acting on atoms (cartesian axes, Ry/au):

     atom    1 type  2   force =     0.00000000    0.00000000    0.00000000
     atom    2 type  1   force =     0.00000000    0.00000000    0.00000000

     Total force =     0.000000     Total SCF correction =     0.000000


     Computing stress (Cartesian axis) and pressure

          total   stress  (Ry/bohr**3)                   (kbar)     P=    0.00
  -0.00000007   0.00000000   0.00000000         -0.01      0.00      0.00
  -0.00000000   0.00000005   0.00000039         -0.00      0.01      0.06
   0.00000000   0.00000039   0.00000005          0.00      0.06      0.01


     bfgs converged in  13 scf cycles and  12 bfgs steps
     (criteria: energy <  1.0E-10 Ry, force <  1.0E-05Ry/Bohr, cell <  1.0E-03kbar)

     End of BFGS Geometry Optimization

     Final enthalpy =    -234.5813942957 Ry
Begin final coordinates
     new unit-cell volume =    236.85273 a.u.^3 (    35.09795 Ang^3 )
     density =      6.66021 g/cm^3

CELL_PARAMETERS (alat=  1.88972599)
  -1.631842898   1.636858865  -1.636858865
  -1.631842898  -1.636858865   1.636858865
   0.000000000   3.284976799   3.284976799

ATOMIC_POSITIONS (angstrom)
Ti      -1.631842898   1.642488399   1.642488399
Nb      -3.263685796   3.284976799   3.284976799
End final coordinates



     A final scf calculation at the relaxed structure.
     The G-vectors are recalculated for the final unit cell
     Results may differ from those at the preceding step.
 
     G-vector sticks info
     --------------------
     sticks:   dense  smooth     PW     G-vecs:    dense   smooth      PW
     Sum        1067     423    137                44645    11269    2127
 


     bravais-lattice index     =            0
     lattice parameter (alat)  =       1.8897  a.u.
     unit-cell volume          =     236.8527 (a.u.)^3
     number of atoms/cell      =            2
     number of atomic types    =            2
     number of electrons       =        25.00
     number of Kohn-Sham states=           17
     kinetic-energy cutoff     =      50.0000  Ry
     charge density cutoff     =     500.0000  Ry
     convergence threshold     =      1.0E-12
     mixing beta               =       0.6000
     number of iterations used =            8  plain     mixing
     Exchange-correlation      = SLA PW PBE PBE ( 1  4  3  4 0 0)

     celldm(1)=   1.889726  celldm(2)=   0.000000  celldm(3)=   0.000000
     celldm(4)=   0.000000  celldm(5)=   0.000000  celldm(6)=   0.000000

     crystal axes: (cart. coord. in units of alat)
               a(1) = (  -1.631843   1.636859  -1.636859 )  
               a(2) = (  -1.631843  -1.636859   1.636859 )  
               a(3) = (   0.000000   3.284977   3.284977 )  

     reciprocal axes: (cart. coord. in units 2 pi/alat)
               b(1) = ( -0.306402  0.152732 -0.152732 )  
               b(2) = ( -0.306402 -0.152732  0.152732 )  
               b(3) = (  0.000000  0.152208  0.152208 )  


     PseudoPot. # 1 for Nb read from file:
     /home/u16/abhishekkt/fp/krishna/calculations/pseudopotentials/Nb.pbe-nsp-van.UPF
     MD5 check sum: c44c1a86bf31974e1e832c2ec821fd5f
     Pseudo is Ultrasoft + core correction, Zval = 13.0
     Generated by new atomic code, or converted to UPF format
     Using radial grid of  887 points,  6 beta functions with: 
                l(1) =   0
                l(2) =   0
                l(3) =   1
                l(4) =   1
                l(5) =   2
                l(6) =   2
     Q(r) pseudized with  6 coefficients,  rinner =    1.000   1.000   1.000
                                                       1.000   1.000

     PseudoPot. # 2 for Ti read from file:
     /home/u16/abhishekkt/fp/krishna/calculations/pseudopotentials/Ti.pbe-sp-van_ak.UPF
     MD5 check sum: 84d3ec9e8983e94242673103c800fb48
     Pseudo is Ultrasoft, Zval = 12.0
     Generated by new atomic code, or converted to UPF format
     Using radial grid of  851 points,  6 beta functions with: 
                l(1) =   0
                l(2) =   0
                l(3) =   1
                l(4) =   1
                l(5) =   2
                l(6) =   2
     Q(r) pseudized with  8 coefficients,  rinner =    1.000   1.000   1.000
                                                       1.000   1.000

     atomic species   valence    mass     pseudopotential
        Nb            13.00    92.90638     Nb( 1.00)
        Ti            12.00    47.86700     Ti( 1.00)

      8 Sym. Ops., with inversion, found



   Cartesian axes

     site n.     atom                  positions (alat units)
         1           Ti  tau(   1) = (  -1.6318430   1.6424885   1.6424885  )
         2           Nb  tau(   2) = (  -3.2636860   3.2849770   3.2849770  )

     number of k points=   700  Marzari-Vanderbilt smearing, width (Ry)=  0.0200

     Number of k-points >= 100: set verbosity='high' to print them.

     Dense  grid:    44645 G-vectors     FFT dimensions: (  40,  40,  64)

     Smooth grid:    11269 G-vectors     FFT dimensions: (  25,  25,  40)

     Estimated max dynamical RAM per process >     424.54 MB

     Initial potential from superposition of free atoms

     starting charge   23.99722, renormalised to   25.00000
     Starting wfcs are   23 randomized atomic wfcs

     total cpu time spent up to now is     9079.1 secs

     Self-consistent Calculation

     iteration #  1     ecut=    50.00 Ry     beta= 0.60
     Davidson diagonalization with overlap
     c_bands:  1 eigenvalues not converged
     c_bands:  1 eigenvalues not converged
     c_bands:  1 eigenvalues not converged
     c_bands:  1 eigenvalues not converged
     c_bands:  1 eigenvalues not converged
     c_bands:  1 eigenvalues not converged
     c_bands:  1 eigenvalues not converged
     c_bands:  1 eigenvalues not converged
     c_bands:  1 eigenvalues not converged
     c_bands:  1 eigenvalues not converged
     ethr =  1.00E-06,  avg # of iterations = 10.0

     total cpu time spent up to now is     9161.1 secs

     total energy              =    -229.95823734 Ry
     Harris-Foulkes estimate   =    -235.49201748 Ry
     estimated scf accuracy    <       6.99205775 Ry

     iteration #  2     ecut=    50.00 Ry     beta= 0.60
     Davidson diagonalization with overlap
     ethr =  1.00E-02,  avg # of iterations =  5.1

     total cpu time spent up to now is     9214.8 secs

     total energy              =    -233.84163243 Ry
     Harris-Foulkes estimate   =    -242.26297687 Ry
     estimated scf accuracy    <      23.58062117 Ry

     iteration #  3     ecut=    50.00 Ry     beta= 0.60
     Davidson diagonalization with overlap
     ethr =  1.00E-02,  avg # of iterations =  4.1

     total cpu time spent up to now is     9257.8 secs

     total energy              =    -234.99331929 Ry
     Harris-Foulkes estimate   =    -235.28428209 Ry
     estimated scf accuracy    <       4.20318568 Ry

     iteration #  4     ecut=    50.00 Ry     beta= 0.60
     Davidson diagonalization with overlap
     ethr =  1.00E-02,  avg # of iterations =  1.0

     total cpu time spent up to now is     9285.4 secs

     total energy              =    -234.49990365 Ry
     Harris-Foulkes estimate   =    -235.01311580 Ry
     estimated scf accuracy    <       3.13847041 Ry

     iteration #  5     ecut=    50.00 Ry     beta= 0.60
     Davidson diagonalization with overlap
     ethr =  1.00E-02,  avg # of iterations =  1.4

     total cpu time spent up to now is     9316.5 secs

     total energy              =    -234.44607450 Ry
     Harris-Foulkes estimate   =    -234.60932179 Ry
     estimated scf accuracy    <       0.65143326 Ry

     iteration #  6     ecut=    50.00 Ry     beta= 0.60
     Davidson diagonalization with overlap
     ethr =  2.61E-03,  avg # of iterations =  4.4

     total cpu time spent up to now is     9353.1 secs

     total energy              =    -234.54674724 Ry
     Harris-Foulkes estimate   =    -234.61102765 Ry
     estimated scf accuracy    <       0.42316428 Ry

     iteration #  7     ecut=    50.00 Ry     beta= 0.60
     Davidson diagonalization with overlap
     ethr =  1.69E-03,  avg # of iterations =  1.2

     total cpu time spent up to now is     9383.0 secs

     total energy              =    -234.57731046 Ry
     Harris-Foulkes estimate   =    -234.57715157 Ry
     estimated scf accuracy    <       0.00365704 Ry

     iteration #  8     ecut=    50.00 Ry     beta= 0.60
     Davidson diagonalization with overlap
     ethr =  1.46E-05,  avg # of iterations =  5.4

     total cpu time spent up to now is     9430.9 secs

     total energy              =    -234.57550809 Ry
     Harris-Foulkes estimate   =    -234.58321253 Ry
     estimated scf accuracy    <       0.02818785 Ry

     iteration #  9     ecut=    50.00 Ry     beta= 0.60
     Davidson diagonalization with overlap
     ethr =  1.46E-05,  avg # of iterations =  4.6

     total cpu time spent up to now is     9472.6 secs

     total energy              =    -234.57945835 Ry
     Harris-Foulkes estimate   =    -234.58365915 Ry
     estimated scf accuracy    <       0.03058453 Ry

     iteration # 10     ecut=    50.00 Ry     beta= 0.60
     Davidson diagonalization with overlap
     ethr =  1.46E-05,  avg # of iterations =  4.0

     total cpu time spent up to now is     9506.1 secs

     total energy              =    -234.58101402 Ry
     Harris-Foulkes estimate   =    -234.58120332 Ry
     estimated scf accuracy    <       0.00046371 Ry

     iteration # 11     ecut=    50.00 Ry     beta= 0.60
     Davidson diagonalization with overlap
     ethr =  1.85E-06,  avg # of iterations =  4.8

     total cpu time spent up to now is     9550.0 secs

     total energy              =    -234.58088479 Ry
     Harris-Foulkes estimate   =    -234.58136730 Ry
     estimated scf accuracy    <       0.00249099 Ry

     iteration # 12     ecut=    50.00 Ry     beta= 0.60
     Davidson diagonalization with overlap
     ethr =  1.85E-06,  avg # of iterations =  4.3

     total cpu time spent up to now is     9585.3 secs

     total energy              =    -234.58116158 Ry
     Harris-Foulkes estimate   =    -234.58118432 Ry
     estimated scf accuracy    <       0.00023060 Ry

     iteration # 13     ecut=    50.00 Ry     beta= 0.60
     Davidson diagonalization with overlap
     ethr =  9.22E-07,  avg # of iterations =  1.0

     total cpu time spent up to now is     9613.3 secs

     total energy              =    -234.58116046 Ry
     Harris-Foulkes estimate   =    -234.58116843 Ry
     estimated scf accuracy    <       0.00004614 Ry

     iteration # 14     ecut=    50.00 Ry     beta= 0.60
     Davidson diagonalization with overlap
     ethr =  1.85E-07,  avg # of iterations =  2.8

     total cpu time spent up to now is     9642.1 secs

     total energy              =    -234.58116723 Ry
     Harris-Foulkes estimate   =    -234.58116779 Ry
     estimated scf accuracy    <       0.00000640 Ry

     iteration # 15     ecut=    50.00 Ry     beta= 0.60
     Davidson diagonalization with overlap
     ethr =  2.56E-08,  avg # of iterations =  1.7

     total cpu time spent up to now is     9673.7 secs

     total energy              =    -234.58116720 Ry
     Harris-Foulkes estimate   =    -234.58116749 Ry
     estimated scf accuracy    <       0.00000207 Ry

     iteration # 16     ecut=    50.00 Ry     beta= 0.60
     Davidson diagonalization with overlap
     ethr =  8.29E-09,  avg # of iterations =  2.1

     total cpu time spent up to now is     9700.1 secs

     total energy              =    -234.58116728 Ry
     Harris-Foulkes estimate   =    -234.58116732 Ry
     estimated scf accuracy    <       0.00000016 Ry

     iteration # 17     ecut=    50.00 Ry     beta= 0.60
     Davidson diagonalization with overlap
     ethr =  6.27E-10,  avg # of iterations =  3.8

     total cpu time spent up to now is     9736.2 secs

     total energy              =    -234.58116732 Ry
     Harris-Foulkes estimate   =    -234.58116733 Ry
     estimated scf accuracy    <       0.00000003 Ry

     iteration # 18     ecut=    50.00 Ry     beta= 0.60
     Davidson diagonalization with overlap
     ethr =  1.10E-10,  avg # of iterations =  1.5

     total cpu time spent up to now is     9761.7 secs

     total energy              =    -234.58116732 Ry
     Harris-Foulkes estimate   =    -234.58116732 Ry
     estimated scf accuracy    <          5.3E-10 Ry

     iteration # 19     ecut=    50.00 Ry     beta= 0.60
     Davidson diagonalization with overlap
     ethr =  2.11E-12,  avg # of iterations =  4.3

     total cpu time spent up to now is     9805.1 secs

     total energy              =    -234.58116732 Ry
     Harris-Foulkes estimate   =    -234.58116732 Ry
     estimated scf accuracy    <          6.2E-10 Ry

     iteration # 20     ecut=    50.00 Ry     beta= 0.60
     Davidson diagonalization with overlap
     ethr =  2.11E-12,  avg # of iterations =  1.2

     total cpu time spent up to now is     9834.6 secs

     total energy              =    -234.58116732 Ry
     Harris-Foulkes estimate   =    -234.58116732 Ry
     estimated scf accuracy    <          2.4E-11 Ry

     iteration # 21     ecut=    50.00 Ry     beta= 0.60
     Davidson diagonalization with overlap
     ethr =  1.00E-13,  avg # of iterations =  4.0

     total cpu time spent up to now is     9868.5 secs

     total energy              =    -234.58116732 Ry
     Harris-Foulkes estimate   =    -234.58116732 Ry
     estimated scf accuracy    <          3.9E-11 Ry

     iteration # 22     ecut=    50.00 Ry     beta= 0.60
     Davidson diagonalization with overlap
     ethr =  1.00E-13,  avg # of iterations =  1.1

     total cpu time spent up to now is     9896.8 secs

     total energy              =    -234.58116732 Ry
     Harris-Foulkes estimate   =    -234.58116732 Ry
     estimated scf accuracy    <          2.5E-12 Ry

     iteration # 23     ecut=    50.00 Ry     beta= 0.60
     Davidson diagonalization with overlap
     ethr =  1.00E-13,  avg # of iterations =  1.0

     total cpu time spent up to now is     9923.5 secs

     End of self-consistent calculation

     Number of k-points >= 100: set verbosity='high' to print the bands.

     the Fermi energy is    15.7355 ev

!    total energy              =    -234.58116732 Ry
     Harris-Foulkes estimate   =    -234.58116732 Ry
     estimated scf accuracy    <          2.9E-13 Ry

     The total energy is the sum of the following terms:

     one-electron contribution =     -56.87586529 Ry
     hartree contribution      =      39.20656651 Ry
     xc contribution           =     -32.98446259 Ry
     ewald contribution        =    -183.92752007 Ry
     smearing contrib. (-TS)   =       0.00011412 Ry

     convergence has been achieved in  23 iterations

     Forces acting on atoms (cartesian axes, Ry/au):

     atom    1 type  2   force =     0.00000000    0.00000000    0.00000000
     atom    2 type  1   force =     0.00000000    0.00000000    0.00000000

     Total force =     0.000000     Total SCF correction =     0.000000


     Computing stress (Cartesian axis) and pressure

          total   stress  (Ry/bohr**3)                   (kbar)     P=   -0.84
  -0.00000569   0.00000000  -0.00000000         -0.84      0.00     -0.00
   0.00000000  -0.00000575   0.00000062          0.00     -0.85      0.09
  -0.00000000   0.00000062  -0.00000575         -0.00      0.09     -0.85

 
     init_run     :     31.85s CPU     34.85s WALL (       2 calls)
     electrons    :   9217.37s CPU   9566.98s WALL (      14 calls)
     update_pot   :     33.06s CPU     35.78s WALL (      12 calls)
     forces       :     59.28s CPU     62.36s WALL (      14 calls)
     stress       :    201.64s CPU    211.15s WALL (      14 calls)

     Called by init_run:
     wfcinit      :     27.60s CPU     28.15s WALL (       2 calls)
     potinit      :      1.00s CPU      3.19s WALL (       2 calls)
     hinit0       :      2.87s CPU      2.89s WALL (       2 calls)

     Called by electrons:
     c_bands      :   7722.47s CPU   7937.43s WALL (     256 calls)
     sum_band     :   1413.07s CPU   1470.84s WALL (     256 calls)
     v_of_rho     :     16.73s CPU     17.94s WALL (     262 calls)
     newd         :     66.67s CPU    116.10s WALL (     262 calls)
     mix_rho      :      1.81s CPU      1.83s WALL (     256 calls)

     Called by c_bands:
     init_us_2    :    330.73s CPU    333.84s WALL (  379400 calls)
     cegterg      :   6666.13s CPU   6739.09s WALL (  179200 calls)

     Called by sum_band:
     sum_band:bec :      2.36s CPU      2.29s WALL (  179200 calls)
     addusdens    :     77.74s CPU    123.16s WALL (     256 calls)

     Called by *egterg:
     h_psi        :   5357.40s CPU   5418.01s WALL (  657633 calls)
     s_psi        :    162.89s CPU    163.50s WALL (  657633 calls)
     g_psi        :     63.71s CPU     64.15s WALL (  477033 calls)
     cdiaghg      :    361.90s CPU    367.08s WALL (  642233 calls)

     Called by h_psi:
     h_psi:pot    :   5328.82s CPU   5388.89s WALL (  657633 calls)
     h_psi:calbec :    177.06s CPU    177.91s WALL (  657633 calls)
     vloc_psi     :   4978.88s CPU   5034.49s WALL (  657633 calls)
     add_vuspsi   :    170.15s CPU    172.82s WALL (  657633 calls)

     General routines
     calbec       :    255.44s CPU    255.89s WALL (  885833 calls)
     fft          :      6.03s CPU      6.05s WALL (    3762 calls)
     ffts         :      0.15s CPU      0.16s WALL (     518 calls)
     fftw         :   5314.24s CPU   5368.90s WALL (18191904 calls)
     interpolate  :      0.58s CPU      0.59s WALL (     262 calls)
 
     Parallel routines
 
     PWSCF        :     2h39m CPU       39h 2m WALL

      45h
 
   This run was terminated on:  16:25:59  13Jan2020            

=------------------------------------------------------------------------------=
   JOB DONE.
=------------------------------------------------------------------------------=
