
     Program PWSCF v.6.0 (svn rev. 13079) starts on  2May2018 at 19:47:29 

     This program is part of the open-source Quantum ESPRESSO suite
     for quantum simulation of materials; please cite
         "P. Giannozzi et al., J. Phys.:Condens. Matter 21 395502 (2009);
          URL http://www.quantum-espresso.org", 
     in publications or presentations arising from this work. More details at
     http://www.quantum-espresso.org/quote

     Parallel version (MPI), running on     4 processors
     R & G space division:  proc/nbgrp/npool/nimage =       4
     Waiting for input...
     Reading input from standard input

     Current dimensions of program PWSCF are:
     Max number of different atomic species (ntypx) = 10
     Max number of k-points (npk) =  40000
     Max angular momentum in pseudopotentials (lmaxx) =  3

     Subspace diagonalization in iterative solution of the eigenvalue problem:
     a serial algorithm will be used


     Parallelization info
     --------------------
     sticks:   dense  smooth     PW     G-vecs:    dense   smooth      PW
     Min        2175     871    275                48492    12243    2221
     Max        2176     873    276                48493    12244    2222
     Sum        8701    3489   1101               193969    48973    8887



     bravais-lattice index     =            0
     lattice parameter (alat)  =       1.8897  a.u.
     unit-cell volume          =    1026.6786 (a.u.)^3
     number of atoms/cell      =            7
     number of atomic types    =            2
     number of electrons       =        88.00
     number of Kohn-Sham states=           53
     kinetic-energy cutoff     =      50.0000  Ry
     charge density cutoff     =     500.0000  Ry
     convergence threshold     =      1.0E-10
     mixing beta               =       0.6000
     number of iterations used =            8  plain     mixing
     Exchange-correlation      = SLA  PW   PBE  PBE ( 1  4  3  4 0 0)
     nstep                     =           50


     celldm(1)=   1.889726  celldm(2)=   0.000000  celldm(3)=   0.000000
     celldm(4)=   0.000000  celldm(5)=   0.000000  celldm(6)=   0.000000

     crystal axes: (cart. coord. in units of alat)
               a(1) = (  -1.758031  12.306221  -1.758031 )  
               a(2) = (   1.758031  12.306221   1.758031 )  
               a(3) = (   1.758031 -12.306221  -1.758031 )  

     reciprocal axes: (cart. coord. in units 2 pi/alat)
               b(1) = (  0.000000  0.040630 -0.284409 )  
               b(2) = (  0.284409  0.040630  0.000000 )  
               b(3) = (  0.284409  0.000000 -0.284409 )  


     PseudoPot. # 1 for Nb read from file:
     ./Nb.pbe-nsp-van.UPF
     MD5 check sum: 0a22fc7fb0ba19a08ca5db297a5d2854
     Pseudo is Ultrasoft + core correction, Zval = 13.0
     Generated by new atomic code, or converted to UPF format
     Using radial grid of  887 points,  6 beta functions with: 
                l(1) =   0
                l(2) =   0
                l(3) =   1
                l(4) =   1
                l(5) =   2
                l(6) =   2
     Q(r) pseudized with  6 coefficients,  rinner =    1.000   1.000   1.000
                                                       1.000   1.000

     PseudoPot. # 2 for Ti read from file:
     ./Ti.pbe-sp-van_ak.UPF
     MD5 check sum: f98fea3e8887528921fefa5636a534ca
     Pseudo is Ultrasoft, Zval = 12.0
     Generated by new atomic code, or converted to UPF format
     Using radial grid of  851 points,  6 beta functions with: 
                l(1) =   0
                l(2) =   0
                l(3) =   1
                l(4) =   1
                l(5) =   2
                l(6) =   2
     Q(r) pseudized with  8 coefficients,  rinner =    1.000   1.000   1.000
                                                       1.000   1.000

     atomic species   valence    mass     pseudopotential
        Nb            13.00    92.90638     Nb( 1.00)
        Ti            12.00    47.86700     Ti( 1.00)

      8 Sym. Ops. (no inversion) found



   Cartesian axes

     site n.     atom                  positions (alat units)
         1           Ti  tau(   1) = (   1.7580316   1.7580316  -1.7580316  )
         2           Ti  tau(   2) = (   1.7580316   5.2740949  -1.7580316  )
         3           Nb  tau(   3) = (   1.7580316   8.7901582  -1.7580316  )
         4           Nb  tau(   4) = (   1.7580316  12.3062214  -1.7580316  )
         5           Ti  tau(   5) = (   1.7580316  -8.7901582  -1.7580316  )
         6           Nb  tau(   6) = (   1.7580316  -5.2740949  -1.7580316  )
         7           Nb  tau(   7) = (   1.7580316  -1.7580316  -1.7580316  )

     number of k points=   126  Marzari-Vanderbilt smearing, width (Ry)=  0.0200

     Number of k-points >= 100: set verbosity='high' to print them.

     Dense  grid:   193969 G-vectors     FFT dimensions: ( 180, 180, 180)

     Smooth grid:    48973 G-vectors     FFT dimensions: ( 108, 108, 108)

     Estimated max dynamical RAM per process >     291.68Mb

     Estimated total allocated dynamical RAM >    1166.71Mb

     Initial potential from superposition of free atoms

     starting charge   84.98893, renormalised to   88.00000
     Starting wfc are   82 randomized atomic wfcs

     total cpu time spent up to now is      463.8 secs

     per-process dynamical memory:   351.0 Mb

     Self-consistent Calculation

     iteration #  1     ecut=    50.00 Ry     beta=0.60
     Davidson diagonalization with overlap
     ethr =  1.00E-02,  avg # of iterations =  4.9

     total cpu time spent up to now is     1624.2 secs

     total energy              =    -575.22847029 Ry
     Harris-Foulkes estimate   =    -857.80158427 Ry
     estimated scf accuracy    <     341.36799535 Ry

     iteration #  2     ecut=    50.00 Ry     beta=0.60
     Davidson diagonalization with overlap
     c_bands:  3 eigenvalues not converged
     c_bands:  1 eigenvalues not converged
     c_bands:  1 eigenvalues not converged
     c_bands:  1 eigenvalues not converged
     c_bands:  1 eigenvalues not converged
     c_bands:  1 eigenvalues not converged
     c_bands:  1 eigenvalues not converged
     c_bands:  2 eigenvalues not converged
     c_bands:  2 eigenvalues not converged
     c_bands:  1 eigenvalues not converged
     c_bands:  2 eigenvalues not converged
     c_bands:  2 eigenvalues not converged
     c_bands:  3 eigenvalues not converged
     c_bands:  3 eigenvalues not converged
     c_bands:  2 eigenvalues not converged
     c_bands:  1 eigenvalues not converged
     c_bands:  1 eigenvalues not converged
     ethr =  1.00E-02,  avg # of iterations = 18.0

     total cpu time spent up to now is     5289.7 secs

     total energy              =    -743.78620082 Ry
     Harris-Foulkes estimate   =   -1525.64152851 Ry
     estimated scf accuracy    <    2894.81587351 Ry

     iteration #  3     ecut=    50.00 Ry     beta=0.60
     Davidson diagonalization with overlap
     ethr =  1.00E-02,  avg # of iterations =  8.1

     total cpu time spent up to now is     7505.6 secs

     total energy              =    -830.24904717 Ry
     Harris-Foulkes estimate   =    -922.16630113 Ry
     estimated scf accuracy    <     442.40117857 Ry

     iteration #  4     ecut=    50.00 Ry     beta=0.60
     Davidson diagonalization with overlap
     ethr =  1.00E-02,  avg # of iterations =  6.2

     total cpu time spent up to now is     8901.1 secs

     total energy              =    -822.61285605 Ry
     Harris-Foulkes estimate   =    -846.21627602 Ry
     estimated scf accuracy    <     287.15534146 Ry

     iteration #  5     ecut=    50.00 Ry     beta=0.60
     Davidson diagonalization with overlap
     ethr =  1.00E-02,  avg # of iterations =  6.6

     total cpu time spent up to now is    10006.1 secs

     total energy              =    -819.51617321 Ry
     Harris-Foulkes estimate   =    -830.26284678 Ry
     estimated scf accuracy    <      94.24475334 Ry

     iteration #  6     ecut=    50.00 Ry     beta=0.60
     Davidson diagonalization with overlap
     ethr =  1.00E-02,  avg # of iterations =  4.2

     total cpu time spent up to now is    10961.9 secs

     total energy              =    -822.73438360 Ry
     Harris-Foulkes estimate   =    -823.43327890 Ry
     estimated scf accuracy    <      27.59001767 Ry

     iteration #  7     ecut=    50.00 Ry     beta=0.60
     Davidson diagonalization with overlap
     ethr =  1.00E-02,  avg # of iterations =  1.5

     total cpu time spent up to now is    11746.3 secs

     total energy              =    -822.69117542 Ry
     Harris-Foulkes estimate   =    -822.82391658 Ry
     estimated scf accuracy    <      21.87227355 Ry

     iteration #  8     ecut=    50.00 Ry     beta=0.60
     Davidson diagonalization with overlap
     ethr =  1.00E-02,  avg # of iterations =  1.0

     total cpu time spent up to now is    12526.7 secs

     total energy              =    -821.29558804 Ry
     Harris-Foulkes estimate   =    -822.72004220 Ry
     estimated scf accuracy    <      20.33273614 Ry

     iteration #  9     ecut=    50.00 Ry     beta=0.60
     Davidson diagonalization with overlap
     ethr =  1.00E-02,  avg # of iterations =  2.5

     total cpu time spent up to now is    13321.7 secs

     total energy              =    -821.17738604 Ry
     Harris-Foulkes estimate   =    -821.63451065 Ry
     estimated scf accuracy    <       5.61986892 Ry

     iteration # 10     ecut=    50.00 Ry     beta=0.60
     Davidson diagonalization with overlap
     ethr =  6.39E-03,  avg # of iterations =  7.6

     total cpu time spent up to now is    14355.4 secs

     total energy              =    -825.67805291 Ry
     Harris-Foulkes estimate   =    -822.38088636 Ry
     estimated scf accuracy    <      27.75425829 Ry

     iteration # 11     ecut=    50.00 Ry     beta=0.60
     Davidson diagonalization with overlap
     ethr =  6.39E-03,  avg # of iterations =  5.1

     total cpu time spent up to now is    15476.7 secs

     total energy              =    -817.00117815 Ry
     Harris-Foulkes estimate   =    -830.02706200 Ry
     estimated scf accuracy    <     240.98981376 Ry

     iteration # 12     ecut=    50.00 Ry     beta=0.60
     Davidson diagonalization with overlap
     ethr =  6.39E-03,  avg # of iterations =  6.1

     total cpu time spent up to now is    16556.4 secs

     total energy              =    -821.14881971 Ry
     Harris-Foulkes estimate   =    -822.18549328 Ry
     estimated scf accuracy    <      13.80403373 Ry

     iteration # 13     ecut=    50.00 Ry     beta=0.60
     Davidson diagonalization with overlap
     ethr =  6.39E-03,  avg # of iterations =  1.4

     total cpu time spent up to now is    17339.6 secs

     total energy              =    -821.11283178 Ry
     Harris-Foulkes estimate   =    -821.64721561 Ry
     estimated scf accuracy    <       7.68761625 Ry

     iteration # 14     ecut=    50.00 Ry     beta=0.60
     Davidson diagonalization with overlap
     ethr =  6.39E-03,  avg # of iterations =  1.0

     total cpu time spent up to now is    18115.1 secs

     total energy              =    -821.86703105 Ry
     Harris-Foulkes estimate   =    -822.05710390 Ry
     estimated scf accuracy    <      21.85491817 Ry

     iteration # 15     ecut=    50.00 Ry     beta=0.60
     Davidson diagonalization with overlap
     ethr =  6.39E-03,  avg # of iterations =  1.0

     total cpu time spent up to now is    18893.3 secs

     total energy              =    -821.69356895 Ry
     Harris-Foulkes estimate   =    -821.93918306 Ry
     estimated scf accuracy    <      19.81619753 Ry

     iteration # 16     ecut=    50.00 Ry     beta=0.60
     Davidson diagonalization with overlap
     ethr =  6.39E-03,  avg # of iterations =  1.0

     total cpu time spent up to now is    19673.1 secs

     total energy              =    -821.65965777 Ry
     Harris-Foulkes estimate   =    -821.76889502 Ry
     estimated scf accuracy    <      14.64346759 Ry

     iteration # 17     ecut=    50.00 Ry     beta=0.60
     Davidson diagonalization with overlap
     ethr =  6.39E-03,  avg # of iterations =  1.0

     total cpu time spent up to now is    20447.9 secs

     total energy              =    -821.70433294 Ry
     Harris-Foulkes estimate   =    -821.71997512 Ry
     estimated scf accuracy    <      11.61525973 Ry

     iteration # 18     ecut=    50.00 Ry     beta=0.60
     Davidson diagonalization with overlap
     ethr =  6.39E-03,  avg # of iterations =  1.0

     total cpu time spent up to now is    21223.8 secs

     total energy              =    -821.44779518 Ry
     Harris-Foulkes estimate   =    -821.72338570 Ry
     estimated scf accuracy    <      12.14281528 Ry

     iteration # 19     ecut=    50.00 Ry     beta=0.60
     Davidson diagonalization with overlap
     ethr =  6.39E-03,  avg # of iterations =  1.0

     total cpu time spent up to now is    22002.3 secs

     total energy              =    -821.46046777 Ry
     Harris-Foulkes estimate   =    -821.54609923 Ry
     estimated scf accuracy    <       2.17484172 Ry

     iteration # 20     ecut=    50.00 Ry     beta=0.60
     Davidson diagonalization with overlap
     ethr =  2.47E-03,  avg # of iterations =  1.0

     total cpu time spent up to now is    22783.7 secs

     total energy              =    -821.50630222 Ry
     Harris-Foulkes estimate   =    -821.51420435 Ry
     estimated scf accuracy    <       0.11364567 Ry

     iteration # 21     ecut=    50.00 Ry     beta=0.60
     Davidson diagonalization with overlap
     ethr =  1.29E-04,  avg # of iterations =  7.1

     total cpu time spent up to now is    23932.5 secs

     total energy              =    -821.51479105 Ry
     Harris-Foulkes estimate   =    -821.53476185 Ry
     estimated scf accuracy    <       0.44208575 Ry

     iteration # 22     ecut=    50.00 Ry     beta=0.60
     Davidson diagonalization with overlap
     ethr =  1.29E-04,  avg # of iterations =  1.0

     total cpu time spent up to now is    24713.8 secs

     total energy              =    -821.51463876 Ry
     Harris-Foulkes estimate   =    -821.52062993 Ry
     estimated scf accuracy    <       0.26604186 Ry

     iteration # 23     ecut=    50.00 Ry     beta=0.60
     Davidson diagonalization with overlap
     ethr =  1.29E-04,  avg # of iterations =  2.3

     total cpu time spent up to now is    25508.4 secs

     total energy              =    -821.51150937 Ry
     Harris-Foulkes estimate   =    -821.51841011 Ry
     estimated scf accuracy    <       0.13661689 Ry

     iteration # 24     ecut=    50.00 Ry     beta=0.60
     Davidson diagonalization with overlap
     ethr =  1.29E-04,  avg # of iterations =  1.9

     total cpu time spent up to now is    26297.2 secs

     total energy              =    -821.51462935 Ry
     Harris-Foulkes estimate   =    -821.51665194 Ry
     estimated scf accuracy    <       0.02724684 Ry

     iteration # 25     ecut=    50.00 Ry     beta=0.60
     Davidson diagonalization with overlap
     ethr =  3.10E-05,  avg # of iterations =  6.3

     total cpu time spent up to now is    27437.2 secs

     total energy              =    -821.51499757 Ry
     Harris-Foulkes estimate   =    -821.52298759 Ry
     estimated scf accuracy    <       0.13293997 Ry

     iteration # 26     ecut=    50.00 Ry     beta=0.60
     Davidson diagonalization with overlap
     ethr =  3.10E-05,  avg # of iterations =  1.1

     total cpu time spent up to now is    28219.0 secs

     total energy              =    -821.51616737 Ry
     Harris-Foulkes estimate   =    -821.51747710 Ry
     estimated scf accuracy    <       0.01666527 Ry

     iteration # 27     ecut=    50.00 Ry     beta=0.60
     Davidson diagonalization with overlap
     ethr =  1.89E-05,  avg # of iterations =  4.9

     total cpu time spent up to now is    29142.2 secs

     total energy              =    -821.51728905 Ry
     Harris-Foulkes estimate   =    -821.51794386 Ry
     estimated scf accuracy    <       0.00478666 Ry

     iteration # 28     ecut=    50.00 Ry     beta=0.60
     Davidson diagonalization with overlap
     c_bands:  1 eigenvalues not converged
     c_bands:  2 eigenvalues not converged
     c_bands:  1 eigenvalues not converged
     c_bands:  1 eigenvalues not converged
     c_bands:  1 eigenvalues not converged
     c_bands:  1 eigenvalues not converged
     ethr =  5.44E-06,  avg # of iterations =  5.9

     total cpu time spent up to now is    30009.1 secs

     total energy              =    -821.51762675 Ry
     Harris-Foulkes estimate   =    -821.51771748 Ry
     estimated scf accuracy    <       0.00119780 Ry

     iteration # 29     ecut=    50.00 Ry     beta=0.60
     Davidson diagonalization with overlap
     ethr =  1.36E-06,  avg # of iterations =  5.7

     total cpu time spent up to now is    30914.0 secs

     total energy              =    -821.51771921 Ry
     Harris-Foulkes estimate   =    -821.51773906 Ry
     estimated scf accuracy    <       0.00021797 Ry

     iteration # 30     ecut=    50.00 Ry     beta=0.60
     Davidson diagonalization with overlap
     ethr =  2.48E-07,  avg # of iterations =  2.8

     total cpu time spent up to now is    31742.4 secs

     total energy              =    -821.51772423 Ry
     Harris-Foulkes estimate   =    -821.51773379 Ry
     estimated scf accuracy    <       0.00008281 Ry

     iteration # 31     ecut=    50.00 Ry     beta=0.60
     Davidson diagonalization with overlap
     ethr =  9.41E-08,  avg # of iterations =  3.9

     total cpu time spent up to now is    32629.1 secs

     total energy              =    -821.51773176 Ry
     Harris-Foulkes estimate   =    -821.51773416 Ry
     estimated scf accuracy    <       0.00001935 Ry

     iteration # 32     ecut=    50.00 Ry     beta=0.60
     Davidson diagonalization with overlap
     ethr =  2.20E-08,  avg # of iterations =  3.5

     total cpu time spent up to now is    33540.6 secs

     total energy              =    -821.51773181 Ry
     Harris-Foulkes estimate   =    -821.51773537 Ry
     estimated scf accuracy    <       0.00005169 Ry

     iteration # 33     ecut=    50.00 Ry     beta=0.60
     Davidson diagonalization with overlap
     ethr =  2.20E-08,  avg # of iterations =  2.7

     total cpu time spent up to now is    34362.8 secs

     total energy              =    -821.51773334 Ry
     Harris-Foulkes estimate   =    -821.51773372 Ry
     estimated scf accuracy    <       0.00000560 Ry

     iteration # 34     ecut=    50.00 Ry     beta=0.60
     Davidson diagonalization with overlap
     ethr =  6.37E-09,  avg # of iterations =  2.0

     total cpu time spent up to now is    35164.8 secs

     total energy              =    -821.51773366 Ry
     Harris-Foulkes estimate   =    -821.51773377 Ry
     estimated scf accuracy    <       0.00000246 Ry

     iteration # 35     ecut=    50.00 Ry     beta=0.60
     Davidson diagonalization with overlap
     ethr =  2.79E-09,  avg # of iterations =  1.5

     total cpu time spent up to now is    35946.6 secs

     total energy              =    -821.51773371 Ry
     Harris-Foulkes estimate   =    -821.51773375 Ry
     estimated scf accuracy    <       0.00000015 Ry

     iteration # 36     ecut=    50.00 Ry     beta=0.60
     Davidson diagonalization with overlap
     ethr =  1.69E-10,  avg # of iterations =  5.3

     total cpu time spent up to now is    37036.0 secs

     total energy              =    -821.51773377 Ry
     Harris-Foulkes estimate   =    -821.51773380 Ry
     estimated scf accuracy    <       0.00000026 Ry

     iteration # 37     ecut=    50.00 Ry     beta=0.60
     Davidson diagonalization with overlap
     ethr =  1.69E-10,  avg # of iterations =  2.9

     total cpu time spent up to now is    37870.3 secs

     total energy              =    -821.51773378 Ry
     Harris-Foulkes estimate   =    -821.51773379 Ry
     estimated scf accuracy    <       0.00000014 Ry

     iteration # 38     ecut=    50.00 Ry     beta=0.60
     Davidson diagonalization with overlap
     ethr =  1.64E-10,  avg # of iterations =  1.0

     total cpu time spent up to now is    38699.5 secs

     total energy              =    -821.51773378 Ry
     Harris-Foulkes estimate   =    -821.51773379 Ry
     estimated scf accuracy    <       0.00000008 Ry

     iteration # 39     ecut=    50.00 Ry     beta=0.60
     Davidson diagonalization with overlap
     ethr =  8.96E-11,  avg # of iterations =  1.0

     total cpu time spent up to now is    39481.4 secs

     total energy              =    -821.51773378 Ry
     Harris-Foulkes estimate   =    -821.51773378 Ry
     estimated scf accuracy    <       0.00000003 Ry

     iteration # 40     ecut=    50.00 Ry     beta=0.60
     Davidson diagonalization with overlap
     ethr =  3.31E-11,  avg # of iterations =  3.1

     total cpu time spent up to now is    40309.5 secs

     total energy              =    -821.51773378 Ry
     Harris-Foulkes estimate   =    -821.51773378 Ry
     estimated scf accuracy    <          2.0E-09 Ry

     iteration # 41     ecut=    50.00 Ry     beta=0.60
     Davidson diagonalization with overlap
     ethr =  2.32E-12,  avg # of iterations =  4.8

     total cpu time spent up to now is    41358.8 secs

     total energy              =    -821.51773378 Ry
     Harris-Foulkes estimate   =    -821.51773378 Ry
     estimated scf accuracy    <          4.9E-09 Ry

     iteration # 42     ecut=    50.00 Ry     beta=0.60
     Davidson diagonalization with overlap
     ethr =  2.32E-12,  avg # of iterations =  1.2

     total cpu time spent up to now is    42136.9 secs

     total energy              =    -821.51773378 Ry
     Harris-Foulkes estimate   =    -821.51773378 Ry
     estimated scf accuracy    <          1.8E-09 Ry

     iteration # 43     ecut=    50.00 Ry     beta=0.60
     Davidson diagonalization with overlap
     ethr =  2.01E-12,  avg # of iterations =  3.8

     total cpu time spent up to now is    43049.1 secs

     total energy              =    -821.51773378 Ry
     Harris-Foulkes estimate   =    -821.51773378 Ry
     estimated scf accuracy    <          3.3E-10 Ry

     iteration # 44     ecut=    50.00 Ry     beta=0.60
     Davidson diagonalization with overlap
     ethr =  3.74E-13,  avg # of iterations =  2.1

     total cpu time spent up to now is    43847.8 secs

     End of self-consistent calculation

     Number of k-points >= 100: set verbosity='high' to print the bands.

     the Fermi energy is    12.4977 ev

!    total energy              =    -821.51773378 Ry
     Harris-Foulkes estimate   =    -821.51773378 Ry
     estimated scf accuracy    <          9.4E-11 Ry

     The total energy is the sum of the following terms:

     one-electron contribution =    -253.16249681 Ry
     hartree contribution      =     152.84530390 Ry
     xc contribution           =    -116.12442836 Ry
     ewald contribution        =    -605.07442879 Ry
     smearing contrib. (-TS)   =      -0.00168372 Ry

     convergence has been achieved in  44 iterations

     Forces acting on atoms (Ry/au):

     atom    1 type  2   force =     0.00000000   -0.01501253    0.00000000
     atom    2 type  2   force =     0.00000000    0.01501451    0.00000000
     atom    3 type  1   force =     0.00000000   -0.00562600    0.00000000
     atom    4 type  1   force =     0.00000000   -0.01140030    0.00000000
     atom    5 type  2   force =     0.00000000    0.00000186   -0.00000000
     atom    6 type  1   force =    -0.00000000    0.01139847    0.00000000
     atom    7 type  1   force =     0.00000000    0.00562399   -0.00000000

     Total force =     0.027821     Total SCF correction =     0.000035


     entering subroutine stress ...

          total   stress  (Ry/bohr**3)                   (kbar)     P= -200.73
  -0.00135413  -0.00000000  -0.00000000       -199.20     -0.00     -0.00
   0.00000000  -0.00138540  -0.00000000          0.00   -203.80     -0.00
   0.00000000   0.00000000  -0.00135413          0.00      0.00   -199.20


     BFGS Geometry Optimization

     number of scf cycles    =   1
     number of bfgs steps    =   0

     enthalpy new            =    -821.5177337837 Ry

     new trust radius        =       0.2219535331 bohr
     new conv_thr            =            1.0E-10 Ry

     new unit-cell volume =    925.15017 a.u.^3 (   137.09311 Ang^3 )

CELL_PARAMETERS (alat=  1.88972599)
  -1.698516380  11.879994914  -1.698516380
   1.698516380  11.879994914   1.698516380
   1.698516380 -11.879994914  -1.698516380

ATOMIC_POSITIONS (angstrom)
Ti       1.698516380   1.689472992  -1.698516380
Ti       1.698516380   5.099096543  -1.698516380
Nb       1.698516380   8.482836615  -1.698516380
Nb       1.698516380  11.874171082  -1.698516380
Ti       1.698516380  -8.485709702  -1.698516380
Nb       1.698516380  -5.085603493  -1.698516380
Nb       1.698516380  -1.694269122  -1.698516380


     NEW-OLD atomic charge density approx. for the potential
     extrapolated charge   78.67309, renormalised to   88.00000

     total cpu time spent up to now is    43945.7 secs

     per-process dynamical memory:   400.3 Mb

     Self-consistent Calculation

     iteration #  1     ecut=    50.00 Ry     beta=0.60
     Davidson diagonalization with overlap
     c_bands:  1 eigenvalues not converged
     c_bands:  1 eigenvalues not converged
     c_bands:  2 eigenvalues not converged
     c_bands:  1 eigenvalues not converged
     c_bands:  1 eigenvalues not converged
     c_bands:  1 eigenvalues not converged
     c_bands:  1 eigenvalues not converged
     c_bands:  1 eigenvalues not converged
     c_bands:  2 eigenvalues not converged
     c_bands:  1 eigenvalues not converged
     c_bands:  1 eigenvalues not converged
     c_bands:  1 eigenvalues not converged
     c_bands:  1 eigenvalues not converged
     c_bands:  1 eigenvalues not converged
     c_bands:  1 eigenvalues not converged
     c_bands:  2 eigenvalues not converged
     c_bands:  1 eigenvalues not converged
     c_bands:  1 eigenvalues not converged
     c_bands:  1 eigenvalues not converged
     c_bands:  1 eigenvalues not converged
     c_bands:  1 eigenvalues not converged
     c_bands:  2 eigenvalues not converged
     c_bands:  1 eigenvalues not converged
     c_bands:  2 eigenvalues not converged
     c_bands:  1 eigenvalues not converged
     c_bands:  1 eigenvalues not converged
     c_bands:  1 eigenvalues not converged
     c_bands:  1 eigenvalues not converged
     c_bands:  1 eigenvalues not converged
     c_bands:  1 eigenvalues not converged
     c_bands:  1 eigenvalues not converged
     c_bands:  1 eigenvalues not converged
     c_bands:  1 eigenvalues not converged
     c_bands:  1 eigenvalues not converged
     c_bands:  2 eigenvalues not converged
     c_bands:  1 eigenvalues not converged
     c_bands:  1 eigenvalues not converged
     c_bands:  1 eigenvalues not converged
     c_bands:  1 eigenvalues not converged
     ethr =  1.00E-06,  avg # of iterations = 18.7

     total cpu time spent up to now is    47022.4 secs

     total energy              =    -744.13406886 Ry
     Harris-Foulkes estimate   =    -841.14209618 Ry
     estimated scf accuracy    <      93.10012834 Ry

     iteration #  2     ecut=    50.00 Ry     beta=0.60
     Davidson diagonalization with overlap
     ethr =  1.00E-02,  avg # of iterations = 10.3

     total cpu time spent up to now is    49478.0 secs

     total energy              =    -748.47182815 Ry
     Harris-Foulkes estimate   =   -1182.60264478 Ry
     estimated scf accuracy    <    2437.40206262 Ry

     iteration #  3     ecut=    50.00 Ry     beta=0.60
     Davidson diagonalization with overlap
     ethr =  1.00E-02,  avg # of iterations =  8.1

     total cpu time spent up to now is    51644.9 secs

     total energy              =    -827.11520329 Ry
     Harris-Foulkes estimate   =    -844.23924280 Ry
     estimated scf accuracy    <     113.57244686 Ry

     iteration #  4     ecut=    50.00 Ry     beta=0.60
     Davidson diagonalization with overlap
     ethr =  1.00E-02,  avg # of iterations =  5.1

     total cpu time spent up to now is    52751.3 secs

     total energy              =    -827.06339718 Ry
     Harris-Foulkes estimate   =    -831.58260160 Ry
     estimated scf accuracy    <     164.55937192 Ry

     iteration #  5     ecut=    50.00 Ry     beta=0.60
     Davidson diagonalization with overlap
     ethr =  1.00E-02,  avg # of iterations =  1.0

     total cpu time spent up to now is    53548.1 secs

     total energy              =    -817.84997841 Ry
     Harris-Foulkes estimate   =    -827.42823083 Ry
     estimated scf accuracy    <     103.87840841 Ry

     iteration #  6     ecut=    50.00 Ry     beta=0.60
     Davidson diagonalization with overlap
     ethr =  1.00E-02,  avg # of iterations =  4.7

     total cpu time spent up to now is    54661.6 secs

     total energy              =    -820.82348680 Ry
     Harris-Foulkes estimate   =    -822.56133976 Ry
     estimated scf accuracy    <      10.03645698 Ry

     iteration #  7     ecut=    50.00 Ry     beta=0.60
     Davidson diagonalization with overlap
     ethr =  1.00E-02,  avg # of iterations =  3.5

     total cpu time spent up to now is    55503.3 secs

     total energy              =    -822.69160414 Ry
     Harris-Foulkes estimate   =    -823.31027047 Ry
     estimated scf accuracy    <      44.61484094 Ry

     iteration #  8     ecut=    50.00 Ry     beta=0.60
     Davidson diagonalization with overlap
     ethr =  1.00E-02,  avg # of iterations =  1.2

     total cpu time spent up to now is    56279.5 secs

     total energy              =    -822.55781087 Ry
     Harris-Foulkes estimate   =    -823.10965016 Ry
     estimated scf accuracy    <      38.87078878 Ry

     iteration #  9     ecut=    50.00 Ry     beta=0.60
     Davidson diagonalization with overlap
     ethr =  1.00E-02,  avg # of iterations =  1.0

     total cpu time spent up to now is    57056.1 secs

     total energy              =    -822.71544223 Ry
     Harris-Foulkes estimate   =    -822.60946909 Ry
     estimated scf accuracy    <      29.31426818 Ry

     iteration # 10     ecut=    50.00 Ry     beta=0.60
     Davidson diagonalization with overlap
     ethr =  1.00E-02,  avg # of iterations =  1.0

     total cpu time spent up to now is    57834.0 secs

     total energy              =    -817.14907280 Ry
     Harris-Foulkes estimate   =    -822.72363781 Ry
     estimated scf accuracy    <      31.74618227 Ry

     iteration # 11     ecut=    50.00 Ry     beta=0.60
     Davidson diagonalization with overlap
     ethr =  1.00E-02,  avg # of iterations =  5.2

     total cpu time spent up to now is    58953.3 secs

     total energy              =    -819.23550034 Ry
     Harris-Foulkes estimate   =    -827.25528497 Ry
     estimated scf accuracy    <     134.39437129 Ry

     iteration # 12     ecut=    50.00 Ry     beta=0.60
     Davidson diagonalization with overlap
     ethr =  1.00E-02,  avg # of iterations =  2.6

     total cpu time spent up to now is    59780.4 secs

     total energy              =    -821.70912646 Ry
     Harris-Foulkes estimate   =    -821.80475821 Ry
     estimated scf accuracy    <      11.65506042 Ry

     iteration # 13     ecut=    50.00 Ry     beta=0.60
     Davidson diagonalization with overlap
     ethr =  1.00E-02,  avg # of iterations =  1.1

     total cpu time spent up to now is    60562.7 secs

     total energy              =    -821.73489837 Ry
     Harris-Foulkes estimate   =    -821.79104228 Ry
     estimated scf accuracy    <      11.05878587 Ry

     iteration # 14     ecut=    50.00 Ry     beta=0.60
     Davidson diagonalization with overlap
     ethr =  1.00E-02,  avg # of iterations =  1.0

     total cpu time spent up to now is    61339.5 secs

     total energy              =    -821.37224328 Ry
     Harris-Foulkes estimate   =    -821.76680065 Ry
     estimated scf accuracy    <       9.31121377 Ry

     iteration # 15     ecut=    50.00 Ry     beta=0.60
     Davidson diagonalization with overlap
     ethr =  1.00E-02,  avg # of iterations =  1.1

     total cpu time spent up to now is    62117.2 secs

     total energy              =    -821.52967902 Ry
     Harris-Foulkes estimate   =    -821.52502910 Ry
     estimated scf accuracy    <       1.08140495 Ry

     iteration # 16     ecut=    50.00 Ry     beta=0.60
     Davidson diagonalization with overlap
     ethr =  1.23E-03,  avg # of iterations =  6.3

     total cpu time spent up to now is    63165.7 secs

     total energy              =    -821.64397090 Ry
     Harris-Foulkes estimate   =    -821.65261843 Ry
     estimated scf accuracy    <       0.35930471 Ry

     iteration # 17     ecut=    50.00 Ry     beta=0.60
     Davidson diagonalization with overlap
     ethr =  4.08E-04,  avg # of iterations =  2.8

     total cpu time spent up to now is    63972.7 secs

     total energy              =    -821.62670447 Ry
     Harris-Foulkes estimate   =    -821.65762182 Ry
     estimated scf accuracy    <       1.10062651 Ry

     iteration # 18     ecut=    50.00 Ry     beta=0.60
     Davidson diagonalization with overlap
     ethr =  4.08E-04,  avg # of iterations =  1.1

     total cpu time spent up to now is    64753.8 secs

     total energy              =    -821.63163552 Ry
     Harris-Foulkes estimate   =    -821.64015192 Ry
     estimated scf accuracy    <       0.27809286 Ry

     iteration # 19     ecut=    50.00 Ry     beta=0.60
     Davidson diagonalization with overlap
     ethr =  3.16E-04,  avg # of iterations =  1.0

     total cpu time spent up to now is    65532.3 secs

     total energy              =    -821.62622651 Ry
     Harris-Foulkes estimate   =    -821.63399652 Ry
     estimated scf accuracy    <       0.11015786 Ry

     iteration # 20     ecut=    50.00 Ry     beta=0.60
     Davidson diagonalization with overlap
     ethr =  1.25E-04,  avg # of iterations =  2.6

     total cpu time spent up to now is    66333.0 secs

     total energy              =    -821.62911610 Ry
     Harris-Foulkes estimate   =    -821.63029811 Ry
     estimated scf accuracy    <       0.00518088 Ry

     iteration # 21     ecut=    50.00 Ry     beta=0.60
     Davidson diagonalization with overlap
     c_bands:  2 eigenvalues not converged
     c_bands:  2 eigenvalues not converged
     c_bands:  1 eigenvalues not converged
     c_bands:  1 eigenvalues not converged
     c_bands:  1 eigenvalues not converged
     ethr =  5.89E-06,  avg # of iterations =  8.1

     total cpu time spent up to now is    67590.2 secs

     total energy              =    -821.63045600 Ry
     Harris-Foulkes estimate   =    -821.63231668 Ry
     estimated scf accuracy    <       0.02703434 Ry

     iteration # 22     ecut=    50.00 Ry     beta=0.60
     Davidson diagonalization with overlap
     c_bands:  1 eigenvalues not converged
     ethr =  5.89E-06,  avg # of iterations =  4.7

     total cpu time spent up to now is    68511.6 secs

     total energy              =    -821.63120533 Ry
     Harris-Foulkes estimate   =    -821.63176573 Ry
     estimated scf accuracy    <       0.00696180 Ry

     iteration # 23     ecut=    50.00 Ry     beta=0.60
     Davidson diagonalization with overlap
     ethr =  5.89E-06,  avg # of iterations =  1.1

     total cpu time spent up to now is    69289.3 secs

     total energy              =    -821.63132490 Ry
     Harris-Foulkes estimate   =    -821.63150367 Ry
     estimated scf accuracy    <       0.00211783 Ry

     iteration # 24     ecut=    50.00 Ry     beta=0.60
     Davidson diagonalization with overlap
     ethr =  2.41E-06,  avg # of iterations =  3.6

     total cpu time spent up to now is    70143.4 secs

     total energy              =    -821.63143659 Ry
     Harris-Foulkes estimate   =    -821.63155622 Ry
     estimated scf accuracy    <       0.00076401 Ry

     iteration # 25     ecut=    50.00 Ry     beta=0.60
     Davidson diagonalization with overlap
     ethr =  8.68E-07,  avg # of iterations =  2.5

     total cpu time spent up to now is    70950.2 secs

     total energy              =    -821.63149149 Ry
     Harris-Foulkes estimate   =    -821.63150612 Ry
     estimated scf accuracy    <       0.00029905 Ry

     iteration # 26     ecut=    50.00 Ry     beta=0.60
     Davidson diagonalization with overlap
     ethr =  3.40E-07,  avg # of iterations =  2.0

     total cpu time spent up to now is    71736.2 secs

     total energy              =    -821.63150219 Ry
     Harris-Foulkes estimate   =    -821.63150506 Ry
     estimated scf accuracy    <       0.00002096 Ry

     iteration # 27     ecut=    50.00 Ry     beta=0.60
     Davidson diagonalization with overlap
     ethr =  2.38E-08,  avg # of iterations =  5.0

     total cpu time spent up to now is    72771.1 secs

     total energy              =    -821.63150664 Ry
     Harris-Foulkes estimate   =    -821.63151006 Ry
     estimated scf accuracy    <       0.00006277 Ry

     iteration # 28     ecut=    50.00 Ry     beta=0.60
     Davidson diagonalization with overlap
     ethr =  2.38E-08,  avg # of iterations =  1.5

     total cpu time spent up to now is    73552.4 secs

     total energy              =    -821.63150775 Ry
     Harris-Foulkes estimate   =    -821.63150829 Ry
     estimated scf accuracy    <       0.00000319 Ry

     iteration # 29     ecut=    50.00 Ry     beta=0.60
     Davidson diagonalization with overlap
     ethr =  3.62E-09,  avg # of iterations =  3.8

     total cpu time spent up to now is    74499.6 secs

     total energy              =    -821.63150822 Ry
     Harris-Foulkes estimate   =    -821.63150835 Ry
     estimated scf accuracy    <       0.00000107 Ry

     iteration # 30     ecut=    50.00 Ry     beta=0.60
     Davidson diagonalization with overlap
     ethr =  1.21E-09,  avg # of iterations =  1.4

     total cpu time spent up to now is    75280.1 secs

     total energy              =    -821.63150827 Ry
     Harris-Foulkes estimate   =    -821.63150830 Ry
     estimated scf accuracy    <       0.00000020 Ry

     iteration # 31     ecut=    50.00 Ry     beta=0.60
     Davidson diagonalization with overlap
     ethr =  2.22E-10,  avg # of iterations =  4.0

     total cpu time spent up to now is    76249.6 secs

     total energy              =    -821.63150829 Ry
     Harris-Foulkes estimate   =    -821.63150831 Ry
     estimated scf accuracy    <       0.00000011 Ry

     iteration # 32     ecut=    50.00 Ry     beta=0.60
     Davidson diagonalization with overlap
     ethr =  1.22E-10,  avg # of iterations =  1.0

     total cpu time spent up to now is    77028.0 secs

     total energy              =    -821.63150829 Ry
     Harris-Foulkes estimate   =    -821.63150830 Ry
     estimated scf accuracy    <       0.00000002 Ry

     iteration # 33     ecut=    50.00 Ry     beta=0.60
     Davidson diagonalization with overlap
     ethr =  2.42E-11,  avg # of iterations =  4.0

     total cpu time spent up to now is    78026.9 secs

     total energy              =    -821.63150830 Ry
     Harris-Foulkes estimate   =    -821.63150830 Ry
     estimated scf accuracy    <       0.00000004 Ry

     iteration # 34     ecut=    50.00 Ry     beta=0.60
     Davidson diagonalization with overlap
     ethr =  2.42E-11,  avg # of iterations =  2.0

     total cpu time spent up to now is    78816.7 secs

     total energy              =    -821.63150830 Ry
     Harris-Foulkes estimate   =    -821.63150830 Ry
     estimated scf accuracy    <       0.00000002 Ry

     iteration # 35     ecut=    50.00 Ry     beta=0.60
     Davidson diagonalization with overlap
     ethr =  1.78E-11,  avg # of iterations =  2.6

     total cpu time spent up to now is    79638.6 secs

     total energy              =    -821.63150830 Ry
     Harris-Foulkes estimate   =    -821.63150830 Ry
     estimated scf accuracy    <          1.6E-09 Ry

     iteration # 36     ecut=    50.00 Ry     beta=0.60
     Davidson diagonalization with overlap
     ethr =  1.85E-12,  avg # of iterations =  4.1

     total cpu time spent up to now is    80645.3 secs

     total energy              =    -821.63150830 Ry
     Harris-Foulkes estimate   =    -821.63150830 Ry
     estimated scf accuracy    <          3.5E-09 Ry

     iteration # 37     ecut=    50.00 Ry     beta=0.60
     Davidson diagonalization with overlap
     ethr =  1.85E-12,  avg # of iterations =  1.7

     total cpu time spent up to now is    81431.4 secs

     total energy              =    -821.63150830 Ry
     Harris-Foulkes estimate   =    -821.63150830 Ry
     estimated scf accuracy    <          5.7E-10 Ry

     iteration # 38     ecut=    50.00 Ry     beta=0.60
     Davidson diagonalization with overlap
     ethr =  6.48E-13,  avg # of iterations =  3.7

     total cpu time spent up to now is    82307.2 secs

     total energy              =    -821.63150830 Ry
     Harris-Foulkes estimate   =    -821.63150830 Ry
     estimated scf accuracy    <          1.8E-10 Ry

     iteration # 39     ecut=    50.00 Ry     beta=0.60
     Davidson diagonalization with overlap
     ethr =  2.04E-13,  avg # of iterations =  3.4

     total cpu time spent up to now is    83189.0 secs

     End of self-consistent calculation

     Number of k-points >= 100: set verbosity='high' to print the bands.

     the Fermi energy is    14.1857 ev

!    total energy              =    -821.63150830 Ry
     Harris-Foulkes estimate   =    -821.63150830 Ry
     estimated scf accuracy    <          8.7E-11 Ry

     The total energy is the sum of the following terms:

     one-electron contribution =    -222.17557589 Ry
     hartree contribution      =     143.51608854 Ry
     xc contribution           =    -116.72414430 Ry
     ewald contribution        =    -626.24659113 Ry
     smearing contrib. (-TS)   =      -0.00128552 Ry

     convergence has been achieved in  39 iterations

     Forces acting on atoms (Ry/au):

     atom    1 type  2   force =     0.00000000   -0.01140856    0.00000000
     atom    2 type  2   force =     0.00000000    0.01141310    0.00000000
     atom    3 type  1   force =     0.00000000   -0.00604165    0.00000000
     atom    4 type  1   force =    -0.00000000   -0.00247361    0.00000000
     atom    5 type  2   force =     0.00000000    0.00000400   -0.00000000
     atom    6 type  1   force =     0.00000000    0.00247052    0.00000000
     atom    7 type  1   force =     0.00000000    0.00603621   -0.00000000

     Total force =     0.018590     Total SCF correction =     0.000052


     entering subroutine stress ...

          total   stress  (Ry/bohr**3)                   (kbar)     P= -119.27
  -0.00080041  -0.00000000  -0.00000000       -117.74     -0.00     -0.00
  -0.00000000  -0.00083160  -0.00000000         -0.00   -122.33     -0.00
   0.00000000   0.00000000  -0.00080041          0.00      0.00   -117.74


     number of scf cycles    =   2
     number of bfgs steps    =   1

     enthalpy old            =    -821.5177337837 Ry
     enthalpy new            =    -821.6315082997 Ry

     CASE: enthalpy_new < enthalpy_old

     new trust radius        =       0.2750055355 bohr
     new conv_thr            =            1.0E-10 Ry

     new unit-cell volume =    808.24646 a.u.^3 (   119.76977 Ang^3 )

CELL_PARAMETERS (alat=  1.88972599)
  -1.624728905  11.342936428  -1.624728905
   1.624728905  11.342936428   1.624728905
   1.624728905 -11.342936428  -1.624728905

ATOMIC_POSITIONS (angstrom)
Ti       1.624728905   1.601021697  -1.624728905
Ti       1.624728905   4.880662028  -1.624728905
Nb       1.624728905   8.092961058  -1.624728905
Nb       1.624728905  11.334748972  -1.624728905
Ti       1.624728905  -8.102092310  -1.624728905
Nb       1.624728905  -4.853075178  -1.624728905
Nb       1.624728905  -1.611289839  -1.624728905


     NEW-OLD atomic charge density approx. for the potential
     extrapolated charge   75.70731, renormalised to   88.00000

     total cpu time spent up to now is    83286.6 secs

     per-process dynamical memory:   400.3 Mb

     Self-consistent Calculation

     iteration #  1     ecut=    50.00 Ry     beta=0.60
     Davidson diagonalization with overlap
     c_bands:  2 eigenvalues not converged
     c_bands:  1 eigenvalues not converged
     c_bands:  1 eigenvalues not converged
     c_bands:  2 eigenvalues not converged
     c_bands:  1 eigenvalues not converged
     c_bands:  2 eigenvalues not converged
     c_bands:  1 eigenvalues not converged
     c_bands:  1 eigenvalues not converged
     c_bands:  1 eigenvalues not converged
     c_bands:  1 eigenvalues not converged
     c_bands:  1 eigenvalues not converged
     c_bands:  1 eigenvalues not converged
     c_bands:  2 eigenvalues not converged
     c_bands:  1 eigenvalues not converged
     c_bands:  2 eigenvalues not converged
     c_bands:  1 eigenvalues not converged
     c_bands:  1 eigenvalues not converged
     c_bands:  1 eigenvalues not converged
     c_bands:  1 eigenvalues not converged
     c_bands:  1 eigenvalues not converged
     c_bands:  1 eigenvalues not converged
     ethr =  1.00E-06,  avg # of iterations = 17.7

     total cpu time spent up to now is    86364.7 secs

     total energy              =    -723.98798246 Ry
     Harris-Foulkes estimate   =    -844.58803773 Ry
     estimated scf accuracy    <     118.22275406 Ry

     iteration #  2     ecut=    50.00 Ry     beta=0.60
     Davidson diagonalization with overlap
     ethr =  1.00E-02,  avg # of iterations = 10.8

     total cpu time spent up to now is    88869.3 secs

     total energy              =    -735.46605834 Ry
     Harris-Foulkes estimate   =   -1248.87720629 Ry
     estimated scf accuracy    <    2760.67615485 Ry

     iteration #  3     ecut=    50.00 Ry     beta=0.60
     Davidson diagonalization with overlap
     ethr =  1.00E-02,  avg # of iterations =  7.1

     total cpu time spent up to now is    90842.8 secs

     total energy              =    -812.70391715 Ry
     Harris-Foulkes estimate   =    -851.62344429 Ry
     estimated scf accuracy    <     371.73954781 Ry

     iteration #  4     ecut=    50.00 Ry     beta=0.60
     Davidson diagonalization with overlap
     ethr =  1.00E-02,  avg # of iterations =  4.6

     total cpu time spent up to now is    91995.1 secs

     total energy              =    -824.69863903 Ry
     Harris-Foulkes estimate   =    -831.65321247 Ry
     estimated scf accuracy    <     161.60263008 Ry

     iteration #  5     ecut=    50.00 Ry     beta=0.60
     Davidson diagonalization with overlap
     ethr =  1.00E-02,  avg # of iterations =  2.5

     total cpu time spent up to now is    92803.7 secs

     total energy              =    -822.05082345 Ry
     Harris-Foulkes estimate   =    -825.88333383 Ry
     estimated scf accuracy    <      71.74160828 Ry

     iteration #  6     ecut=    50.00 Ry     beta=0.60
     Davidson diagonalization with overlap
     ethr =  1.00E-02,  avg # of iterations =  3.1

     total cpu time spent up to now is    93678.5 secs

     total energy              =    -820.49235171 Ry
     Harris-Foulkes estimate   =    -822.93964966 Ry
     estimated scf accuracy    <      32.11245093 Ry

     iteration #  7     ecut=    50.00 Ry     beta=0.60
     Davidson diagonalization with overlap
     ethr =  1.00E-02,  avg # of iterations =  4.0

     total cpu time spent up to now is    94572.6 secs

     total energy              =    -821.26484528 Ry
     Harris-Foulkes estimate   =    -822.05150550 Ry
     estimated scf accuracy    <       5.50997964 Ry

     iteration #  8     ecut=    50.00 Ry     beta=0.60
     Davidson diagonalization with overlap
     ethr =  6.26E-03,  avg # of iterations =  2.2

     total cpu time spent up to now is    95372.5 secs

     total energy              =    -822.41186342 Ry
     Harris-Foulkes estimate   =    -822.43045486 Ry
     estimated scf accuracy    <      22.80045061 Ry

     iteration #  9     ecut=    50.00 Ry     beta=0.60
     Davidson diagonalization with overlap
     ethr =  6.26E-03,  avg # of iterations =  1.0

     total cpu time spent up to now is    96152.5 secs

     total energy              =    -821.88630605 Ry
     Harris-Foulkes estimate   =    -822.45731141 Ry
     estimated scf accuracy    <      23.88553835 Ry

     iteration # 10     ecut=    50.00 Ry     beta=0.60
     Davidson diagonalization with overlap
     ethr =  6.26E-03,  avg # of iterations =  1.0

     total cpu time spent up to now is    96937.9 secs

     total energy              =    -820.78366315 Ry
     Harris-Foulkes estimate   =    -821.98352807 Ry
     estimated scf accuracy    <       9.20378590 Ry

     iteration # 11     ecut=    50.00 Ry     beta=0.60
     Davidson diagonalization with overlap
     ethr =  6.26E-03,  avg # of iterations =  3.1

     total cpu time spent up to now is    97796.7 secs

     total energy              =    -821.49738364 Ry
     Harris-Foulkes estimate   =    -822.08743560 Ry
     estimated scf accuracy    <      13.25306587 Ry

     iteration # 12     ecut=    50.00 Ry     beta=0.60
     Davidson diagonalization with overlap
     ethr =  6.26E-03,  avg # of iterations =  1.3

     total cpu time spent up to now is    98586.6 secs

     total energy              =    -821.66819258 Ry
     Harris-Foulkes estimate   =    -821.69063046 Ry
     estimated scf accuracy    <       1.52442441 Ry

     iteration # 13     ecut=    50.00 Ry     beta=0.60
     Davidson diagonalization with overlap
     ethr =  1.73E-03,  avg # of iterations =  1.2

     total cpu time spent up to now is    99376.1 secs

     total energy              =    -821.65814891 Ry
     Harris-Foulkes estimate   =    -821.67928845 Ry
     estimated scf accuracy    <       0.95359902 Ry

     iteration # 14     ecut=    50.00 Ry     beta=0.60
     Davidson diagonalization with overlap
     ethr =  1.08E-03,  avg # of iterations =  1.3

     total cpu time spent up to now is   100168.2 secs

     total energy              =    -821.64295204 Ry
     Harris-Foulkes estimate   =    -821.66753351 Ry
     estimated scf accuracy    <       0.29570367 Ry

     iteration # 15     ecut=    50.00 Ry     beta=0.60
     Davidson diagonalization with overlap
     ethr =  3.36E-04,  avg # of iterations =  4.7

     total cpu time spent up to now is   101055.3 secs

     total energy              =    -821.65801166 Ry
     Harris-Foulkes estimate   =    -821.66856619 Ry
     estimated scf accuracy    <       0.18975116 Ry

     iteration # 16     ecut=    50.00 Ry     beta=0.60
     Davidson diagonalization with overlap
     ethr =  2.16E-04,  avg # of iterations =  1.3

     total cpu time spent up to now is   101844.5 secs

     total energy              =    -821.66490057 Ry
     Harris-Foulkes estimate   =    -821.66594159 Ry
     estimated scf accuracy    <       0.02297579 Ry

     iteration # 17     ecut=    50.00 Ry     beta=0.60
     Davidson diagonalization with overlap
     c_bands:  1 eigenvalues not converged
     c_bands:  1 eigenvalues not converged
     c_bands:  1 eigenvalues not converged
     c_bands:  1 eigenvalues not converged
     c_bands:  1 eigenvalues not converged
     ethr =  2.61E-05,  avg # of iterations =  8.8

     total cpu time spent up to now is   102751.5 secs

     total energy              =    -821.66534981 Ry
     Harris-Foulkes estimate   =    -821.66574700 Ry
     estimated scf accuracy    <       0.00574105 Ry

     iteration # 18     ecut=    50.00 Ry     beta=0.60
     Davidson diagonalization with overlap
     c_bands:  1 eigenvalues not converged
     c_bands:  1 eigenvalues not converged
     c_bands:  2 eigenvalues not converged
     c_bands:  1 eigenvalues not converged
     c_bands:  1 eigenvalues not converged
     ethr =  6.52E-06,  avg # of iterations =  6.3

     total cpu time spent up to now is   103638.1 secs

     total energy              =    -821.66523121 Ry
     Harris-Foulkes estimate   =    -821.66574320 Ry
     estimated scf accuracy    <       0.01072127 Ry

     iteration # 19     ecut=    50.00 Ry     beta=0.60
     Davidson diagonalization with overlap
     c_bands:  1 eigenvalues not converged
     ethr =  6.52E-06,  avg # of iterations =  3.0

     total cpu time spent up to now is   104449.8 secs

     total energy              =    -821.66480259 Ry
     Harris-Foulkes estimate   =    -821.66611549 Ry
     estimated scf accuracy    <       0.02520232 Ry

     iteration # 20     ecut=    50.00 Ry     beta=0.60
     Davidson diagonalization with overlap
     ethr =  6.52E-06,  avg # of iterations =  1.3

     total cpu time spent up to now is   105229.3 secs

     total energy              =    -821.66535159 Ry
     Harris-Foulkes estimate   =    -821.66542490 Ry
     estimated scf accuracy    <       0.00032130 Ry

     iteration # 21     ecut=    50.00 Ry     beta=0.60
     Davidson diagonalization with overlap
     c_bands:  1 eigenvalues not converged
     c_bands:  1 eigenvalues not converged
     c_bands:  1 eigenvalues not converged
     ethr =  3.65E-07,  avg # of iterations =  6.7

     total cpu time spent up to now is   106302.4 secs

     total energy              =    -821.66544694 Ry
     Harris-Foulkes estimate   =    -821.66547715 Ry
     estimated scf accuracy    <       0.00025159 Ry

     iteration # 22     ecut=    50.00 Ry     beta=0.60
     Davidson diagonalization with overlap
     ethr =  2.86E-07,  avg # of iterations =  1.3

     total cpu time spent up to now is   107082.1 secs

     total energy              =    -821.66545436 Ry
     Harris-Foulkes estimate   =    -821.66545800 Ry
     estimated scf accuracy    <       0.00005804 Ry

     iteration # 23     ecut=    50.00 Ry     beta=0.60
     Davidson diagonalization with overlap
     ethr =  6.60E-08,  avg # of iterations =  3.6

     total cpu time spent up to now is   107971.1 secs

     total energy              =    -821.66545871 Ry
     Harris-Foulkes estimate   =    -821.66545982 Ry
     estimated scf accuracy    <       0.00001138 Ry

     iteration # 24     ecut=    50.00 Ry     beta=0.60
     Davidson diagonalization with overlap
     ethr =  1.29E-08,  avg # of iterations =  2.6

     total cpu time spent up to now is   108794.0 secs

     total energy              =    -821.66545954 Ry
     Harris-Foulkes estimate   =    -821.66545961 Ry
     estimated scf accuracy    <       0.00000035 Ry

     iteration # 25     ecut=    50.00 Ry     beta=0.60
     Davidson diagonalization with overlap
     ethr =  3.98E-10,  avg # of iterations =  4.9

     total cpu time spent up to now is   109857.5 secs

     total energy              =    -821.66545966 Ry
     Harris-Foulkes estimate   =    -821.66545972 Ry
     estimated scf accuracy    <       0.00000035 Ry

     iteration # 26     ecut=    50.00 Ry     beta=0.60
     Davidson diagonalization with overlap
     ethr =  3.98E-10,  avg # of iterations =  3.3

     total cpu time spent up to now is   110699.8 secs

     total energy              =    -821.66545967 Ry
     Harris-Foulkes estimate   =    -821.66545970 Ry
     estimated scf accuracy    <       0.00000050 Ry

     iteration # 27     ecut=    50.00 Ry     beta=0.60
     Davidson diagonalization with overlap
     ethr =  3.98E-10,  avg # of iterations =  1.3

     total cpu time spent up to now is   111479.0 secs

     total energy              =    -821.66545968 Ry
     Harris-Foulkes estimate   =    -821.66545970 Ry
     estimated scf accuracy    <       0.00000008 Ry

     iteration # 28     ecut=    50.00 Ry     beta=0.60
     Davidson diagonalization with overlap
     ethr =  9.07E-11,  avg # of iterations =  3.3

     total cpu time spent up to now is   112352.9 secs

     total energy              =    -821.66545968 Ry
     Harris-Foulkes estimate   =    -821.66545969 Ry
     estimated scf accuracy    <       0.00000007 Ry

     iteration # 29     ecut=    50.00 Ry     beta=0.60
     Davidson diagonalization with overlap
     ethr =  8.19E-11,  avg # of iterations =  3.3

     total cpu time spent up to now is   113228.8 secs

     total energy              =    -821.66545967 Ry
     Harris-Foulkes estimate   =    -821.66545971 Ry
     estimated scf accuracy    <       0.00000085 Ry

     iteration # 30     ecut=    50.00 Ry     beta=0.60
     Davidson diagonalization with overlap
     ethr =  8.19E-11,  avg # of iterations =  2.8

     total cpu time spent up to now is   114035.6 secs

     total energy              =    -821.66545969 Ry
     Harris-Foulkes estimate   =    -821.66545969 Ry
     estimated scf accuracy    <          3.6E-09 Ry

     iteration # 31     ecut=    50.00 Ry     beta=0.60
     Davidson diagonalization with overlap
     ethr =  4.07E-12,  avg # of iterations =  4.5

     total cpu time spent up to now is   115063.0 secs

     total energy              =    -821.66545969 Ry
     Harris-Foulkes estimate   =    -821.66545969 Ry
     estimated scf accuracy    <          1.6E-09 Ry

     iteration # 32     ecut=    50.00 Ry     beta=0.60
     Davidson diagonalization with overlap
     ethr =  1.77E-12,  avg # of iterations =  1.4

     total cpu time spent up to now is   115841.9 secs

     total energy              =    -821.66545969 Ry
     Harris-Foulkes estimate   =    -821.66545969 Ry
     estimated scf accuracy    <          6.8E-10 Ry

     iteration # 33     ecut=    50.00 Ry     beta=0.60
     Davidson diagonalization with overlap
     ethr =  7.72E-13,  avg # of iterations =  3.2

     total cpu time spent up to now is   116746.9 secs

     total energy              =    -821.66545969 Ry
     Harris-Foulkes estimate   =    -821.66545969 Ry
     estimated scf accuracy    <          1.8E-10 Ry

     iteration # 34     ecut=    50.00 Ry     beta=0.60
     Davidson diagonalization with overlap
     ethr =  2.04E-13,  avg # of iterations =  1.8

     total cpu time spent up to now is   117535.0 secs

     End of self-consistent calculation

     Number of k-points >= 100: set verbosity='high' to print the bands.

     the Fermi energy is    16.6359 ev

!    total energy              =    -821.66545969 Ry
     Harris-Foulkes estimate   =    -821.66545969 Ry
     estimated scf accuracy    <          1.7E-11 Ry

     The total energy is the sum of the following terms:

     one-electron contribution =    -180.88586424 Ry
     hartree contribution      =     131.71465162 Ry
     xc contribution           =    -117.62610560 Ry
     ewald contribution        =    -654.86692495 Ry
     smearing contrib. (-TS)   =      -0.00121652 Ry

     convergence has been achieved in  34 iterations

     Forces acting on atoms (Ry/au):

     atom    1 type  2   force =    -0.00000000   -0.00253869    0.00000000
     atom    2 type  2   force =     0.00000000    0.00253531   -0.00000000
     atom    3 type  1   force =    -0.00000000   -0.00499117    0.00000000
     atom    4 type  1   force =     0.00000000    0.01339362   -0.00000000
     atom    5 type  2   force =    -0.00000000   -0.00000093    0.00000000
     atom    6 type  1   force =    -0.00000000   -0.01339194    0.00000000
     atom    7 type  1   force =     0.00000000    0.00499379    0.00000000

     Total force =     0.020529     Total SCF correction =     0.000015


     entering subroutine stress ...

          total   stress  (Ry/bohr**3)                   (kbar)     P=   53.45
   0.00036780   0.00000000  -0.00000000         54.11      0.00     -0.00
   0.00000000   0.00035439   0.00000000          0.00     52.13      0.00
   0.00000000   0.00000000   0.00036780          0.00      0.00     54.11


     number of scf cycles    =   3
     number of bfgs steps    =   2

     enthalpy old            =    -821.6315082997 Ry
     enthalpy new            =    -821.6654596916 Ry

     CASE: enthalpy_new < enthalpy_old

     new trust radius        =       0.0757102960 bohr
     new conv_thr            =            1.0E-10 Ry

     new unit-cell volume =    840.77062 a.u.^3 (   124.58935 Ang^3 )

CELL_PARAMETERS (alat=  1.88972599)
  -1.646172914  11.493971757  -1.646172914
   1.646172914  11.493971757   1.646172914
   1.646172914 -11.493971757  -1.646172914

ATOMIC_POSITIONS (angstrom)
Ti       1.646172914   1.623451831  -1.646172914
Ti       1.646172914   4.944536008  -1.646172914
Nb       1.646172914   8.200129824  -1.646172914
Nb       1.646172914  11.490431896  -1.646172914
Ti       1.646172914  -8.209975602  -1.646172914
Nb       1.646172914  -4.922451184  -1.646172914
Nb       1.646172914  -1.632151016  -1.646172914


     NEW-OLD atomic charge density approx. for the potential
     extrapolated charge   91.28769, renormalised to   88.00000

     total cpu time spent up to now is   117633.1 secs

     per-process dynamical memory:   411.2 Mb

     Self-consistent Calculation

     iteration #  1     ecut=    50.00 Ry     beta=0.60
     Davidson diagonalization with overlap
     ethr =  1.00E-06,  avg # of iterations = 14.9

     total cpu time spent up to now is   119903.1 secs

     total energy              =    -811.44888328 Ry
     Harris-Foulkes estimate   =    -816.85193282 Ry
     estimated scf accuracy    <      12.25933458 Ry

     iteration #  2     ecut=    50.00 Ry     beta=0.60
     Davidson diagonalization with overlap
     ethr =  1.00E-02,  avg # of iterations =  6.9

     total cpu time spent up to now is   121481.3 secs

     total energy              =    -797.41823708 Ry
     Harris-Foulkes estimate   =    -882.05065065 Ry
     estimated scf accuracy    <     612.21025499 Ry

     iteration #  3     ecut=    50.00 Ry     beta=0.60
     Davidson diagonalization with overlap
     ethr =  1.00E-02,  avg # of iterations =  6.4

     total cpu time spent up to now is   122918.9 secs

     total energy              =    -821.49918190 Ry
     Harris-Foulkes estimate   =    -825.13481099 Ry
     estimated scf accuracy    <      61.44616051 Ry

     iteration #  4     ecut=    50.00 Ry     beta=0.60
     Davidson diagonalization with overlap
     ethr =  1.00E-02,  avg # of iterations =  3.4

     total cpu time spent up to now is   123759.1 secs

     total energy              =    -821.05692376 Ry
     Harris-Foulkes estimate   =    -822.37536595 Ry
     estimated scf accuracy    <      30.29095328 Ry

     iteration #  5     ecut=    50.00 Ry     beta=0.60
     Davidson diagonalization with overlap
     ethr =  1.00E-02,  avg # of iterations =  2.7

     total cpu time spent up to now is   124558.7 secs

     total energy              =    -821.29917717 Ry
     Harris-Foulkes estimate   =    -821.42835531 Ry
     estimated scf accuracy    <       9.01511868 Ry

     iteration #  6     ecut=    50.00 Ry     beta=0.60
     Davidson diagonalization with overlap
     ethr =  1.00E-02,  avg # of iterations =  1.8

     total cpu time spent up to now is   125348.1 secs

     total energy              =    -821.19815855 Ry
     Harris-Foulkes estimate   =    -821.42956634 Ry
     estimated scf accuracy    <       6.36924981 Ry

     iteration #  7     ecut=    50.00 Ry     beta=0.60
     Davidson diagonalization with overlap
     ethr =  7.24E-03,  avg # of iterations =  4.0

     total cpu time spent up to now is   126194.0 secs

     total energy              =    -821.57964962 Ry
     Harris-Foulkes estimate   =    -821.65738410 Ry
     estimated scf accuracy    <       1.02810722 Ry

     iteration #  8     ecut=    50.00 Ry     beta=0.60
     Davidson diagonalization with overlap
     ethr =  1.17E-03,  avg # of iterations =  5.5

     total cpu time spent up to now is   127169.0 secs

     total energy              =    -821.66019814 Ry
     Harris-Foulkes estimate   =    -821.72538417 Ry
     estimated scf accuracy    <       1.36254183 Ry

     iteration #  9     ecut=    50.00 Ry     beta=0.60
     Davidson diagonalization with overlap
     ethr =  1.17E-03,  avg # of iterations =  1.1

     total cpu time spent up to now is   127971.1 secs

     total energy              =    -821.70091163 Ry
     Harris-Foulkes estimate   =    -821.70342586 Ry
     estimated scf accuracy    <       0.53862150 Ry

     iteration # 10     ecut=    50.00 Ry     beta=0.60
     Davidson diagonalization with overlap
     ethr =  6.12E-04,  avg # of iterations =  1.2

     total cpu time spent up to now is   128751.6 secs

     total energy              =    -821.58078112 Ry
     Harris-Foulkes estimate   =    -821.70486859 Ry
     estimated scf accuracy    <       0.81292164 Ry

     iteration # 11     ecut=    50.00 Ry     beta=0.60
     Davidson diagonalization with overlap
     ethr =  6.12E-04,  avg # of iterations =  3.5

     total cpu time spent up to now is   129631.2 secs

     total energy              =    -821.59644927 Ry
     Harris-Foulkes estimate   =    -821.73281937 Ry
     estimated scf accuracy    <       2.72105761 Ry

     iteration # 12     ecut=    50.00 Ry     beta=0.60
     Davidson diagonalization with overlap
     ethr =  6.12E-04,  avg # of iterations =  1.4

     total cpu time spent up to now is   130414.0 secs

     total energy              =    -821.66756486 Ry
     Harris-Foulkes estimate   =    -821.67072023 Ry
     estimated scf accuracy    <       0.06188950 Ry

     iteration # 13     ecut=    50.00 Ry     beta=0.60
     Davidson diagonalization with overlap
     ethr =  7.03E-05,  avg # of iterations =  6.8

     total cpu time spent up to now is   131428.3 secs

     total energy              =    -821.67442912 Ry
     Harris-Foulkes estimate   =    -821.67585111 Ry
     estimated scf accuracy    <       0.23082864 Ry

     iteration # 14     ecut=    50.00 Ry     beta=0.60
     Davidson diagonalization with overlap
     ethr =  7.03E-05,  avg # of iterations =  1.2

     total cpu time spent up to now is   132208.7 secs

     total energy              =    -821.66949942 Ry
     Harris-Foulkes estimate   =    -821.67543507 Ry
     estimated scf accuracy    <       0.18898545 Ry

     iteration # 15     ecut=    50.00 Ry     beta=0.60
     Davidson diagonalization with overlap
     ethr =  7.03E-05,  avg # of iterations =  1.0

     total cpu time spent up to now is   132987.4 secs

     total energy              =    -821.66868398 Ry
     Harris-Foulkes estimate   =    -821.67124988 Ry
     estimated scf accuracy    <       0.03350335 Ry

     iteration # 16     ecut=    50.00 Ry     beta=0.60
     Davidson diagonalization with overlap
     c_bands:  1 eigenvalues not converged
     ethr =  3.81E-05,  avg # of iterations =  2.6

     total cpu time spent up to now is   133780.7 secs

     total energy              =    -821.67024932 Ry
     Harris-Foulkes estimate   =    -821.67039725 Ry
     estimated scf accuracy    <       0.00252140 Ry

     iteration # 17     ecut=    50.00 Ry     beta=0.60
     Davidson diagonalization with overlap
     c_bands:  1 eigenvalues not converged
     c_bands:  1 eigenvalues not converged
     ethr =  2.87E-06,  avg # of iterations =  8.2

     total cpu time spent up to now is   134887.1 secs

     total energy              =    -821.67060271 Ry
     Harris-Foulkes estimate   =    -821.67068672 Ry
     estimated scf accuracy    <       0.00088930 Ry

     iteration # 18     ecut=    50.00 Ry     beta=0.60
     Davidson diagonalization with overlap
     ethr =  1.01E-06,  avg # of iterations =  1.3

     total cpu time spent up to now is   135666.6 secs

     total energy              =    -821.67060347 Ry
     Harris-Foulkes estimate   =    -821.67063046 Ry
     estimated scf accuracy    <       0.00049948 Ry

     iteration # 19     ecut=    50.00 Ry     beta=0.60
     Davidson diagonalization with overlap
     ethr =  5.68E-07,  avg # of iterations =  1.3

     total cpu time spent up to now is   136446.6 secs

     total energy              =    -821.67060232 Ry
     Harris-Foulkes estimate   =    -821.67064767 Ry
     estimated scf accuracy    <       0.00085969 Ry

     iteration # 20     ecut=    50.00 Ry     beta=0.60
     Davidson diagonalization with overlap
     ethr =  5.68E-07,  avg # of iterations =  1.0

     total cpu time spent up to now is   137223.9 secs

     total energy              =    -821.67061415 Ry
     Harris-Foulkes estimate   =    -821.67062591 Ry
     estimated scf accuracy    <       0.00010492 Ry

     iteration # 21     ecut=    50.00 Ry     beta=0.60
     Davidson diagonalization with overlap
     ethr =  1.19E-07,  avg # of iterations =  3.5

     total cpu time spent up to now is   138141.2 secs

     total energy              =    -821.67062540 Ry
     Harris-Foulkes estimate   =    -821.67062887 Ry
     estimated scf accuracy    <       0.00002138 Ry

     iteration # 22     ecut=    50.00 Ry     beta=0.60
     Davidson diagonalization with overlap
     ethr =  2.43E-08,  avg # of iterations =  2.9

     total cpu time spent up to now is   138970.7 secs

     total energy              =    -821.67062693 Ry
     Harris-Foulkes estimate   =    -821.67062727 Ry
     estimated scf accuracy    <       0.00000332 Ry

     iteration # 23     ecut=    50.00 Ry     beta=0.60
     Davidson diagonalization with overlap
     ethr =  3.78E-09,  avg # of iterations =  3.1

     total cpu time spent up to now is   139966.6 secs

     total energy              =    -821.67062726 Ry
     Harris-Foulkes estimate   =    -821.67062728 Ry
     estimated scf accuracy    <       0.00000034 Ry

     iteration # 24     ecut=    50.00 Ry     beta=0.60
     Davidson diagonalization with overlap
     ethr =  3.86E-10,  avg # of iterations =  4.1

     total cpu time spent up to now is   141105.8 secs

     total energy              =    -821.67062722 Ry
     Harris-Foulkes estimate   =    -821.67062733 Ry
     estimated scf accuracy    <       0.00000122 Ry

     iteration # 25     ecut=    50.00 Ry     beta=0.60
     Davidson diagonalization with overlap
     ethr =  3.86E-10,  avg # of iterations =  3.9

     total cpu time spent up to now is   142260.7 secs

     total energy              =    -821.67062725 Ry
     Harris-Foulkes estimate   =    -821.67062735 Ry
     estimated scf accuracy    <       0.00000157 Ry

     iteration # 26     ecut=    50.00 Ry     beta=0.60
     Davidson diagonalization with overlap
     ethr =  3.86E-10,  avg # of iterations =  3.3

     total cpu time spent up to now is   143266.7 secs

     total energy              =    -821.67062729 Ry
     Harris-Foulkes estimate   =    -821.67062730 Ry
     estimated scf accuracy    <       0.00000008 Ry

     iteration # 27     ecut=    50.00 Ry     beta=0.60
     Davidson diagonalization with overlap
     ethr =  8.76E-11,  avg # of iterations =  2.8

     total cpu time spent up to now is   144148.5 secs

     total energy              =    -821.67062730 Ry
     Harris-Foulkes estimate   =    -821.67062730 Ry
     estimated scf accuracy    <          6.5E-09 Ry

     iteration # 28     ecut=    50.00 Ry     beta=0.60
     Davidson diagonalization with overlap
     ethr =  7.38E-12,  avg # of iterations =  4.0

     total cpu time spent up to now is   145099.5 secs

     total energy              =    -821.67062730 Ry
     Harris-Foulkes estimate   =    -821.67062730 Ry
     estimated scf accuracy    <          2.8E-09 Ry

     iteration # 29     ecut=    50.00 Ry     beta=0.60
     Davidson diagonalization with overlap
     ethr =  3.23E-12,  avg # of iterations =  2.7

     total cpu time spent up to now is   145926.4 secs

     total energy              =    -821.67062730 Ry
     Harris-Foulkes estimate   =    -821.67062730 Ry
     estimated scf accuracy    <          5.7E-10 Ry

     iteration # 30     ecut=    50.00 Ry     beta=0.60
     Davidson diagonalization with overlap
     ethr =  6.44E-13,  avg # of iterations =  4.1

     total cpu time spent up to now is   146908.9 secs

     total energy              =    -821.67062730 Ry
     Harris-Foulkes estimate   =    -821.67062730 Ry
     estimated scf accuracy    <       0.00000002 Ry

     iteration # 31     ecut=    50.00 Ry     beta=0.60
     Davidson diagonalization with overlap
     ethr =  6.44E-13,  avg # of iterations =  3.8

     total cpu time spent up to now is   147780.9 secs

     End of self-consistent calculation

     Number of k-points >= 100: set verbosity='high' to print the bands.

     the Fermi energy is    15.8876 ev

!    total energy              =    -821.67062730 Ry
     Harris-Foulkes estimate   =    -821.67062730 Ry
     estimated scf accuracy    <          8.4E-11 Ry

     The total energy is the sum of the following terms:

     one-electron contribution =    -192.96270120 Ry
     hartree contribution      =     135.07060533 Ry
     xc contribution           =    -117.34760127 Ry
     ewald contribution        =    -646.42987141 Ry
     smearing contrib. (-TS)   =      -0.00105876 Ry

     convergence has been achieved in  31 iterations

     Forces acting on atoms (Ry/au):

     atom    1 type  2   force =    -0.00000000   -0.00487573    0.00000000
     atom    2 type  2   force =     0.00000000    0.00487436    0.00000000
     atom    3 type  1   force =     0.00000000   -0.00457385    0.00000000
     atom    4 type  1   force =    -0.00000000    0.00687398    0.00000000
     atom    5 type  2   force =     0.00000000    0.00000005   -0.00000000
     atom    6 type  1   force =    -0.00000000   -0.00687282    0.00000000
     atom    7 type  1   force =     0.00000000    0.00457400   -0.00000000

     Total force =     0.013560     Total SCF correction =     0.000041


     entering subroutine stress ...

          total   stress  (Ry/bohr**3)                   (kbar)     P=   -6.48
  -0.00003686  -0.00000000  -0.00000000         -5.42     -0.00     -0.00
  -0.00000000  -0.00005838   0.00000000         -0.00     -8.59      0.00
  -0.00000000   0.00000000  -0.00003686         -0.00      0.00     -5.42


     number of scf cycles    =   4
     number of bfgs steps    =   3

     enthalpy old            =    -821.6654596916 Ry
     enthalpy new            =    -821.6706272983 Ry

     CASE: enthalpy_new < enthalpy_old

     new trust radius        =       0.0099940450 bohr
     new conv_thr            =            1.0E-10 Ry

     new unit-cell volume =    837.27595 a.u.^3 (   124.07149 Ang^3 )

CELL_PARAMETERS (alat=  1.88972599)
  -1.644165532  11.474163664  -1.644165532
   1.644165532  11.474163664   1.644165532
   1.644165532 -11.474163664  -1.644165532

ATOMIC_POSITIONS (angstrom)
Ti       1.644165532   1.618361486  -1.644165532
Ti       1.644165532   4.938306883  -1.644165532
Nb       1.644165532   8.183885890  -1.644165532
Nb       1.644165532  11.473698316  -1.644165532
Ti       1.644165532  -8.195826894  -1.644165532
Nb       1.644165532  -4.917036050  -1.644165532
Nb       1.644165532  -1.627225967  -1.644165532


     NEW-OLD atomic charge density approx. for the potential
     extrapolated charge   87.64527, renormalised to   88.00000

     total cpu time spent up to now is   147879.0 secs

     per-process dynamical memory:   411.2 Mb

     Self-consistent Calculation

     iteration #  1     ecut=    50.00 Ry     beta=0.60
     Davidson diagonalization with overlap
     c_bands:  1 eigenvalues not converged
     c_bands:  1 eigenvalues not converged
     c_bands:  1 eigenvalues not converged
     c_bands:  1 eigenvalues not converged
     ethr =  1.00E-06,  avg # of iterations =  6.1

     total cpu time spent up to now is   149513.5 secs

     total energy              =    -821.47641172 Ry
     Harris-Foulkes estimate   =    -822.23068378 Ry
     estimated scf accuracy    <       0.23488227 Ry

     iteration #  2     ecut=    50.00 Ry     beta=0.60
     Davidson diagonalization with overlap
     ethr =  2.67E-04,  avg # of iterations =  5.9

     total cpu time spent up to now is   150911.5 secs

     total energy              =    -818.41358607 Ry
     Harris-Foulkes estimate   =    -825.46234085 Ry
     estimated scf accuracy    <     174.76026978 Ry

     iteration #  3     ecut=    50.00 Ry     beta=0.60
     Davidson diagonalization with overlap
     ethr =  2.67E-04,  avg # of iterations =  5.8

     total cpu time spent up to now is   152308.1 secs

     total energy              =    -821.66497403 Ry
     Harris-Foulkes estimate   =    -821.68477998 Ry
     estimated scf accuracy    <       0.21599789 Ry

     iteration #  4     ecut=    50.00 Ry     beta=0.60
     Davidson diagonalization with overlap
     ethr =  2.45E-04,  avg # of iterations =  1.0

     total cpu time spent up to now is   153086.6 secs

     total energy              =    -821.66903335 Ry
     Harris-Foulkes estimate   =    -821.67100801 Ry
     estimated scf accuracy    <       0.02287914 Ry

     iteration #  5     ecut=    50.00 Ry     beta=0.60
     Davidson diagonalization with overlap
     ethr =  2.60E-05,  avg # of iterations =  3.5

     total cpu time spent up to now is   153973.5 secs

     total energy              =    -821.67107607 Ry
     Harris-Foulkes estimate   =    -821.67147793 Ry
     estimated scf accuracy    <       0.00975282 Ry

     iteration #  6     ecut=    50.00 Ry     beta=0.60
     Davidson diagonalization with overlap
     ethr =  1.11E-05,  avg # of iterations =  1.5

     total cpu time spent up to now is   154754.8 secs

     total energy              =    -821.67096215 Ry
     Harris-Foulkes estimate   =    -821.67165559 Ry
     estimated scf accuracy    <       0.02069186 Ry

     iteration #  7     ecut=    50.00 Ry     beta=0.60
     Davidson diagonalization with overlap
     ethr =  1.11E-05,  avg # of iterations =  1.0

     total cpu time spent up to now is   155531.8 secs

     total energy              =    -821.67115573 Ry
     Harris-Foulkes estimate   =    -821.67135121 Ry
     estimated scf accuracy    <       0.00624447 Ry

     iteration #  8     ecut=    50.00 Ry     beta=0.60
     Davidson diagonalization with overlap
     ethr =  7.10E-06,  avg # of iterations =  1.1

     total cpu time spent up to now is   156307.3 secs

     total energy              =    -821.67104615 Ry
     Harris-Foulkes estimate   =    -821.67120189 Ry
     estimated scf accuracy    <       0.00409671 Ry

     iteration #  9     ecut=    50.00 Ry     beta=0.60
     Davidson diagonalization with overlap
     ethr =  4.66E-06,  avg # of iterations =  1.2

     total cpu time spent up to now is   157090.9 secs

     total energy              =    -821.67091930 Ry
     Harris-Foulkes estimate   =    -821.67107089 Ry
     estimated scf accuracy    <       0.00248460 Ry

     iteration # 10     ecut=    50.00 Ry     beta=0.60
     Davidson diagonalization with overlap
     ethr =  2.82E-06,  avg # of iterations =  1.1

     total cpu time spent up to now is   157871.1 secs

     total energy              =    -821.67078099 Ry
     Harris-Foulkes estimate   =    -821.67094689 Ry
     estimated scf accuracy    <       0.00108163 Ry

     iteration # 11     ecut=    50.00 Ry     beta=0.60
     Davidson diagonalization with overlap
     ethr =  1.23E-06,  avg # of iterations =  4.3

     total cpu time spent up to now is   158720.8 secs

     total energy              =    -821.67084708 Ry
     Harris-Foulkes estimate   =    -821.67086072 Ry
     estimated scf accuracy    <       0.00005294 Ry

     iteration # 12     ecut=    50.00 Ry     beta=0.60
     Davidson diagonalization with overlap
     ethr =  6.02E-08,  avg # of iterations =  5.7

     total cpu time spent up to now is   159834.2 secs

     total energy              =    -821.67086552 Ry
     Harris-Foulkes estimate   =    -821.67086953 Ry
     estimated scf accuracy    <       0.00002364 Ry

     iteration # 13     ecut=    50.00 Ry     beta=0.60
     Davidson diagonalization with overlap
     ethr =  2.69E-08,  avg # of iterations =  1.6

     total cpu time spent up to now is   160617.3 secs

     total energy              =    -821.67086628 Ry
     Harris-Foulkes estimate   =    -821.67086748 Ry
[...]
     Harris-Foulkes estimate   =    -844.84571394 Ry
     estimated scf accuracy    <     277.22831012 Ry

     iteration #  5     ecut=    50.00 Ry     beta=0.60
     Davidson diagonalization with overlap
     ethr =  1.00E-02,  avg # of iterations =  6.0

     total cpu time spent up to now is   484496.7 secs

     total energy              =    -821.69069942 Ry
     Harris-Foulkes estimate   =    -829.33134035 Ry
     estimated scf accuracy    <      75.97413736 Ry

     iteration #  6     ecut=    50.00 Ry     beta=0.60
     Davidson diagonalization with overlap
     ethr =  1.00E-02,  avg # of iterations =  3.3

     total cpu time spent up to now is   485366.1 secs

     total energy              =    -823.17183572 Ry
     Harris-Foulkes estimate   =    -823.55236074 Ry
     estimated scf accuracy    <      29.08769119 Ry

     iteration #  7     ecut=    50.00 Ry     beta=0.60
     Davidson diagonalization with overlap
     ethr =  1.00E-02,  avg # of iterations =  1.3

     total cpu time spent up to now is   486117.3 secs

     total energy              =    -822.59228655 Ry
     Harris-Foulkes estimate   =    -823.23103355 Ry
     estimated scf accuracy    <      25.71317270 Ry

     iteration #  8     ecut=    50.00 Ry     beta=0.60
     Davidson diagonalization with overlap
     ethr =  1.00E-02,  avg # of iterations =  1.2

     total cpu time spent up to now is   486867.6 secs

     total energy              =    -821.52239604 Ry
     Harris-Foulkes estimate   =    -822.66532627 Ry
     estimated scf accuracy    <      19.64298899 Ry

     iteration #  9     ecut=    50.00 Ry     beta=0.60
     Davidson diagonalization with overlap
     ethr =  1.00E-02,  avg # of iterations =  2.4

     total cpu time spent up to now is   487629.5 secs

     total energy              =    -821.15451877 Ry
     Harris-Foulkes estimate   =    -821.77018299 Ry
     estimated scf accuracy    <       7.41564828 Ry

     iteration # 10     ecut=    50.00 Ry     beta=0.60
     Davidson diagonalization with overlap
     ethr =  8.43E-03,  avg # of iterations =  5.6

     total cpu time spent up to now is   488508.7 secs

     total energy              =    -823.64283527 Ry
     Harris-Foulkes estimate   =    -822.11796994 Ry
     estimated scf accuracy    <      10.95442611 Ry

     iteration # 11     ecut=    50.00 Ry     beta=0.60
     Davidson diagonalization with overlap
     ethr =  8.43E-03,  avg # of iterations =  4.9

     total cpu time spent up to now is   489598.8 secs

     total energy              =    -816.68063363 Ry
     Harris-Foulkes estimate   =    -827.83446752 Ry
     estimated scf accuracy    <     181.03690961 Ry

     iteration # 12     ecut=    50.00 Ry     beta=0.60
     Davidson diagonalization with overlap
     ethr =  8.43E-03,  avg # of iterations =  4.5

     total cpu time spent up to now is   490555.1 secs

     total energy              =    -821.88725130 Ry
     Harris-Foulkes estimate   =    -821.91779138 Ry
     estimated scf accuracy    <       5.94474239 Ry

     iteration # 13     ecut=    50.00 Ry     beta=0.60
     Davidson diagonalization with overlap
     ethr =  6.76E-03,  avg # of iterations =  1.1

     total cpu time spent up to now is   491304.4 secs

     total energy              =    -820.72532154 Ry
     Harris-Foulkes estimate   =    -822.10930833 Ry
     estimated scf accuracy    <      14.40044355 Ry

     iteration # 14     ecut=    50.00 Ry     beta=0.60
     Davidson diagonalization with overlap
     ethr =  6.76E-03,  avg # of iterations =  2.0

     total cpu time spent up to now is   492065.9 secs

     total energy              =    -822.28729276 Ry
     Harris-Foulkes estimate   =    -822.25917729 Ry
     estimated scf accuracy    <      15.56825127 Ry

     iteration # 15     ecut=    50.00 Ry     beta=0.60
     Davidson diagonalization with overlap
     ethr =  6.76E-03,  avg # of iterations =  1.1

     total cpu time spent up to now is   492814.4 secs

     total energy              =    -821.93793170 Ry
     Harris-Foulkes estimate   =    -822.35341795 Ry
     estimated scf accuracy    <      19.51097400 Ry

     iteration # 16     ecut=    50.00 Ry     beta=0.60
     Davidson diagonalization with overlap
     ethr =  6.76E-03,  avg # of iterations =  1.0

     total cpu time spent up to now is   493562.9 secs

     total energy              =    -821.53151391 Ry
     Harris-Foulkes estimate   =    -822.02022748 Ry
     estimated scf accuracy    <      11.65873834 Ry

     iteration # 17     ecut=    50.00 Ry     beta=0.60
     Davidson diagonalization with overlap
     ethr =  6.76E-03,  avg # of iterations =  1.0

     total cpu time spent up to now is   494309.7 secs

     total energy              =    -821.73728719 Ry
     Harris-Foulkes estimate   =    -821.73966209 Ry
     estimated scf accuracy    <       0.83448387 Ry

     iteration # 18     ecut=    50.00 Ry     beta=0.60
     Davidson diagonalization with overlap
     ethr =  9.48E-04,  avg # of iterations =  1.8

     total cpu time spent up to now is   495067.6 secs

     total energy              =    -821.47254885 Ry
     Harris-Foulkes estimate   =    -821.80338426 Ry
     estimated scf accuracy    <       5.16682725 Ry

     iteration # 19     ecut=    50.00 Ry     beta=0.60
     Davidson diagonalization with overlap
     ethr =  9.48E-04,  avg # of iterations =  3.6

     total cpu time spent up to now is   495934.5 secs

     total energy              =    -821.63516531 Ry
     Harris-Foulkes estimate   =    -821.72207001 Ry
     estimated scf accuracy    <       1.05209630 Ry

     iteration # 20     ecut=    50.00 Ry     beta=0.60
     Davidson diagonalization with overlap
     ethr =  9.48E-04,  avg # of iterations =  1.2

     total cpu time spent up to now is   496684.2 secs

     total energy              =    -821.63700127 Ry
     Harris-Foulkes estimate   =    -821.67131017 Ry
     estimated scf accuracy    <       0.30739334 Ry

     iteration # 21     ecut=    50.00 Ry     beta=0.60
     Davidson diagonalization with overlap
     ethr =  3.49E-04,  avg # of iterations =  4.1

     total cpu time spent up to now is   497590.3 secs

     total energy              =    -821.65514525 Ry
     Harris-Foulkes estimate   =    -821.69207311 Ry
     estimated scf accuracy    <       0.30591019 Ry

     iteration # 22     ecut=    50.00 Ry     beta=0.60
     Davidson diagonalization with overlap
     ethr =  3.48E-04,  avg # of iterations =  1.0

     total cpu time spent up to now is   498338.6 secs

     total energy              =    -821.66190709 Ry
     Harris-Foulkes estimate   =    -821.66645009 Ry
     estimated scf accuracy    <       0.04028785 Ry

     iteration # 23     ecut=    50.00 Ry     beta=0.60
     Davidson diagonalization with overlap
     ethr =  4.58E-05,  avg # of iterations =  6.1

     total cpu time spent up to now is   499386.6 secs

     total energy              =    -821.66999933 Ry
     Harris-Foulkes estimate   =    -821.67199296 Ry
     estimated scf accuracy    <       0.01685226 Ry

     iteration # 24     ecut=    50.00 Ry     beta=0.60
     Davidson diagonalization with overlap
     ethr =  1.92E-05,  avg # of iterations =  1.3

     total cpu time spent up to now is   500139.0 secs

     total energy              =    -821.66988446 Ry
     Harris-Foulkes estimate   =    -821.67109878 Ry
     estimated scf accuracy    <       0.01798423 Ry

     iteration # 25     ecut=    50.00 Ry     beta=0.60
     Davidson diagonalization with overlap
     ethr =  1.92E-05,  avg # of iterations =  1.3

     total cpu time spent up to now is   500890.2 secs

     total energy              =    -821.67019556 Ry
     Harris-Foulkes estimate   =    -821.67052229 Ry
     estimated scf accuracy    <       0.00253415 Ry

     iteration # 26     ecut=    50.00 Ry     beta=0.60
     Davidson diagonalization with overlap
     ethr =  2.88E-06,  avg # of iterations =  6.7

     total cpu time spent up to now is   501894.2 secs

     total energy              =    -821.67041065 Ry
     Harris-Foulkes estimate   =    -821.67059855 Ry
     estimated scf accuracy    <       0.00111635 Ry

     iteration # 27     ecut=    50.00 Ry     beta=0.60
     Davidson diagonalization with overlap
     ethr =  1.27E-06,  avg # of iterations =  2.9

     total cpu time spent up to now is   502675.6 secs

     total energy              =    -821.67048813 Ry
     Harris-Foulkes estimate   =    -821.67050592 Ry
     estimated scf accuracy    <       0.00024407 Ry

     iteration # 28     ecut=    50.00 Ry     beta=0.60
     Davidson diagonalization with overlap
     ethr =  2.77E-07,  avg # of iterations =  4.5

     total cpu time spent up to now is   503595.8 secs

     total energy              =    -821.67051486 Ry
     Harris-Foulkes estimate   =    -821.67054056 Ry
     estimated scf accuracy    <       0.00055026 Ry

     iteration # 29     ecut=    50.00 Ry     beta=0.60
     Davidson diagonalization with overlap
     ethr =  2.77E-07,  avg # of iterations =  1.0

     total cpu time spent up to now is   504346.3 secs

     total energy              =    -821.67050964 Ry
     Harris-Foulkes estimate   =    -821.67052218 Ry
     estimated scf accuracy    <       0.00016728 Ry

     iteration # 30     ecut=    50.00 Ry     beta=0.60
     Davidson diagonalization with overlap
     ethr =  1.90E-07,  avg # of iterations =  1.5

     total cpu time spent up to now is   505104.1 secs

     total energy              =    -821.67050335 Ry
     Harris-Foulkes estimate   =    -821.67051467 Ry
     estimated scf accuracy    <       0.00011748 Ry

     iteration # 31     ecut=    50.00 Ry     beta=0.60
     Davidson diagonalization with overlap
     ethr =  1.34E-07,  avg # of iterations =  2.0

     total cpu time spent up to now is   505867.8 secs

     total energy              =    -821.67050109 Ry
     Harris-Foulkes estimate   =    -821.67050778 Ry
     estimated scf accuracy    <       0.00004371 Ry

     iteration # 32     ecut=    50.00 Ry     beta=0.60
     Davidson diagonalization with overlap
     ethr =  4.97E-08,  avg # of iterations =  3.9

     total cpu time spent up to now is   506787.2 secs

     total energy              =    -821.67050856 Ry
     Harris-Foulkes estimate   =    -821.67050935 Ry
     estimated scf accuracy    <       0.00001002 Ry

     iteration # 33     ecut=    50.00 Ry     beta=0.60
     Davidson diagonalization with overlap
     ethr =  1.14E-08,  avg # of iterations =  1.5

     total cpu time spent up to now is   507541.3 secs

     total energy              =    -821.67050862 Ry
     Harris-Foulkes estimate   =    -821.67050894 Ry
     estimated scf accuracy    <       0.00000268 Ry

     iteration # 34     ecut=    50.00 Ry     beta=0.60
     Davidson diagonalization with overlap
     ethr =  3.04E-09,  avg # of iterations =  3.1

     total cpu time spent up to now is   508369.9 secs

     total energy              =    -821.67050877 Ry
     Harris-Foulkes estimate   =    -821.67050883 Ry
     estimated scf accuracy    <       0.00000040 Ry

     iteration # 35     ecut=    50.00 Ry     beta=0.60
     Davidson diagonalization with overlap
     ethr =  4.59E-10,  avg # of iterations =  3.7

     total cpu time spent up to now is   509250.7 secs

     total energy              =    -821.67050882 Ry
     Harris-Foulkes estimate   =    -821.67050883 Ry
     estimated scf accuracy    <       0.00000007 Ry

     iteration # 36     ecut=    50.00 Ry     beta=0.60
     Davidson diagonalization with overlap
     ethr =  8.37E-11,  avg # of iterations =  2.6

     total cpu time spent up to now is   510065.1 secs

     total energy              =    -821.67050883 Ry
     Harris-Foulkes estimate   =    -821.67050883 Ry
     estimated scf accuracy    <       0.00000001 Ry

     iteration # 37     ecut=    50.00 Ry     beta=0.60
     Davidson diagonalization with overlap
     ethr =  1.31E-11,  avg # of iterations =  4.3

     total cpu time spent up to now is   511078.6 secs

     total energy              =    -821.67050882 Ry
     Harris-Foulkes estimate   =    -821.67050884 Ry
     estimated scf accuracy    <       0.00000044 Ry

     iteration # 38     ecut=    50.00 Ry     beta=0.60
     Davidson diagonalization with overlap
     ethr =  1.31E-11,  avg # of iterations =  4.1

     total cpu time spent up to now is   512042.0 secs

     total energy              =    -821.67050883 Ry
     Harris-Foulkes estimate   =    -821.67050883 Ry
     estimated scf accuracy    <          2.0E-09 Ry

     iteration # 39     ecut=    50.00 Ry     beta=0.60
     Davidson diagonalization with overlap
     ethr =  2.25E-12,  avg # of iterations =  3.6

     total cpu time spent up to now is   512860.9 secs

     total energy              =    -821.67050883 Ry
     Harris-Foulkes estimate   =    -821.67050883 Ry
     estimated scf accuracy    <       0.00000001 Ry

     iteration # 40     ecut=    50.00 Ry     beta=0.60
     Davidson diagonalization with overlap
     ethr =  2.25E-12,  avg # of iterations =  2.6

     total cpu time spent up to now is   513628.2 secs

     total energy              =    -821.67050883 Ry
     Harris-Foulkes estimate   =    -821.67050883 Ry
     estimated scf accuracy    <          1.5E-09 Ry

     iteration # 41     ecut=    50.00 Ry     beta=0.60
     Davidson diagonalization with overlap
     ethr =  1.69E-12,  avg # of iterations =  1.7

     total cpu time spent up to now is   514383.1 secs

     total energy              =    -821.67050883 Ry
     Harris-Foulkes estimate   =    -821.67050883 Ry
     estimated scf accuracy    <          8.4E-10 Ry

     iteration # 42     ecut=    50.00 Ry     beta=0.60
     Davidson diagonalization with overlap
     ethr =  9.49E-13,  avg # of iterations =  2.4

     total cpu time spent up to now is   515150.3 secs

     total energy              =    -821.67050883 Ry
     Harris-Foulkes estimate   =    -821.67050883 Ry
     estimated scf accuracy    <          5.7E-11 Ry

     iteration # 43     ecut=    50.00 Ry     beta=0.60
     Davidson diagonalization with overlap
     ethr =  1.00E-13,  avg # of iterations =  4.2

     total cpu time spent up to now is   516122.4 secs

     total energy              =    -821.67050883 Ry
     Harris-Foulkes estimate   =    -821.67050883 Ry
     estimated scf accuracy    <          9.3E-11 Ry

     iteration # 44     ecut=    50.00 Ry     beta=0.60
     Davidson diagonalization with overlap
     ethr =  1.00E-13,  avg # of iterations =  1.0

     total cpu time spent up to now is   516871.8 secs

     total energy              =    -821.67050883 Ry
     Harris-Foulkes estimate   =    -821.67050883 Ry
     estimated scf accuracy    <          3.3E-11 Ry

     iteration # 45     ecut=    50.00 Ry     beta=0.60
     Davidson diagonalization with overlap
     ethr =  1.00E-13,  avg # of iterations =  2.7

     total cpu time spent up to now is   517696.2 secs

     total energy              =    -821.67050883 Ry
     Harris-Foulkes estimate   =    -821.67050883 Ry
     estimated scf accuracy    <          7.7E-12 Ry

     iteration # 46     ecut=    50.00 Ry     beta=0.60
     Davidson diagonalization with overlap
     ethr =  1.00E-13,  avg # of iterations =  1.0

     total cpu time spent up to now is   518445.0 secs

     total energy              =    -821.67050883 Ry
     Harris-Foulkes estimate   =    -821.67050883 Ry
     estimated scf accuracy    <          3.3E-12 Ry

     iteration # 47     ecut=    50.00 Ry     beta=0.60
     Davidson diagonalization with overlap
     ethr =  1.00E-13,  avg # of iterations =  1.0

     total cpu time spent up to now is   519192.5 secs

     End of self-consistent calculation

     Number of k-points >= 100: set verbosity='high' to print the bands.

     the Fermi energy is    15.9909 ev

!    total energy              =    -821.67050883 Ry
     Harris-Foulkes estimate   =    -821.67050883 Ry
     estimated scf accuracy    <          9.0E-13 Ry

     The total energy is the sum of the following terms:

     one-electron contribution =    -190.42490919 Ry
     hartree contribution      =     134.17800026 Ry
     xc contribution           =    -117.38218876 Ry
     ewald contribution        =    -648.04047013 Ry
     smearing contrib. (-TS)   =      -0.00094100 Ry

     convergence has been achieved in  47 iterations

     Forces acting on atoms (Ry/au):

     atom    1 type  2   force =    -0.00000000   -0.00000599    0.00000000
     atom    2 type  2   force =     0.00000000    0.00000514   -0.00000000
     atom    3 type  1   force =     0.00000000    0.00001521   -0.00000000
     atom    4 type  1   force =    -0.00000000   -0.00001273    0.00000000
     atom    5 type  2   force =     0.00000000    0.00000030   -0.00000000
     atom    6 type  1   force =     0.00000000    0.00001289   -0.00000000
     atom    7 type  1   force =    -0.00000000   -0.00001482    0.00000000

     Total force =     0.000029     Total SCF correction =     0.000003


     entering subroutine stress ...

          total   stress  (Ry/bohr**3)                   (kbar)     P=   -1.03
  -0.00000711  -0.00000000   0.00000000         -1.05     -0.00      0.00
  -0.00000000  -0.00000687   0.00000000         -0.00     -1.01      0.00
  -0.00000000   0.00000000  -0.00000711         -0.00      0.00     -1.05


     init_run     :    889.13s CPU    906.73s WALL (       2 calls)
     electrons    : 504212.00s CPU 516074.87s WALL (      23 calls)
     update_pot   :    153.57s CPU    161.96s WALL (      21 calls)
     forces       :    805.70s CPU    837.20s WALL (      23 calls)
     stress       :   1177.06s CPU   1219.03s WALL (      23 calls)

     Called by init_run:
     wfcinit      :    877.82s CPU    893.96s WALL (       2 calls)
     potinit      :      5.91s CPU      6.32s WALL (       2 calls)

     Called by electrons:
     c_bands      : 406179.68s CPU 415303.30s WALL (     546 calls)
     sum_band     :  96312.99s CPU  98686.82s WALL (     546 calls)
     v_of_rho     :   1012.02s CPU   1100.09s WALL (     562 calls)
     newd         :    516.10s CPU    706.84s WALL (     562 calls)
     mix_rho      :    136.45s CPU    155.55s WALL (     546 calls)

     Called by c_bands:
     init_us_2    :    483.50s CPU    505.57s WALL (  143640 calls)
     cegterg      : 405151.49s CPU 414229.56s WALL (   68798 calls)

     Called by sum_band:
     sum_band:bec :     17.91s CPU     18.40s WALL (   68796 calls)
     addusdens    :    752.21s CPU   1131.24s WALL (     546 calls)

     Called by *egterg:
     h_psi        : 372507.15s CPU 381137.33s WALL (  290829 calls)
     s_psi        :   9233.51s CPU   9361.74s WALL (  290829 calls)
     g_psi        :     70.21s CPU     71.23s WALL (  221779 calls)
     cdiaghg      :   2938.10s CPU   2977.86s WALL (  287049 calls)

     Called by h_psi:
     h_psi:pot    : 372234.91s CPU 380857.40s WALL (  290829 calls)
     h_psi:calbec :   9197.26s CPU   9361.86s WALL (  290829 calls)
     vloc_psi     : 353784.62s CPU 362097.51s WALL (  290829 calls)
     add_vuspsi   :   9247.80s CPU   9394.92s WALL (  290829 calls)

     General routines
     calbec       :  13545.82s CPU  13774.87s WALL (  374115 calls)
     fft          :    967.91s CPU   1071.84s WALL (    9524 calls)
     ffts         :     21.27s CPU     22.68s WALL (    1108 calls)
     fftw         : 258975.71s CPU 264592.56s WALL (21868232 calls)
     interpolate  :    159.77s CPU    174.29s WALL (    1108 calls)

     Parallel routines
     fft_scatter  :  57630.20s CPU  60434.48s WALL (21878864 calls)

     PWSCF        :     5d   20h54m CPU        6d    0h14m WALL


   This run was terminated on:  20: 1:42   8May2018            

=------------------------------------------------------------------------------=
   JOB DONE.
=------------------------------------------------------------------------------=
