
     Program PWSCF v.6.0 (svn rev. 13079) starts on  1May2018 at 16:16: 0 

     This program is part of the open-source Quantum ESPRESSO suite
     for quantum simulation of materials; please cite
         "P. Giannozzi et al., J. Phys.:Condens. Matter 21 395502 (2009);
          URL http://www.quantum-espresso.org", 
     in publications or presentations arising from this work. More details at
     http://www.quantum-espresso.org/quote

     Parallel version (MPI), running on     4 processors
     R & G space division:  proc/nbgrp/npool/nimage =       4
     Waiting for input...
     Reading input from standard input

     Current dimensions of program PWSCF are:
     Max number of different atomic species (ntypx) = 10
     Max number of k-points (npk) =  40000
     Max angular momentum in pseudopotentials (lmaxx) =  3

     Subspace diagonalization in iterative solution of the eigenvalue problem:
     a serial algorithm will be used


     Parallelization info
     --------------------
     sticks:   dense  smooth     PW     G-vecs:    dense   smooth      PW
     Min         439     174     53                27693     6992    1169
     Max         440     175     54                27696     6999    1176
     Sum        1757     697    213               110779    27979    4685



     bravais-lattice index     =            0
     lattice parameter (alat)  =       1.8897  a.u.
     unit-cell volume          =     586.6735 (a.u.)^3
     number of atoms/cell      =            4
     number of atomic types    =            2
     number of electrons       =        50.00
     number of Kohn-Sham states=           30
     kinetic-energy cutoff     =      50.0000  Ry
     charge density cutoff     =     500.0000  Ry
     convergence threshold     =      1.0E-10
     mixing beta               =       0.6000
     number of iterations used =            8  plain     mixing
     Exchange-correlation      = SLA  PW   PBE  PBE ( 1  4  3  4 0 0)
     nstep                     =           50


     celldm(1)=   1.889726  celldm(2)=   0.000000  celldm(3)=   0.000000
     celldm(4)=   0.000000  celldm(5)=   0.000000  celldm(6)=   0.000000

     crystal axes: (cart. coord. in units of alat)
               a(1) = (  -3.516063   0.000000   0.000000 )  
               a(2) = (   0.000000   0.000000   3.516063 )  
               a(3) = (   0.000000   7.032126   0.000000 )  

     reciprocal axes: (cart. coord. in units 2 pi/alat)
               b(1) = ( -0.284409  0.000000  0.000000 )  
               b(2) = (  0.000000 -0.000000  0.284409 )  
               b(3) = (  0.000000  0.142205 -0.000000 )  


     PseudoPot. # 1 for Nb read from file:
     ./Nb.pbe-nsp-van.UPF
     MD5 check sum: 0a22fc7fb0ba19a08ca5db297a5d2854
     Pseudo is Ultrasoft + core correction, Zval = 13.0
     Generated by new atomic code, or converted to UPF format
     Using radial grid of  887 points,  6 beta functions with: 
                l(1) =   0
                l(2) =   0
                l(3) =   1
                l(4) =   1
                l(5) =   2
                l(6) =   2
     Q(r) pseudized with  6 coefficients,  rinner =    1.000   1.000   1.000
                                                       1.000   1.000

     PseudoPot. # 2 for Ti read from file:
     ./Ti.pbe-sp-van_ak.UPF
     MD5 check sum: f98fea3e8887528921fefa5636a534ca
     Pseudo is Ultrasoft, Zval = 12.0
     Generated by new atomic code, or converted to UPF format
     Using radial grid of  851 points,  6 beta functions with: 
                l(1) =   0
                l(2) =   0
                l(3) =   1
                l(4) =   1
                l(5) =   2
                l(6) =   2
     Q(r) pseudized with  8 coefficients,  rinner =    1.000   1.000   1.000
                                                       1.000   1.000

     atomic species   valence    mass     pseudopotential
        Nb            13.00    92.90638     Nb( 1.00)
        Ti            12.00    47.86700     Ti( 1.00)

     16 Sym. Ops., with inversion, found ( 8 have fractional translation)



   Cartesian axes

     site n.     atom                  positions (alat units)
         1           Ti  tau(   1) = (  -1.7580316   1.7580316   1.7580316  )
         2           Ti  tau(   2) = (  -3.5160633   3.5160633   3.5160633  )
         3           Nb  tau(   3) = (  -1.7580316   5.2740949   1.7580316  )
         4           Nb  tau(   4) = (  -3.5160633   7.0321265   3.5160633  )

     number of k points=   225  Marzari-Vanderbilt smearing, width (Ry)=  0.0200

     Number of k-points >= 100: set verbosity='high' to print them.

     Dense  grid:   110779 G-vectors     FFT dimensions: (  48,  48,  96)

     Smooth grid:    27979 G-vectors     FFT dimensions: (  30,  30,  60)

     Estimated max dynamical RAM per process >     110.31Mb

     Estimated total allocated dynamical RAM >     441.26Mb

     Initial potential from superposition of free atoms

     starting charge   47.99445, renormalised to   50.00000
     Starting wfc are   46 randomized atomic wfcs

     total cpu time spent up to now is       19.4 secs

     per-process dynamical memory:   174.7 Mb

     Self-consistent Calculation

     iteration #  1     ecut=    50.00 Ry     beta=0.60
     Davidson diagonalization with overlap
     ethr =  1.00E-02,  avg # of iterations =  3.9

     total cpu time spent up to now is       56.6 secs

     total energy              =    -440.33972283 Ry
     Harris-Foulkes estimate   =    -473.21400859 Ry
     estimated scf accuracy    <      40.64852274 Ry

     iteration #  2     ecut=    50.00 Ry     beta=0.60
     Davidson diagonalization with overlap
     ethr =  1.00E-02,  avg # of iterations =  8.6

     total cpu time spent up to now is      142.8 secs

     total energy              =    -439.37647120 Ry
     Harris-Foulkes estimate   =    -532.32761422 Ry
     estimated scf accuracy    <     340.65445121 Ry

     iteration #  3     ecut=    50.00 Ry     beta=0.60
     Davidson diagonalization with overlap
     ethr =  1.00E-02,  avg # of iterations =  5.5

     total cpu time spent up to now is      204.8 secs

     total energy              =    -469.24944350 Ry
     Harris-Foulkes estimate   =    -472.07584968 Ry
     estimated scf accuracy    <      22.24768468 Ry

     iteration #  4     ecut=    50.00 Ry     beta=0.60
     Davidson diagonalization with overlap
     ethr =  1.00E-02,  avg # of iterations =  2.3

     total cpu time spent up to now is      233.8 secs

     total energy              =    -469.67438762 Ry
     Harris-Foulkes estimate   =    -469.73889454 Ry
     estimated scf accuracy    <       8.00378156 Ry

     iteration #  5     ecut=    50.00 Ry     beta=0.60
     Davidson diagonalization with overlap
     ethr =  1.00E-02,  avg # of iterations =  1.0

     total cpu time spent up to now is      259.5 secs

     total energy              =    -469.29062529 Ry
     Harris-Foulkes estimate   =    -469.70346253 Ry
     estimated scf accuracy    <       7.56636045 Ry

     iteration #  6     ecut=    50.00 Ry     beta=0.60
     Davidson diagonalization with overlap
     ethr =  1.00E-02,  avg # of iterations =  1.0

     total cpu time spent up to now is      285.1 secs

     total energy              =    -468.50055640 Ry
     Harris-Foulkes estimate   =    -469.33762485 Ry
     estimated scf accuracy    <       5.08555391 Ry

     iteration #  7     ecut=    50.00 Ry     beta=0.60
     Davidson diagonalization with overlap
     ethr =  1.00E-02,  avg # of iterations =  3.9

     total cpu time spent up to now is      316.7 secs

     total energy              =    -469.03574650 Ry
     Harris-Foulkes estimate   =    -469.03473248 Ry
     estimated scf accuracy    <       0.60110396 Ry

     iteration #  8     ecut=    50.00 Ry     beta=0.60
     Davidson diagonalization with overlap
     ethr =  1.20E-03,  avg # of iterations =  5.5

     total cpu time spent up to now is      359.9 secs

     total energy              =    -469.21528329 Ry
     Harris-Foulkes estimate   =    -469.20317107 Ry
     estimated scf accuracy    <       2.78422924 Ry

     iteration #  9     ecut=    50.00 Ry     beta=0.60
     Davidson diagonalization with overlap
     ethr =  1.20E-03,  avg # of iterations =  1.0

     total cpu time spent up to now is      385.4 secs

     total energy              =    -469.16643046 Ry
     Harris-Foulkes estimate   =    -469.21703703 Ry
     estimated scf accuracy    <       3.06823393 Ry

     iteration # 10     ecut=    50.00 Ry     beta=0.60
     Davidson diagonalization with overlap
     ethr =  1.20E-03,  avg # of iterations =  1.0

     total cpu time spent up to now is      411.0 secs

     total energy              =    -469.01557451 Ry
     Harris-Foulkes estimate   =    -469.17295259 Ry
     estimated scf accuracy    <       2.05526608 Ry

     iteration # 11     ecut=    50.00 Ry     beta=0.60
     Davidson diagonalization with overlap
     ethr =  1.20E-03,  avg # of iterations =  2.7

     total cpu time spent up to now is      439.2 secs

     total energy              =    -468.92821504 Ry
     Harris-Foulkes estimate   =    -469.07083436 Ry
     estimated scf accuracy    <       0.40912427 Ry

     iteration # 12     ecut=    50.00 Ry     beta=0.60
     Davidson diagonalization with overlap
     ethr =  8.18E-04,  avg # of iterations =  5.4

     total cpu time spent up to now is      485.3 secs

     total energy              =    -469.27734146 Ry
     Harris-Foulkes estimate   =    -469.40449144 Ry
     estimated scf accuracy    <       5.06786763 Ry

     iteration # 13     ecut=    50.00 Ry     beta=0.60
     Davidson diagonalization with overlap
     ethr =  8.18E-04,  avg # of iterations =  1.0

     total cpu time spent up to now is      510.8 secs

     total energy              =    -469.78839867 Ry
     Harris-Foulkes estimate   =    -469.28499243 Ry
     estimated scf accuracy    <       3.99686832 Ry

     iteration # 14     ecut=    50.00 Ry     beta=0.60
     Davidson diagonalization with overlap
     ethr =  8.18E-04,  avg # of iterations =  4.1

     total cpu time spent up to now is      543.8 secs

     total energy              =    -470.23413860 Ry
     Harris-Foulkes estimate   =    -469.88969774 Ry
     estimated scf accuracy    <       8.73654229 Ry

     iteration # 15     ecut=    50.00 Ry     beta=0.60
     Davidson diagonalization with overlap
     ethr =  8.18E-04,  avg # of iterations =  3.4

     total cpu time spent up to now is      573.9 secs

     total energy              =    -470.27539785 Ry
     Harris-Foulkes estimate   =    -470.25606714 Ry
     estimated scf accuracy    <      10.94449768 Ry

     iteration # 16     ecut=    50.00 Ry     beta=0.60
     Davidson diagonalization with overlap
     ethr =  8.18E-04,  avg # of iterations =  1.1

     total cpu time spent up to now is      600.8 secs

     total energy              =    -467.53942673 Ry
     Harris-Foulkes estimate   =    -470.27840479 Ry
     estimated scf accuracy    <      11.06155702 Ry

     iteration # 17     ecut=    50.00 Ry     beta=0.60
     Davidson diagonalization with overlap
     ethr =  8.18E-04,  avg # of iterations =  5.8

     total cpu time spent up to now is      664.6 secs

     total energy              =    -470.26496921 Ry
     Harris-Foulkes estimate   =    -470.55089562 Ry
     estimated scf accuracy    <      32.58559175 Ry

     iteration # 18     ecut=    50.00 Ry     beta=0.60
     Davidson diagonalization with overlap
     ethr =  8.18E-04,  avg # of iterations =  1.0

     total cpu time spent up to now is      690.1 secs

     total energy              =    -469.68492913 Ry
     Harris-Foulkes estimate   =    -470.28359635 Ry
     estimated scf accuracy    <      28.44170156 Ry

     iteration # 19     ecut=    50.00 Ry     beta=0.60
     Davidson diagonalization with overlap
     ethr =  8.18E-04,  avg # of iterations =  3.7

     total cpu time spent up to now is      723.0 secs

     total energy              =    -468.79415763 Ry
     Harris-Foulkes estimate   =    -469.77269897 Ry
     estimated scf accuracy    <      17.90429881 Ry

     iteration # 20     ecut=    50.00 Ry     beta=0.60
     Davidson diagonalization with overlap
     ethr =  8.18E-04,  avg # of iterations =  5.2

     total cpu time spent up to now is      766.9 secs

     total energy              =    -469.10174010 Ry
     Harris-Foulkes estimate   =    -469.16170681 Ry
     estimated scf accuracy    <       1.97446510 Ry

     iteration # 21     ecut=    50.00 Ry     beta=0.60
     Davidson diagonalization with overlap
     ethr =  8.18E-04,  avg # of iterations =  1.1

     total cpu time spent up to now is      792.4 secs

     total energy              =    -469.05792966 Ry
     Harris-Foulkes estimate   =    -469.11053232 Ry
     estimated scf accuracy    <       1.25029752 Ry

     iteration # 22     ecut=    50.00 Ry     beta=0.60
     Davidson diagonalization with overlap
     ethr =  8.18E-04,  avg # of iterations =  1.0

     total cpu time spent up to now is      817.9 secs

     total energy              =    -469.03878779 Ry
     Harris-Foulkes estimate   =    -469.07007975 Ry
     estimated scf accuracy    <       0.48957030 Ry

     iteration # 23     ecut=    50.00 Ry     beta=0.60
     Davidson diagonalization with overlap
     ethr =  8.18E-04,  avg # of iterations =  3.2

     total cpu time spent up to now is      847.1 secs

     total energy              =    -469.06268139 Ry
     Harris-Foulkes estimate   =    -469.06392464 Ry
     estimated scf accuracy    <       0.01374868 Ry

     iteration # 24     ecut=    50.00 Ry     beta=0.60
     Davidson diagonalization with overlap
     ethr =  2.75E-05,  avg # of iterations =  5.8

     total cpu time spent up to now is      893.3 secs

     total energy              =    -469.07010447 Ry
     Harris-Foulkes estimate   =    -469.07110130 Ry
     estimated scf accuracy    <       0.00247070 Ry

     iteration # 25     ecut=    50.00 Ry     beta=0.60
     Davidson diagonalization with overlap
     ethr =  4.94E-06,  avg # of iterations =  3.6

     total cpu time spent up to now is      927.0 secs

     total energy              =    -469.07010706 Ry
     Harris-Foulkes estimate   =    -469.07054751 Ry
     estimated scf accuracy    <       0.00284288 Ry

     iteration # 26     ecut=    50.00 Ry     beta=0.60
     Davidson diagonalization with overlap
     ethr =  4.94E-06,  avg # of iterations =  1.8

     total cpu time spent up to now is      953.7 secs

     total energy              =    -469.07033049 Ry
     Harris-Foulkes estimate   =    -469.07040465 Ry
     estimated scf accuracy    <       0.00025021 Ry

     iteration # 27     ecut=    50.00 Ry     beta=0.60
     Davidson diagonalization with overlap
     ethr =  5.00E-07,  avg # of iterations =  2.8

     total cpu time spent up to now is      985.0 secs

     total energy              =    -469.07039261 Ry
     Harris-Foulkes estimate   =    -469.07040344 Ry
     estimated scf accuracy    <       0.00023091 Ry

     iteration # 28     ecut=    50.00 Ry     beta=0.60
     Davidson diagonalization with overlap
     ethr =  4.62E-07,  avg # of iterations =  1.1

     total cpu time spent up to now is     1010.6 secs

     total energy              =    -469.07039049 Ry
     Harris-Foulkes estimate   =    -469.07039571 Ry
     estimated scf accuracy    <       0.00008192 Ry

     iteration # 29     ecut=    50.00 Ry     beta=0.60
     Davidson diagonalization with overlap
     ethr =  1.64E-07,  avg # of iterations =  2.0

     total cpu time spent up to now is     1037.4 secs

     total energy              =    -469.07039229 Ry
     Harris-Foulkes estimate   =    -469.07039315 Ry
     estimated scf accuracy    <       0.00001304 Ry

     iteration # 30     ecut=    50.00 Ry     beta=0.60
     Davidson diagonalization with overlap
     c_bands:  1 eigenvalues not converged
     ethr =  2.61E-08,  avg # of iterations =  4.5

     total cpu time spent up to now is     1071.7 secs

     total energy              =    -469.07039428 Ry
     Harris-Foulkes estimate   =    -469.07039426 Ry
     estimated scf accuracy    <       0.00000055 Ry

     iteration # 31     ecut=    50.00 Ry     beta=0.60
     Davidson diagonalization with overlap
     ethr =  1.10E-09,  avg # of iterations =  4.5

     total cpu time spent up to now is     1107.8 secs

     total energy              =    -469.07039437 Ry
     Harris-Foulkes estimate   =    -469.07039444 Ry
     estimated scf accuracy    <       0.00000208 Ry

     iteration # 32     ecut=    50.00 Ry     beta=0.60
     Davidson diagonalization with overlap
     ethr =  1.10E-09,  avg # of iterations =  1.0

     total cpu time spent up to now is     1133.3 secs

     total energy              =    -469.07039433 Ry
     Harris-Foulkes estimate   =    -469.07039439 Ry
     estimated scf accuracy    <       0.00000120 Ry

     iteration # 33     ecut=    50.00 Ry     beta=0.60
     Davidson diagonalization with overlap
     ethr =  1.10E-09,  avg # of iterations =  1.1

     total cpu time spent up to now is     1159.0 secs

     total energy              =    -469.07039433 Ry
     Harris-Foulkes estimate   =    -469.07039434 Ry
     estimated scf accuracy    <       0.00000042 Ry

     iteration # 34     ecut=    50.00 Ry     beta=0.60
     Davidson diagonalization with overlap
     ethr =  8.37E-10,  avg # of iterations =  1.0

     total cpu time spent up to now is     1184.5 secs

     total energy              =    -469.07039432 Ry
     Harris-Foulkes estimate   =    -469.07039434 Ry
     estimated scf accuracy    <       0.00000026 Ry

     iteration # 35     ecut=    50.00 Ry     beta=0.60
     Davidson diagonalization with overlap
     ethr =  5.24E-10,  avg # of iterations =  2.7

     total cpu time spent up to now is     1212.5 secs

     total energy              =    -469.07039433 Ry
     Harris-Foulkes estimate   =    -469.07039433 Ry
     estimated scf accuracy    <       0.00000001 Ry

     iteration # 36     ecut=    50.00 Ry     beta=0.60
     Davidson diagonalization with overlap
     ethr =  2.97E-11,  avg # of iterations =  4.8

     total cpu time spent up to now is     1251.3 secs

     total energy              =    -469.07039434 Ry
     Harris-Foulkes estimate   =    -469.07039434 Ry
     estimated scf accuracy    <          5.8E-09 Ry

     iteration # 37     ecut=    50.00 Ry     beta=0.60
     Davidson diagonalization with overlap
     ethr =  1.16E-11,  avg # of iterations =  1.0

     total cpu time spent up to now is     1276.9 secs

     total energy              =    -469.07039434 Ry
     Harris-Foulkes estimate   =    -469.07039434 Ry
     estimated scf accuracy    <          2.9E-09 Ry

     iteration # 38     ecut=    50.00 Ry     beta=0.60
     Davidson diagonalization with overlap
     ethr =  5.86E-12,  avg # of iterations =  1.0

     total cpu time spent up to now is     1302.5 secs

     total energy              =    -469.07039434 Ry
     Harris-Foulkes estimate   =    -469.07039434 Ry
     estimated scf accuracy    <          2.0E-09 Ry

     iteration # 39     ecut=    50.00 Ry     beta=0.60
     Davidson diagonalization with overlap
     ethr =  4.04E-12,  avg # of iterations =  1.1

     total cpu time spent up to now is     1328.2 secs

     total energy              =    -469.07039434 Ry
     Harris-Foulkes estimate   =    -469.07039434 Ry
     estimated scf accuracy    <          3.9E-10 Ry

     iteration # 40     ecut=    50.00 Ry     beta=0.60
     Davidson diagonalization with overlap
     ethr =  7.86E-13,  avg # of iterations =  4.3

     total cpu time spent up to now is     1363.9 secs

     End of self-consistent calculation

     Number of k-points >= 100: set verbosity='high' to print the bands.

     the Fermi energy is    12.1767 ev

!    total energy              =    -469.07039434 Ry
     Harris-Foulkes estimate   =    -469.07039434 Ry
     estimated scf accuracy    <          3.7E-11 Ry

     The total energy is the sum of the following terms:

     one-electron contribution =    -151.04225970 Ry
     hartree contribution      =      89.65294047 Ry
     xc contribution           =     -65.24310735 Ry
     ewald contribution        =    -342.43826210 Ry
     smearing contrib. (-TS)   =       0.00029434 Ry

     convergence has been achieved in  40 iterations

     Forces acting on atoms (Ry/au):

     atom    1 type  2   force =     0.00000000   -0.02172649    0.00000000
     atom    2 type  2   force =     0.00000000    0.02172649    0.00000000
     atom    3 type  1   force =    -0.00000000    0.01975552    0.00000000
     atom    4 type  1   force =     0.00000000   -0.01975552    0.00000000

     Total force =     0.041529     Total SCF correction =     0.000017


     entering subroutine stress ...

          total   stress  (Ry/bohr**3)                   (kbar)     P= -199.79
  -0.00133140   0.00000000   0.00000000       -195.86      0.00      0.00
   0.00000000  -0.00141172   0.00000000          0.00   -207.67      0.00
   0.00000000   0.00000000  -0.00133140          0.00      0.00   -195.86


     BFGS Geometry Optimization

     number of scf cycles    =   1
     number of bfgs steps    =   0

     enthalpy new            =    -469.0703943381 Ry

     new trust radius        =       0.1709688892 bohr
     new conv_thr            =            1.0E-10 Ry

     new unit-cell volume =    528.91844 a.u.^3 (    78.37763 Ang^3 )

CELL_PARAMETERS (alat=  1.88972599)
  -3.399030557   0.000000000   0.000000000
   0.000000000   0.000000000   3.399030557
   0.000000000   6.783941006   0.000000000

ATOMIC_POSITIONS (angstrom)
Ti      -1.699515279   1.684893860   1.699515279
Ti      -3.399030557   3.403061895   3.399030557
Nb      -1.699515279   5.098040965   1.699515279
Nb      -3.399030557   6.773855795   3.399030557


     NEW-OLD atomic charge density approx. for the potential
     extrapolated charge   44.75927, renormalised to   50.00000

     total cpu time spent up to now is     1383.7 secs

     per-process dynamical memory:   186.0 Mb

     Self-consistent Calculation

     iteration #  1     ecut=    50.00 Ry     beta=0.60
     Davidson diagonalization with overlap
     c_bands:  1 eigenvalues not converged
     c_bands:  1 eigenvalues not converged
     c_bands:  1 eigenvalues not converged
     c_bands:  1 eigenvalues not converged
     c_bands:  1 eigenvalues not converged
     c_bands:  1 eigenvalues not converged
     c_bands:  1 eigenvalues not converged
     c_bands:  2 eigenvalues not converged
     c_bands:  1 eigenvalues not converged
     c_bands:  1 eigenvalues not converged
     c_bands:  1 eigenvalues not converged
     c_bands:  1 eigenvalues not converged
     c_bands:  2 eigenvalues not converged
     c_bands:  1 eigenvalues not converged
     c_bands:  2 eigenvalues not converged
     c_bands:  1 eigenvalues not converged
     c_bands:  1 eigenvalues not converged
     c_bands:  1 eigenvalues not converged
     c_bands:  2 eigenvalues not converged
     c_bands:  1 eigenvalues not converged
     c_bands:  1 eigenvalues not converged
     c_bands:  1 eigenvalues not converged
     ethr =  1.00E-06,  avg # of iterations = 15.9

     total cpu time spent up to now is     1514.0 secs

     total energy              =    -455.17984248 Ry
     Harris-Foulkes estimate   =    -480.09972294 Ry
     estimated scf accuracy    <      14.92914312 Ry

     iteration #  2     ecut=    50.00 Ry     beta=0.60
     Davidson diagonalization with overlap
     ethr =  1.00E-02,  avg # of iterations =  6.1

     total cpu time spent up to now is     1575.5 secs

     total energy              =    -459.90508148 Ry
     Harris-Foulkes estimate   =    -490.91911982 Ry
     estimated scf accuracy    <     115.66703516 Ry

     iteration #  3     ecut=    50.00 Ry     beta=0.60
     Davidson diagonalization with overlap
     ethr =  1.00E-02,  avg # of iterations =  4.9

     total cpu time spent up to now is     1626.7 secs

     total energy              =    -470.13602569 Ry
     Harris-Foulkes estimate   =    -471.90752678 Ry
     estimated scf accuracy    <       7.88494886 Ry

     iteration #  4     ecut=    50.00 Ry     beta=0.60
     Davidson diagonalization with overlap
     ethr =  1.00E-02,  avg # of iterations =  1.0

     total cpu time spent up to now is     1652.2 secs

     total energy              =    -469.56710569 Ry
     Harris-Foulkes estimate   =    -470.37137192 Ry
     estimated scf accuracy    <       7.00145270 Ry

     iteration #  5     ecut=    50.00 Ry     beta=0.60
     Davidson diagonalization with overlap
     ethr =  1.00E-02,  avg # of iterations =  1.0

     total cpu time spent up to now is     1677.6 secs

     total energy              =    -468.92224619 Ry
     Harris-Foulkes estimate   =    -469.67872170 Ry
     estimated scf accuracy    <       3.94308505 Ry

     iteration #  6     ecut=    50.00 Ry     beta=0.60
     Davidson diagonalization with overlap
     ethr =  7.89E-03,  avg # of iterations =  1.6

     total cpu time spent up to now is     1703.7 secs

     total energy              =    -469.12528985 Ry
     Harris-Foulkes estimate   =    -469.09233550 Ry
     estimated scf accuracy    <       0.80237456 Ry

     iteration #  7     ecut=    50.00 Ry     beta=0.60
     Davidson diagonalization with overlap
     ethr =  1.60E-03,  avg # of iterations =  4.2

     total cpu time spent up to now is     1738.2 secs

     total energy              =    -469.29332045 Ry
     Harris-Foulkes estimate   =    -469.23577634 Ry
     estimated scf accuracy    <       0.43715429 Ry

     iteration #  8     ecut=    50.00 Ry     beta=0.60
     Davidson diagonalization with overlap
     ethr =  8.74E-04,  avg # of iterations =  1.4

     total cpu time spent up to now is     1764.3 secs

     total energy              =    -469.32970979 Ry
     Harris-Foulkes estimate   =    -469.32375448 Ry
     estimated scf accuracy    <       1.31919249 Ry

     iteration #  9     ecut=    50.00 Ry     beta=0.60
     Davidson diagonalization with overlap
     ethr =  8.74E-04,  avg # of iterations =  1.0

     total cpu time spent up to now is     1789.8 secs

     total energy              =    -469.38537683 Ry
     Harris-Foulkes estimate   =    -469.33227906 Ry
     estimated scf accuracy    <       1.36495600 Ry

     iteration # 10     ecut=    50.00 Ry     beta=0.60
     Davidson diagonalization with overlap
     ethr =  8.74E-04,  avg # of iterations =  1.0

     total cpu time spent up to now is     1815.2 secs

     total energy              =    -469.04331199 Ry
     Harris-Foulkes estimate   =    -469.38983802 Ry
     estimated scf accuracy    <       1.80946017 Ry

     iteration # 11     ecut=    50.00 Ry     beta=0.60
     Davidson diagonalization with overlap
     ethr =  8.74E-04,  avg # of iterations =  3.6

     total cpu time spent up to now is     1854.3 secs

     total energy              =    -469.14105897 Ry
     Harris-Foulkes estimate   =    -469.16756591 Ry
     estimated scf accuracy    <       0.50600691 Ry

     iteration # 12     ecut=    50.00 Ry     beta=0.60
     Davidson diagonalization with overlap
     ethr =  8.74E-04,  avg # of iterations =  1.2

     total cpu time spent up to now is     1879.9 secs

     total energy              =    -469.13375166 Ry
     Harris-Foulkes estimate   =    -469.14743127 Ry
     estimated scf accuracy    <       0.17023029 Ry

     iteration # 13     ecut=    50.00 Ry     beta=0.60
     Davidson diagonalization with overlap
     ethr =  3.40E-04,  avg # of iterations =  2.1

     total cpu time spent up to now is     1907.0 secs

     total energy              =    -469.13164857 Ry
     Harris-Foulkes estimate   =    -469.13893533 Ry
     estimated scf accuracy    <       0.03241544 Ry

     iteration # 14     ecut=    50.00 Ry     beta=0.60
     Davidson diagonalization with overlap
     ethr =  6.48E-05,  avg # of iterations =  6.5

     total cpu time spent up to now is     1949.9 secs

     total energy              =    -469.13647065 Ry
     Harris-Foulkes estimate   =    -469.13737617 Ry
     estimated scf accuracy    <       0.00300499 Ry

     iteration # 15     ecut=    50.00 Ry     beta=0.60
     Davidson diagonalization with overlap
     c_bands:  1 eigenvalues not converged
     ethr =  6.01E-06,  avg # of iterations =  4.6

     total cpu time spent up to now is     1988.2 secs

     total energy              =    -469.13728455 Ry
     Harris-Foulkes estimate   =    -469.13695975 Ry
     estimated scf accuracy    <       0.00080617 Ry

     iteration # 16     ecut=    50.00 Ry     beta=0.60
     Davidson diagonalization with overlap
     ethr =  1.61E-06,  avg # of iterations =  4.7

     total cpu time spent up to now is     2042.1 secs

     total energy              =    -469.13832315 Ry
     Harris-Foulkes estimate   =    -469.13772483 Ry
     estimated scf accuracy    <       0.00511555 Ry

     iteration # 17     ecut=    50.00 Ry     beta=0.60
     Davidson diagonalization with overlap
     ethr =  1.61E-06,  avg # of iterations =  2.9

     total cpu time spent up to now is     2072.3 secs

     total energy              =    -469.13539467 Ry
     Harris-Foulkes estimate   =    -469.13838264 Ry
     estimated scf accuracy    <       0.00762291 Ry

     iteration # 18     ecut=    50.00 Ry     beta=0.60
     Davidson diagonalization with overlap
     ethr =  1.61E-06,  avg # of iterations =  5.4

     total cpu time spent up to now is     2130.8 secs

     total energy              =    -469.13633851 Ry
     Harris-Foulkes estimate   =    -469.13743008 Ry
     estimated scf accuracy    <       0.00206146 Ry

     iteration # 19     ecut=    50.00 Ry     beta=0.60
     Davidson diagonalization with overlap
     ethr =  1.61E-06,  avg # of iterations =  3.5

     total cpu time spent up to now is     2172.0 secs

     total energy              =    -469.13677968 Ry
     Harris-Foulkes estimate   =    -469.13679749 Ry
     estimated scf accuracy    <       0.00007700 Ry

     iteration # 20     ecut=    50.00 Ry     beta=0.60
     Davidson diagonalization with overlap
     ethr =  1.54E-07,  avg # of iterations =  4.2

     total cpu time spent up to now is     2206.6 secs

     total energy              =    -469.13678509 Ry
     Harris-Foulkes estimate   =    -469.13679620 Ry
     estimated scf accuracy    <       0.00023140 Ry

     iteration # 21     ecut=    50.00 Ry     beta=0.60
     Davidson diagonalization with overlap
     ethr =  1.54E-07,  avg # of iterations =  1.0

     total cpu time spent up to now is     2232.0 secs

     total energy              =    -469.13678073 Ry
     Harris-Foulkes estimate   =    -469.13678756 Ry
     estimated scf accuracy    <       0.00009464 Ry

     iteration # 22     ecut=    50.00 Ry     beta=0.60
     Davidson diagonalization with overlap
     ethr =  1.54E-07,  avg # of iterations =  1.4

     total cpu time spent up to now is     2258.0 secs

     total energy              =    -469.13678075 Ry
     Harris-Foulkes estimate   =    -469.13678300 Ry
     estimated scf accuracy    <       0.00001887 Ry

     iteration # 23     ecut=    50.00 Ry     beta=0.60
     Davidson diagonalization with overlap
     ethr =  3.77E-08,  avg # of iterations =  3.9

     total cpu time spent up to now is     2292.1 secs

     total energy              =    -469.13678387 Ry
     Harris-Foulkes estimate   =    -469.13678436 Ry
     estimated scf accuracy    <       0.00000637 Ry

     iteration # 24     ecut=    50.00 Ry     beta=0.60
     Davidson diagonalization with overlap
     ethr =  1.27E-08,  avg # of iterations =  1.2

     total cpu time spent up to now is     2317.7 secs

     total energy              =    -469.13678384 Ry
     Harris-Foulkes estimate   =    -469.13678402 Ry
     estimated scf accuracy    <       0.00000165 Ry

     iteration # 25     ecut=    50.00 Ry     beta=0.60
     Davidson diagonalization with overlap
     ethr =  3.29E-09,  avg # of iterations =  3.4

     total cpu time spent up to now is     2349.1 secs

     total energy              =    -469.13678401 Ry
     Harris-Foulkes estimate   =    -469.13678402 Ry
     estimated scf accuracy    <       0.00000005 Ry

     iteration # 26     ecut=    50.00 Ry     beta=0.60
     Davidson diagonalization with overlap
     ethr =  1.06E-10,  avg # of iterations =  4.0

     total cpu time spent up to now is     2384.7 secs

     total energy              =    -469.13678402 Ry
     Harris-Foulkes estimate   =    -469.13678402 Ry
     estimated scf accuracy    <          3.8E-09 Ry

     iteration # 27     ecut=    50.00 Ry     beta=0.60
     Davidson diagonalization with overlap
     ethr =  7.55E-12,  avg # of iterations =  3.9

     total cpu time spent up to now is     2420.5 secs

     total energy              =    -469.13678402 Ry
     Harris-Foulkes estimate   =    -469.13678402 Ry
     estimated scf accuracy    <          4.8E-10 Ry

     iteration # 28     ecut=    50.00 Ry     beta=0.60
     Davidson diagonalization with overlap
     ethr =  9.54E-13,  avg # of iterations =  4.2

     total cpu time spent up to now is     2456.8 secs

     total energy              =    -469.13678402 Ry
     Harris-Foulkes estimate   =    -469.13678402 Ry
     estimated scf accuracy    <          1.5E-10 Ry

     iteration # 29     ecut=    50.00 Ry     beta=0.60
     Davidson diagonalization with overlap
     ethr =  2.93E-13,  avg # of iterations =  1.7

     total cpu time spent up to now is     2483.4 secs

     End of self-consistent calculation

     Number of k-points >= 100: set verbosity='high' to print the bands.

     the Fermi energy is    13.8182 ev

!    total energy              =    -469.13678402 Ry
     Harris-Foulkes estimate   =    -469.13678402 Ry
     estimated scf accuracy    <          6.0E-11 Ry

     The total energy is the sum of the following terms:

     one-electron contribution =    -133.52375949 Ry
     hartree contribution      =      84.30371036 Ry
     xc contribution           =     -65.57250803 Ry
     ewald contribution        =    -354.34430351 Ry
     smearing contrib. (-TS)   =       0.00007664 Ry

     convergence has been achieved in  29 iterations

     Forces acting on atoms (Ry/au):

     atom    1 type  2   force =     0.00000000   -0.01731191    0.00000000
     atom    2 type  2   force =    -0.00000000    0.01731191    0.00000000
     atom    3 type  1   force =     0.00000000    0.01295869    0.00000000
     atom    4 type  1   force =     0.00000000   -0.01295869    0.00000000

     Total force =     0.030582     Total SCF correction =     0.000030


     entering subroutine stress ...

          total   stress  (Ry/bohr**3)                   (kbar)     P= -122.99
  -0.00081309   0.00000000   0.00000000       -119.61      0.00      0.00
   0.00000000  -0.00088202   0.00000000          0.00   -129.75      0.00
   0.00000000   0.00000000  -0.00081309          0.00      0.00   -119.61


     number of scf cycles    =   2
     number of bfgs steps    =   1

     enthalpy old            =    -469.0703943381 Ry
     enthalpy new            =    -469.1367840237 Ry

     CASE: enthalpy_new < enthalpy_old

     new trust radius        =       0.2329940463 bohr
     new conv_thr            =            1.0E-10 Ry

     new unit-cell volume =    456.50952 a.u.^3 (    67.64773 Ang^3 )

CELL_PARAMETERS (alat=  1.88972599)
  -3.240959117   0.000000000   0.000000000
   0.000000000   0.000000000   3.240959117
   0.000000000   6.440301931   0.000000000

ATOMIC_POSITIONS (angstrom)
Ti      -1.620479558   1.580361308   1.620479558
Ti      -3.240959117   3.249865140   3.240959117
Nb      -1.620479558   4.854166009   1.620479558
Nb      -3.240959117   6.416362370   3.240959117


     NEW-OLD atomic charge density approx. for the potential
     extrapolated charge   42.38740, renormalised to   50.00000

     total cpu time spent up to now is     2503.5 secs

     per-process dynamical memory:   186.0 Mb

     Self-consistent Calculation

     iteration #  1     ecut=    50.00 Ry     beta=0.60
     Davidson diagonalization with overlap
     c_bands:  1 eigenvalues not converged
     c_bands:  1 eigenvalues not converged
     ethr =  1.00E-06,  avg # of iterations = 14.8

     total cpu time spent up to now is     2635.9 secs

     total energy              =    -444.78121205 Ry
     Harris-Foulkes estimate   =    -483.00219971 Ry
     estimated scf accuracy    <      26.21741346 Ry

     iteration #  2     ecut=    50.00 Ry     beta=0.60
     Davidson diagonalization with overlap
     ethr =  1.00E-02,  avg # of iterations =  6.2

     total cpu time spent up to now is     2701.2 secs

     total energy              =    -446.21818706 Ry
     Harris-Foulkes estimate   =    -507.85397989 Ry
     estimated scf accuracy    <     245.11371579 Ry

     iteration #  3     ecut=    50.00 Ry     beta=0.60
     Davidson diagonalization with overlap
     ethr =  1.00E-02,  avg # of iterations =  4.6

     total cpu time spent up to now is     2758.3 secs

     total energy              =    -470.58239526 Ry
     Harris-Foulkes estimate   =    -473.04298686 Ry
     estimated scf accuracy    <      10.09090108 Ry

     iteration #  4     ecut=    50.00 Ry     beta=0.60
     Davidson diagonalization with overlap
     ethr =  1.00E-02,  avg # of iterations =  1.7

     total cpu time spent up to now is     2784.8 secs

     total energy              =    -469.30085727 Ry
     Harris-Foulkes estimate   =    -470.99291861 Ry
     estimated scf accuracy    <       9.03217995 Ry

     iteration #  5     ecut=    50.00 Ry     beta=0.60
     Davidson diagonalization with overlap
     ethr =  1.00E-02,  avg # of iterations =  1.6

     total cpu time spent up to now is     2811.2 secs

     total energy              =    -469.05553002 Ry
     Harris-Foulkes estimate   =    -469.58118359 Ry
     estimated scf accuracy    <       2.87845775 Ry

     iteration #  6     ecut=    50.00 Ry     beta=0.60
     Davidson diagonalization with overlap
     ethr =  5.76E-03,  avg # of iterations =  2.4

     total cpu time spent up to now is     2839.0 secs

     total energy              =    -469.26468134 Ry
     Harris-Foulkes estimate   =    -469.22750373 Ry
     estimated scf accuracy    <       0.56358551 Ry

     iteration #  7     ecut=    50.00 Ry     beta=0.60
     Davidson diagonalization with overlap
     ethr =  1.13E-03,  avg # of iterations =  3.7

     total cpu time spent up to now is     2870.7 secs

     total energy              =    -469.26531362 Ry
     Harris-Foulkes estimate   =    -469.32526262 Ry
     estimated scf accuracy    <       0.96735225 Ry

     iteration #  8     ecut=    50.00 Ry     beta=0.60
     Davidson diagonalization with overlap
     ethr =  1.13E-03,  avg # of iterations =  1.2

     total cpu time spent up to now is     2896.4 secs

     total energy              =    -469.12949669 Ry
     Harris-Foulkes estimate   =    -469.27136331 Ry
     estimated scf accuracy    <       0.82634073 Ry

     iteration #  9     ecut=    50.00 Ry     beta=0.60
     Davidson diagonalization with overlap
     ethr =  1.13E-03,  avg # of iterations =  2.7

     total cpu time spent up to now is     2924.7 secs

     total energy              =    -469.16524996 Ry
     Harris-Foulkes estimate   =    -469.16325036 Ry
     estimated scf accuracy    <       0.14845764 Ry

     iteration # 10     ecut=    50.00 Ry     beta=0.60
     Davidson diagonalization with overlap
     ethr =  2.97E-04,  avg # of iterations =  5.2

     total cpu time spent up to now is     2958.7 secs

     total energy              =    -469.12477163 Ry
     Harris-Foulkes estimate   =    -469.17427768 Ry
     estimated scf accuracy    <       0.11716451 Ry

     iteration # 11     ecut=    50.00 Ry     beta=0.60
     Davidson diagonalization with overlap
     ethr =  2.34E-04,  avg # of iterations =  5.3

     total cpu time spent up to now is     3004.0 secs

     total energy              =    -469.15132986 Ry
     Harris-Foulkes estimate   =    -469.16983950 Ry
     estimated scf accuracy    <       0.17838543 Ry

     iteration # 12     ecut=    50.00 Ry     beta=0.60
     Davidson diagonalization with overlap
     ethr =  2.34E-04,  avg # of iterations =  1.1

     total cpu time spent up to now is     3029.5 secs

     total energy              =    -469.15171916 Ry
     Harris-Foulkes estimate   =    -469.15619832 Ry
     estimated scf accuracy    <       0.03195049 Ry

     iteration # 13     ecut=    50.00 Ry     beta=0.60
     Davidson diagonalization with overlap
     ethr =  6.39E-05,  avg # of iterations =  4.1

     total cpu time spent up to now is     3066.1 secs

     total energy              =    -469.16073941 Ry
     Harris-Foulkes estimate   =    -469.15937129 Ry
     estimated scf accuracy    <       0.01555662 Ry

     iteration # 14     ecut=    50.00 Ry     beta=0.60
     Davidson diagonalization with overlap
     ethr =  3.11E-05,  avg # of iterations =  1.3

     total cpu time spent up to now is     3091.9 secs

     total energy              =    -469.15835314 Ry
     Harris-Foulkes estimate   =    -469.16100556 Ry
     estimated scf accuracy    <       0.02851678 Ry

     iteration # 15     ecut=    50.00 Ry     beta=0.60
     Davidson diagonalization with overlap
     ethr =  3.11E-05,  avg # of iterations =  1.0

     total cpu time spent up to now is     3117.4 secs

     total energy              =    -469.15816727 Ry
     Harris-Foulkes estimate   =    -469.15879113 Ry
     estimated scf accuracy    <       0.01065895 Ry

     iteration # 16     ecut=    50.00 Ry     beta=0.60
     Davidson diagonalization with overlap
     ethr =  2.13E-05,  avg # of iterations =  1.2

     total cpu time spent up to now is     3143.0 secs

     total energy              =    -469.15826070 Ry
     Harris-Foulkes estimate   =    -469.15832587 Ry
     estimated scf accuracy    <       0.00444587 Ry

     iteration # 17     ecut=    50.00 Ry     beta=0.60
     Davidson diagonalization with overlap
     ethr =  8.89E-06,  avg # of iterations =  1.3

     total cpu time spent up to now is     3168.9 secs

     total energy              =    -469.15798351 Ry
     Harris-Foulkes estimate   =    -469.15830730 Ry
     estimated scf accuracy    <       0.00370696 Ry

     iteration # 18     ecut=    50.00 Ry     beta=0.60
     Davidson diagonalization with overlap
     ethr =  7.41E-06,  avg # of iterations =  2.3

     total cpu time spent up to now is     3196.2 secs

     total energy              =    -469.15805049 Ry
     Harris-Foulkes estimate   =    -469.15811006 Ry
     estimated scf accuracy    <       0.00074801 Ry

     iteration # 19     ecut=    50.00 Ry     beta=0.60
     Davidson diagonalization with overlap
     ethr =  1.50E-06,  avg # of iterations =  5.0

     total cpu time spent up to now is     3234.7 secs

     total energy              =    -469.15823924 Ry
     Harris-Foulkes estimate   =    -469.15824697 Ry
     estimated scf accuracy    <       0.00007344 Ry

     iteration # 20     ecut=    50.00 Ry     beta=0.60
     Davidson diagonalization with overlap
     ethr =  1.47E-07,  avg # of iterations =  2.1

     total cpu time spent up to now is     3262.0 secs

     total energy              =    -469.15823535 Ry
     Harris-Foulkes estimate   =    -469.15824158 Ry
     estimated scf accuracy    <       0.00002770 Ry

     iteration # 21     ecut=    50.00 Ry     beta=0.60
     Davidson diagonalization with overlap
     ethr =  5.54E-08,  avg # of iterations =  3.5

     total cpu time spent up to now is     3294.7 secs

     total energy              =    -469.15824112 Ry
     Harris-Foulkes estimate   =    -469.15824087 Ry
     estimated scf accuracy    <       0.00000880 Ry

     iteration # 22     ecut=    50.00 Ry     beta=0.60
     Davidson diagonalization with overlap
     ethr =  1.76E-08,  avg # of iterations =  1.5

     total cpu time spent up to now is     3320.9 secs

     total energy              =    -469.15824073 Ry
     Harris-Foulkes estimate   =    -469.15824139 Ry
     estimated scf accuracy    <       0.00001502 Ry

     iteration # 23     ecut=    50.00 Ry     beta=0.60
     Davidson diagonalization with overlap
     ethr =  1.76E-08,  avg # of iterations =  1.0

     total cpu time spent up to now is     3346.4 secs

     total energy              =    -469.15824031 Ry
     Harris-Foulkes estimate   =    -469.15824082 Ry
     estimated scf accuracy    <       0.00000989 Ry

     iteration # 24     ecut=    50.00 Ry     beta=0.60
     Davidson diagonalization with overlap
     ethr =  1.76E-08,  avg # of iterations =  1.0

     total cpu time spent up to now is     3371.9 secs

     total energy              =    -469.15824013 Ry
     Harris-Foulkes estimate   =    -469.15824038 Ry
     estimated scf accuracy    <       0.00000537 Ry

     iteration # 25     ecut=    50.00 Ry     beta=0.60
     Davidson diagonalization with overlap
     ethr =  1.07E-08,  avg # of iterations =  1.0

     total cpu time spent up to now is     3397.3 secs

     total energy              =    -469.15823979 Ry
     Harris-Foulkes estimate   =    -469.15824018 Ry
     estimated scf accuracy    <       0.00000274 Ry

     iteration # 26     ecut=    50.00 Ry     beta=0.60
     Davidson diagonalization with overlap
     ethr =  5.49E-09,  avg # of iterations =  3.3

     total cpu time spent up to now is     3433.7 secs

     total energy              =    -469.15824004 Ry
     Harris-Foulkes estimate   =    -469.15824005 Ry
     estimated scf accuracy    <       0.00000004 Ry

     iteration # 27     ecut=    50.00 Ry     beta=0.60
     Davidson diagonalization with overlap
     ethr =  8.93E-11,  avg # of iterations =  4.5

     total cpu time spent up to now is     3474.1 secs

     total energy              =    -469.15824007 Ry
     Harris-Foulkes estimate   =    -469.15824007 Ry
     estimated scf accuracy    <          1.5E-09 Ry

     iteration # 28     ecut=    50.00 Ry     beta=0.60
     Davidson diagonalization with overlap
     ethr =  3.07E-12,  avg # of iterations =  4.9

     total cpu time spent up to now is     3520.9 secs

     total energy              =    -469.15824007 Ry
     Harris-Foulkes estimate   =    -469.15824008 Ry
     estimated scf accuracy    <       0.00000003 Ry

     iteration # 29     ecut=    50.00 Ry     beta=0.60
     Davidson diagonalization with overlap
     ethr =  3.07E-12,  avg # of iterations =  4.2

     total cpu time spent up to now is     3558.8 secs

     total energy              =    -469.15824007 Ry
     Harris-Foulkes estimate   =    -469.15824007 Ry
     estimated scf accuracy    <          2.5E-09 Ry

     iteration # 30     ecut=    50.00 Ry     beta=0.60
     Davidson diagonalization with overlap
     ethr =  3.07E-12,  avg # of iterations =  3.1

     total cpu time spent up to now is     3587.7 secs

     End of self-consistent calculation

     Number of k-points >= 100: set verbosity='high' to print the bands.

     the Fermi energy is    16.4338 ev

!    total energy              =    -469.15824007 Ry
     Harris-Foulkes estimate   =    -469.15824007 Ry
     estimated scf accuracy    <          1.6E-11 Ry

     The total energy is the sum of the following terms:

     one-electron contribution =    -108.19588784 Ry
     hartree contribution      =      77.02417492 Ry
     xc contribution           =     -66.12233598 Ry
     ewald contribution        =    -371.86398612 Ry
     smearing contrib. (-TS)   =      -0.00020506 Ry

     convergence has been achieved in  30 iterations

     Forces acting on atoms (Ry/au):

     atom    1 type  2   force =     0.00000000   -0.00272591    0.00000000
     atom    2 type  2   force =     0.00000000    0.00272591    0.00000000
     atom    3 type  1   force =     0.00000000   -0.00430111    0.00000000
     atom    4 type  1   force =    -0.00000000    0.00430111    0.00000000

     Total force =     0.007201     Total SCF correction =     0.000008


     entering subroutine stress ...

          total   stress  (Ry/bohr**3)                   (kbar)     P=   62.24
   0.00043821   0.00000000   0.00000000         64.46      0.00      0.00
   0.00000000   0.00039288   0.00000000          0.00     57.79      0.00
   0.00000000   0.00000000   0.00043821          0.00      0.00     64.46


     number of scf cycles    =   3
     number of bfgs steps    =   2

     enthalpy old            =    -469.1367840237 Ry
     enthalpy new            =    -469.1582400729 Ry

     CASE: enthalpy_new < enthalpy_old

     new trust radius        =       0.0670649985 bohr
     new conv_thr            =            1.0E-10 Ry

     new unit-cell volume =    478.18299 a.u.^3 (    70.85941 Ang^3 )

CELL_PARAMETERS (alat=  1.88972599)
  -3.291275164   0.000000000   0.000000000
   0.000000000   0.000000000   3.291275164
   0.000000000   6.541377742   0.000000000

ATOMIC_POSITIONS (angstrom)
Ti      -1.645637582   1.607743689   1.645637582
Ti      -3.291275164   3.298289617   3.291275164
Nb      -1.645637582   4.926438583   1.645637582
Nb      -3.291275164   6.520972466   3.291275164


     NEW-OLD atomic charge density approx. for the potential
     extrapolated charge   52.17533, renormalised to   50.00000

     total cpu time spent up to now is     3607.9 secs

     per-process dynamical memory:   186.0 Mb

     Self-consistent Calculation

     iteration #  1     ecut=    50.00 Ry     beta=0.60
     Davidson diagonalization with overlap
     c_bands:  1 eigenvalues not converged
     c_bands:  1 eigenvalues not converged
     c_bands:  1 eigenvalues not converged
     c_bands:  1 eigenvalues not converged
     c_bands:  1 eigenvalues not converged
     ethr =  1.00E-06,  avg # of iterations = 11.6

     total cpu time spent up to now is     3700.1 secs

     total energy              =    -468.73660347 Ry
     Harris-Foulkes estimate   =    -465.61101260 Ry
     estimated scf accuracy    <       0.34400446 Ry

     iteration #  2     ecut=    50.00 Ry     beta=0.60
     Davidson diagonalization with overlap
     ethr =  6.88E-04,  avg # of iterations =  3.9

     total cpu time spent up to now is     3752.6 secs

     total energy              =    -468.97071911 Ry
     Harris-Foulkes estimate   =    -469.45642648 Ry
     estimated scf accuracy    <       1.62639794 Ry

     iteration #  3     ecut=    50.00 Ry     beta=0.60
     Davidson diagonalization with overlap
     ethr =  6.88E-04,  avg # of iterations =  5.0

     total cpu time spent up to now is     3798.6 secs

     total energy              =    -468.96072003 Ry
     Harris-Foulkes estimate   =    -469.48652344 Ry
     estimated scf accuracy    <       6.10048855 Ry

     iteration #  4     ecut=    50.00 Ry     beta=0.60
     Davidson diagonalization with overlap
     ethr =  6.88E-04,  avg # of iterations =  4.3

     total cpu time spent up to now is     3837.5 secs

     total energy              =    -469.17455865 Ry
     Harris-Foulkes estimate   =    -469.19279072 Ry
     estimated scf accuracy    <       0.13100798 Ry

     iteration #  5     ecut=    50.00 Ry     beta=0.60
     Davidson diagonalization with overlap
     ethr =  2.62E-04,  avg # of iterations =  1.7

     total cpu time spent up to now is     3864.0 secs

     total energy              =    -469.16183356 Ry
     Harris-Foulkes estimate   =    -469.17678769 Ry
     estimated scf accuracy    <       0.07945231 Ry

     iteration #  6     ecut=    50.00 Ry     beta=0.60
     Davidson diagonalization with overlap
     ethr =  1.59E-04,  avg # of iterations =  2.1

     total cpu time spent up to now is     3891.5 secs

     total energy              =    -469.16160297 Ry
     Harris-Foulkes estimate   =    -469.16513206 Ry
     estimated scf accuracy    <       0.02709600 Ry

     iteration #  7     ecut=    50.00 Ry     beta=0.60
     Davidson diagonalization with overlap
     ethr =  5.42E-05,  avg # of iterations =  3.0

     total cpu time spent up to now is     3920.6 secs

     total energy              =    -469.16217589 Ry
     Harris-Foulkes estimate   =    -469.16276022 Ry
     estimated scf accuracy    <       0.01020969 Ry

     iteration #  8     ecut=    50.00 Ry     beta=0.60
     Davidson diagonalization with overlap
     ethr =  2.04E-05,  avg # of iterations =  4.2

     total cpu time spent up to now is     3952.9 secs

     total energy              =    -469.16269114 Ry
     Harris-Foulkes estimate   =    -469.16276921 Ry
     estimated scf accuracy    <       0.00411303 Ry

     iteration #  9     ecut=    50.00 Ry     beta=0.60
     Davidson diagonalization with overlap
     ethr =  8.23E-06,  avg # of iterations =  3.1

     total cpu time spent up to now is     3981.7 secs

     total energy              =    -469.16218899 Ry
     Harris-Foulkes estimate   =    -469.16278514 Ry
     estimated scf accuracy    <       0.00391776 Ry

     iteration # 10     ecut=    50.00 Ry     beta=0.60
     Davidson diagonalization with overlap
     ethr =  7.84E-06,  avg # of iterations =  1.4

     total cpu time spent up to now is     4007.7 secs

     total energy              =    -469.16180817 Ry
     Harris-Foulkes estimate   =    -469.16228318 Ry
     estimated scf accuracy    <       0.00237530 Ry

     iteration # 11     ecut=    50.00 Ry     beta=0.60
     Davidson diagonalization with overlap
     ethr =  4.75E-06,  avg # of iterations =  4.0

     total cpu time spent up to now is     4041.1 secs

     total energy              =    -469.16206168 Ry
     Harris-Foulkes estimate   =    -469.16207106 Ry
     estimated scf accuracy    <       0.00024252 Ry

     iteration # 12     ecut=    50.00 Ry     beta=0.60
     Davidson diagonalization with overlap
     ethr =  4.85E-07,  avg # of iterations =  4.5

     total cpu time spent up to now is     4074.5 secs

     total energy              =    -469.16208935 Ry
     Harris-Foulkes estimate   =    -469.16208900 Ry
     estimated scf accuracy    <       0.00003429 Ry

     iteration # 13     ecut=    50.00 Ry     beta=0.60
     Davidson diagonalization with overlap
     ethr =  6.86E-08,  avg # of iterations =  3.5

     total cpu time spent up to now is     4107.0 secs

     total energy              =    -469.16209033 Ry
     Harris-Foulkes estimate   =    -469.16209323 Ry
     estimated scf accuracy    <       0.00002564 Ry

     iteration # 14     ecut=    50.00 Ry     beta=0.60
     Davidson diagonalization with overlap
     ethr =  5.13E-08,  avg # of iterations =  1.1

     total cpu time spent up to now is     4132.7 secs

     total energy              =    -469.16208993 Ry
     Harris-Foulkes estimate   =    -469.16209100 Ry
     estimated scf accuracy    <       0.00001118 Ry

     iteration # 15     ecut=    50.00 Ry     beta=0.60
     Davidson diagonalization with overlap
     ethr =  2.24E-08,  avg # of iterations =  2.9

     total cpu time spent up to now is     4161.5 secs

     total energy              =    -469.16209043 Ry
     Harris-Foulkes estimate   =    -469.16209065 Ry
     estimated scf accuracy    <       0.00000092 Ry

     iteration # 16     ecut=    50.00 Ry     beta=0.60
     Davidson diagonalization with overlap
     ethr =  1.84E-09,  avg # of iterations =  4.4

     total cpu time spent up to now is     4201.6 secs

     total energy              =    -469.16209031 Ry
     Harris-Foulkes estimate   =    -469.16209090 Ry
     estimated scf accuracy    <       0.00000242 Ry

     iteration # 17     ecut=    50.00 Ry     beta=0.60
     Davidson diagonalization with overlap
     ethr =  1.84E-09,  avg # of iterations =  4.2

     total cpu time spent up to now is     4239.5 secs

     total energy              =    -469.16209061 Ry
     Harris-Foulkes estimate   =    -469.16209084 Ry
     estimated scf accuracy    <       0.00000196 Ry

     iteration # 18     ecut=    50.00 Ry     beta=0.60
     Davidson diagonalization with overlap
     ethr =  1.84E-09,  avg # of iterations =  1.0

     total cpu time spent up to now is     4265.1 secs

     total energy              =    -469.16209067 Ry
     Harris-Foulkes estimate   =    -469.16209068 Ry
     estimated scf accuracy    <       0.00000022 Ry

     iteration # 19     ecut=    50.00 Ry     beta=0.60
     Davidson diagonalization with overlap
     ethr =  4.41E-10,  avg # of iterations =  3.9

     total cpu time spent up to now is     4299.5 secs

     total energy              =    -469.16209071 Ry
     Harris-Foulkes estimate   =    -469.16209071 Ry
     estimated scf accuracy    <          3.1E-09 Ry

     iteration # 20     ecut=    50.00 Ry     beta=0.60
     Davidson diagonalization with overlap
     ethr =  6.10E-12,  avg # of iterations =  4.2

     total cpu time spent up to now is     4335.5 secs

     total energy              =    -469.16209071 Ry
     Harris-Foulkes estimate   =    -469.16209071 Ry
     estimated scf accuracy    <          3.3E-09 Ry

     iteration # 21     ecut=    50.00 Ry     beta=0.60
     Davidson diagonalization with overlap
     ethr =  6.10E-12,  avg # of iterations =  3.8

     total cpu time spent up to now is     4368.0 secs

     total energy              =    -469.16209071 Ry
     Harris-Foulkes estimate   =    -469.16209071 Ry
     estimated scf accuracy    <          5.4E-09 Ry

     iteration # 22     ecut=    50.00 Ry     beta=0.60
     Davidson diagonalization with overlap
     ethr =  6.10E-12,  avg # of iterations =  1.0

     total cpu time spent up to now is     4393.5 secs

     total energy              =    -469.16209071 Ry
     Harris-Foulkes estimate   =    -469.16209071 Ry
     estimated scf accuracy    <          6.1E-09 Ry

     iteration # 23     ecut=    50.00 Ry     beta=0.60
     Davidson diagonalization with overlap
     ethr =  6.10E-12,  avg # of iterations =  1.0

     total cpu time spent up to now is     4419.1 secs

     total energy              =    -469.16209071 Ry
     Harris-Foulkes estimate   =    -469.16209071 Ry
     estimated scf accuracy    <          4.3E-09 Ry

     iteration # 24     ecut=    50.00 Ry     beta=0.60
     Davidson diagonalization with overlap
     ethr =  6.10E-12,  avg # of iterations =  3.1

     total cpu time spent up to now is     4449.4 secs

     total energy              =    -469.16209071 Ry
     Harris-Foulkes estimate   =    -469.16209071 Ry
     estimated scf accuracy    <          2.8E-10 Ry

     iteration # 25     ecut=    50.00 Ry     beta=0.60
     Davidson diagonalization with overlap
     ethr =  5.55E-13,  avg # of iterations =  3.2

     total cpu time spent up to now is     4479.8 secs

     total energy              =    -469.16209071 Ry
     Harris-Foulkes estimate   =    -469.16209071 Ry
     estimated scf accuracy    <          1.3E-10 Ry

     iteration # 26     ecut=    50.00 Ry     beta=0.60
     Davidson diagonalization with overlap
     ethr =  2.65E-13,  avg # of iterations =  2.7

     total cpu time spent up to now is     4508.3 secs

     End of self-consistent calculation

     Number of k-points >= 100: set verbosity='high' to print the bands.

     the Fermi energy is    15.5720 ev

!    total energy              =    -469.16209071 Ry
     Harris-Foulkes estimate   =    -469.16209071 Ry
     estimated scf accuracy    <          3.7E-12 Ry

     The total energy is the sum of the following terms:

     one-electron contribution =    -116.31707315 Ry
     hartree contribution      =      79.31818627 Ry
     xc contribution           =     -65.93942445 Ry
     ewald contribution        =    -366.22364184 Ry
     smearing contrib. (-TS)   =      -0.00013754 Ry

     convergence has been achieved in  26 iterations

     Forces acting on atoms (Ry/au):

     atom    1 type  2   force =     0.00000000   -0.00712435    0.00000000
     atom    2 type  2   force =     0.00000000    0.00712435    0.00000000
     atom    3 type  1   force =     0.00000000    0.00212863    0.00000000
     atom    4 type  1   force =     0.00000000   -0.00212863    0.00000000

     Total force =     0.010515     Total SCF correction =     0.000007


     entering subroutine stress ...

          total   stress  (Ry/bohr**3)                   (kbar)     P=   -7.06
  -0.00003376   0.00000000   0.00000000         -4.97      0.00      0.00
   0.00000000  -0.00007653   0.00000000          0.00    -11.26      0.00
   0.00000000   0.00000000  -0.00003376          0.00      0.00     -4.97


     number of scf cycles    =   4
     number of bfgs steps    =   3

     enthalpy old            =    -469.1582400729 Ry
     enthalpy new            =    -469.1620907139 Ry

     CASE: enthalpy_new < enthalpy_old

     new trust radius        =       0.0102012540 bohr
     new conv_thr            =            1.0E-10 Ry

     new unit-cell volume =    475.83524 a.u.^3 (    70.51151 Ang^3 )

CELL_PARAMETERS (alat=  1.88972599)
  -3.287021371   0.000000000   0.000000000
   0.000000000   0.000000000   3.287021371
   0.000000000   6.526119808   0.000000000

ATOMIC_POSITIONS (angstrom)
Ti      -1.643510686   1.600633834   1.643510686
Ti      -3.287021371   3.293956022   3.287021371
Nb      -1.643510686   4.916037162   1.643510686
Nb      -3.287021371   6.504672502   3.287021371


     NEW-OLD atomic charge density approx. for the potential
     extrapolated charge   49.76320, renormalised to   50.00000

     total cpu time spent up to now is     4528.4 secs

     per-process dynamical memory:   186.0 Mb

     Self-consistent Calculation

     iteration #  1     ecut=    50.00 Ry     beta=0.60
     Davidson diagonalization with overlap
     ethr =  1.00E-06,  avg # of iterations =  4.1

     total cpu time spent up to now is     4592.9 secs

     total energy              =    -469.15487760 Ry
     Harris-Foulkes estimate   =    -469.55591200 Ry
     estimated scf accuracy    <       0.00703415 Ry

     iteration #  2     ecut=    50.00 Ry     beta=0.60
     Davidson diagonalization with overlap
     ethr =  1.41E-05,  avg # of iterations =  4.7

     total cpu time spent up to now is     4650.8 secs

     total energy              =    -469.15126049 Ry
     Harris-Foulkes estimate   =    -469.17158476 Ry
     estimated scf accuracy    <       0.10841494 Ry

     iteration #  3     ecut=    50.00 Ry     beta=0.60
     Davidson diagonalization with overlap
     ethr =  1.41E-05,  avg # of iterations =  5.1

     total cpu time spent up to now is     4697.9 secs

     total energy              =    -469.15979806 Ry
     Harris-Foulkes estimate   =    -469.16762442 Ry
     estimated scf accuracy    <       0.06785231 Ry

     iteration #  4     ecut=    50.00 Ry     beta=0.60
     Davidson diagonalization with overlap
     ethr =  1.41E-05,  avg # of iterations =  5.0

     total cpu time spent up to now is     4735.8 secs

     total energy              =    -469.16239063 Ry
     Harris-Foulkes estimate   =    -469.16271457 Ry
     estimated scf accuracy    <       0.00208276 Ry

     iteration #  5     ecut=    50.00 Ry     beta=0.60
     Davidson diagonalization with overlap
     ethr =  4.17E-06,  avg # of iterations =  3.3

     total cpu time spent up to now is     4765.8 secs

     total energy              =    -469.16227196 Ry
     Harris-Foulkes estimate   =    -469.16245045 Ry
     estimated scf accuracy    <       0.00110418 Ry

     iteration #  6     ecut=    50.00 Ry     beta=0.60
     Davidson diagonalization with overlap
     ethr =  2.21E-06,  avg # of iterations =  2.1

     total cpu time spent up to now is     4793.3 secs

     total energy              =    -469.16218009 Ry
     Harris-Foulkes estimate   =    -469.16231251 Ry
     estimated scf accuracy    <       0.00043038 Ry

     iteration #  7     ecut=    50.00 Ry     beta=0.60
     Davidson diagonalization with overlap
     ethr =  8.61E-07,  avg # of iterations =  4.0

     total cpu time spent up to now is     4827.2 secs

     total energy              =    -469.16224601 Ry
     Harris-Foulkes estimate   =    -469.16224410 Ry
     estimated scf accuracy    <       0.00000712 Ry

     iteration #  8     ecut=    50.00 Ry     beta=0.60
     Davidson diagonalization with overlap
     ethr =  1.42E-08,  avg # of iterations =  4.7

     total cpu time spent up to now is     4871.1 secs

     total energy              =    -469.16225262 Ry
     Harris-Foulkes estimate   =    -469.16225222 Ry
     estimated scf accuracy    <       0.00001683 Ry

     iteration #  9     ecut=    50.00 Ry     beta=0.60
     Davidson diagonalization with overlap
     ethr =  1.42E-08,  avg # of iterations =  1.0

     total cpu time spent up to now is     4896.6 secs

     total energy              =    -469.16224270 Ry
     Harris-Foulkes estimate   =    -469.16225275 Ry
     estimated scf accuracy    <       0.00002163 Ry

     iteration # 10     ecut=    50.00 Ry     beta=0.60
     Davidson diagonalization with overlap
     ethr =  1.42E-08,  avg # of iterations =  3.1

     total cpu time spent up to now is     4937.7 secs

     total energy              =    -469.16224686 Ry
     Harris-Foulkes estimate   =    -469.16224695 Ry
     estimated scf accuracy    <       0.00000058 Ry

     iteration # 11     ecut=    50.00 Ry     beta=0.60
     Davidson diagonalization with overlap
     ethr =  1.17E-09,  avg # of iterations =  3.1

     total cpu time spent up to now is     4968.6 secs

     total energy              =    -469.16224688 Ry
     Harris-Foulkes estimate   =    -469.16224693 Ry
     estimated scf accuracy    <       0.00000074 Ry

     iteration # 12     ecut=    50.00 Ry     beta=0.60
     Davidson diagonalization with overlap
     ethr =  1.17E-09,  avg # of iterations =  1.4

     total cpu time spent up to now is     4994.8 secs

     total energy              =    -469.16224688 Ry
     Harris-Foulkes estimate   =    -469.16224690 Ry
     estimated scf accuracy    <       0.00000018 Ry

     iteration # 13     ecut=    50.00 Ry     beta=0.60
     Davidson diagonalization with overlap
     ethr =  3.62E-10,  avg # of iterations =  3.6

     total cpu time spent up to now is     5026.3 secs

     total energy              =    -469.16224690 Ry
     Harris-Foulkes estimate   =    -469.16224690 Ry
     estimated scf accuracy    <          8.9E-10 Ry

     iteration # 14     ecut=    50.00 Ry     beta=0.60
     Davidson diagonalization with overlap
     ethr =  1.77E-12,  avg # of iterations =  5.3

     total cpu time spent up to now is     5072.1 secs

     total energy              =    -469.16224690 Ry
     Harris-Foulkes estimate   =    -469.16224690 Ry
     estimated scf accuracy    <          2.1E-10 Ry

     iteration # 15     ecut=    50.00 Ry     beta=0.60
     Davidson diagonalization with overlap
     ethr =  4.18E-13,  avg # of iterations =  5.0

     total cpu time spent up to now is     5117.5 secs

     total energy              =    -469.16224690 Ry
     Harris-Foulkes estimate   =    -469.16224690 Ry
     estimated scf accuracy    <          8.5E-09 Ry

     iteration # 16     ecut=    50.00 Ry     beta=0.60
     Davidson diagonalization with overlap
     ethr =  4.18E-13,  avg # of iterations =  5.1

     total cpu time spent up to now is     5161.2 secs

     total energy              =    -469.16224690 Ry
     Harris-Foulkes estimate   =    -469.16224690 Ry
     estimated scf accuracy    <          9.4E-10 Ry

     iteration # 17     ecut=    50.00 Ry     beta=0.60
     Davidson diagonalization with overlap
     ethr =  4.18E-13,  avg # of iterations =  2.6

     total cpu time spent up to now is     5194.8 secs

     total energy              =    -469.16224690 Ry
     Harris-Foulkes estimate   =    -469.16224690 Ry
     estimated scf accuracy    <          1.7E-10 Ry

     iteration # 18     ecut=    50.00 Ry     beta=0.60
     Davidson diagonalization with overlap
     ethr =  3.43E-13,  avg # of iterations =  3.5

     total cpu time spent up to now is     5226.3 secs

     End of self-consistent calculation

     Number of k-points >= 100: set verbosity='high' to print the bands.

     the Fermi energy is    15.6621 ev

!    total energy              =    -469.16224690 Ry
     Harris-Foulkes estimate   =    -469.16224690 Ry
     estimated scf accuracy    <          2.7E-12 Ry

     The total energy is the sum of the following terms:

     one-electron contribution =    -115.53020639 Ry
     hartree contribution      =      79.10888032 Ry
     xc contribution           =     -65.95920181 Ry
     ewald contribution        =    -366.78156799 Ry
     smearing contrib. (-TS)   =      -0.00015103 Ry

     convergence has been achieved in  18 iterations

     Forces acting on atoms (Ry/au):

     atom    1 type  2   force =    -0.00000000   -0.00552291    0.00000000
     atom    2 type  2   force =     0.00000000    0.00552291    0.00000000
     atom    3 type  1   force =     0.00000000    0.00134152    0.00000000
     atom    4 type  1   force =     0.00000000   -0.00134152    0.00000000

     Total force =     0.008038     Total SCF correction =     0.000006


     entering subroutine stress ...

          total   stress  (Ry/bohr**3)                   (kbar)     P=    0.11
   0.00001246   0.00000000   0.00000000          1.83      0.00      0.00
   0.00000000  -0.00002258   0.00000000          0.00     -3.32      0.00
   0.00000000   0.00000000   0.00001246          0.00      0.00      1.83


     number of scf cycles    =   5
     number of bfgs steps    =   4

     enthalpy old            =    -469.1620907139 Ry
     enthalpy new            =    -469.1622469006 Ry

     CASE: enthalpy_new < enthalpy_old

     new trust radius        =       0.0101792711 bohr
     new conv_thr            =            1.0E-10 Ry

     new unit-cell volume =    474.93722 a.u.^3 (    70.37843 Ang^3 )

CELL_PARAMETERS (alat=  1.88972599)
  -3.286858949   0.000000000   0.000000000
   0.000000000   0.000000000   3.286858949
   0.000000000   6.514447069   0.000000000

ATOMIC_POSITIONS (angstrom)
Ti      -1.643429474   1.592393907   1.643429474
Ti      -3.286858949   3.293441395   3.286858949
Nb      -1.643429474   4.908654351   1.643429474
Nb      -3.286858949   6.491628021   3.286858949


     NEW-OLD atomic charge density approx. for the potential
     extrapolated charge   49.90925, renormalised to   50.00000

     total cpu time spent up to now is     5246.4 secs

     per-process dynamical memory:   186.0 Mb

     Self-consistent Calculation

     iteration #  1     ecut=    50.00 Ry     beta=0.60
     Davidson diagonalization with overlap
     ethr =  1.00E-06,  avg # of iterations =  4.2

     total cpu time spent up to now is     5311.8 secs

     total energy              =    -469.15857914 Ry
     Harris-Foulkes estimate   =    -469.31303553 Ry
     estimated scf accuracy    <       0.00478332 Ry

     iteration #  2     ecut=    50.00 Ry     beta=0.60
     Davidson diagonalization with overlap
     ethr =  9.57E-06,  avg # of iterations =  5.1

     total cpu time spent up to now is     5365.9 secs

     total energy              =    -469.14423514 Ry
     Harris-Foulkes estimate   =    -469.18011493 Ry
     estimated scf accuracy    <       0.30939103 Ry

     iteration #  3     ecut=    50.00 Ry     beta=0.60
     Davidson diagonalization with overlap
     ethr =  9.57E-06,  avg # of iterations =  5.2

     total cpu time spent up to now is     5416.4 secs

     total energy              =    -469.16223440 Ry
     Harris-Foulkes estimate   =    -469.16291795 Ry
     estimated scf accuracy    <       0.00332549 Ry

     iteration #  4     ecut=    50.00 Ry     beta=0.60
     Davidson diagonalization with overlap
     ethr =  6.65E-06,  avg # of iterations =  1.0

     total cpu time spent up to now is     5441.9 secs

     total energy              =    -469.16220925 Ry
     Harris-Foulkes estimate   =    -469.16235013 Ry
     estimated scf accuracy    <       0.00089901 Ry

     iteration #  5     ecut=    50.00 Ry     beta=0.60
     Davidson diagonalization with overlap
     ethr =  1.80E-06,  avg # of iterations =  3.9

     total cpu time spent up to now is     5476.6 secs

     total energy              =    -469.16235472 Ry
     Harris-Foulkes estimate   =    -469.16235601 Ry
     estimated scf accuracy    <       0.00003661 Ry

     iteration #  6     ecut=    50.00 Ry     beta=0.60
     Davidson diagonalization with overlap
     ethr =  7.32E-08,  avg # of iterations =  3.4

     total cpu time spent up to now is     5508.5 secs

     total energy              =    -469.16234179 Ry
     Harris-Foulkes estimate   =    -469.16235983 Ry
     estimated scf accuracy    <       0.00003600 Ry

     iteration #  7     ecut=    50.00 Ry     beta=0.60
     Davidson diagonalization with overlap
     ethr =  7.20E-08,  avg # of iterations =  3.0

     total cpu time spent up to now is     5541.3 secs

     total energy              =    -469.16234762 Ry
     Harris-Foulkes estimate   =    -469.16234869 Ry
     estimated scf accuracy    <       0.00001491 Ry

     iteration #  8     ecut=    50.00 Ry     beta=0.60
     Davidson diagonalization with overlap
     ethr =  2.98E-08,  avg # of iterations =  1.0

     total cpu time spent up to now is     5566.8 secs

     total energy              =    -469.16234749 Ry
     Harris-Foulkes estimate   =    -469.16234803 Ry
     estimated scf accuracy    <       0.00000717 Ry

     iteration #  9     ecut=    50.00 Ry     beta=0.60
     Davidson diagonalization with overlap
     ethr =  1.43E-08,  avg # of iterations =  1.2

     total cpu time spent up to now is     5592.6 secs

     total energy              =    -469.16234743 Ry
     Harris-Foulkes estimate   =    -469.16234768 Ry
     estimated scf accuracy    <       0.00000234 Ry

     iteration # 10     ecut=    50.00 Ry     beta=0.60
     Davidson diagonalization with overlap
     ethr =  4.67E-09,  avg # of iterations =  3.5

     total cpu time spent up to now is     5624.0 secs

     total energy              =    -469.16234764 Ry
     Harris-Foulkes estimate   =    -469.16234768 Ry
     estimated scf accuracy    <       0.00000009 Ry

     iteration # 11     ecut=    50.00 Ry     beta=0.60
     Davidson diagonalization with overlap
     ethr =  1.80E-10,  avg # of iterations =  4.8

     total cpu time spent up to now is     5667.2 secs

     total energy              =    -469.16234770 Ry
     Harris-Foulkes estimate   =    -469.16234770 Ry
     estimated scf accuracy    <       0.00000011 Ry

     iteration # 12     ecut=    50.00 Ry     beta=0.60
     Davidson diagonalization with overlap
     ethr =  1.80E-10,  avg # of iterations =  1.0

     total cpu time spent up to now is     5692.7 secs

     total energy              =    -469.16234769 Ry
     Harris-Foulkes estimate   =    -469.16234770 Ry
     estimated scf accuracy    <       0.00000005 Ry

     iteration # 13     ecut=    50.00 Ry     beta=0.60
     Davidson diagonalization with overlap
     ethr =  1.09E-10,  avg # of iterations =  2.6

     total cpu time spent up to now is     5721.6 secs

     total energy              =    -469.16234769 Ry
     Harris-Foulkes estimate   =    -469.16234770 Ry
     estimated scf accuracy    <          2.6E-09 Ry

     iteration # 14     ecut=    50.00 Ry     beta=0.60
     Davidson diagonalization with overlap
     ethr =  5.24E-12,  avg # of iterations =  3.5

     total cpu time spent up to now is     5754.5 secs

     total energy              =    -469.16234770 Ry
     Harris-Foulkes estimate   =    -469.16234770 Ry
     estimated scf accuracy    <          7.6E-10 Ry

     iteration # 15     ecut=    50.00 Ry     beta=0.60
     Davidson diagonalization with overlap
     ethr =  1.51E-12,  avg # of iterations =  2.7

     total cpu time spent up to now is     5782.8 secs

     End of self-consistent calculation

     Number of k-points >= 100: set verbosity='high' to print the bands.

     the Fermi energy is    15.6974 ev

!    total energy              =    -469.16234770 Ry
     Harris-Foulkes estimate   =    -469.16234770 Ry
     estimated scf accuracy    <          7.2E-11 Ry

     The total energy is the sum of the following terms:

     one-electron contribution =    -115.33113600 Ry
     hartree contribution      =      79.07989788 Ry
     xc contribution           =     -65.96799808 Ry
     ewald contribution        =    -366.94294573 Ry
     smearing contrib. (-TS)   =      -0.00016576 Ry

     convergence has been achieved in  15 iterations

     Forces acting on atoms (Ry/au):

     atom    1 type  2   force =     0.00000000   -0.00334311    0.00000000
     atom    2 type  2   force =    -0.00000000    0.00334311    0.00000000
     atom    3 type  1   force =     0.00000000    0.00076716    0.00000000
     atom    4 type  1   force =     0.00000000   -0.00076716    0.00000000

     Total force =     0.004851     Total SCF correction =     0.000008


     entering subroutine stress ...

          total   stress  (Ry/bohr**3)                   (kbar)     P=    3.37
   0.00003010   0.00000000   0.00000000          4.43      0.00      0.00
   0.00000000   0.00000846   0.00000000          0.00      1.24      0.00
   0.00000000   0.00000000   0.00003010          0.00      0.00      4.43


     number of scf cycles    =   6
     number of bfgs steps    =   5

     enthalpy old            =    -469.1622469006 Ry
     enthalpy new            =    -469.1623476951 Ry

     CASE: enthalpy_new < enthalpy_old

     new trust radius        =       0.0131164010 bohr
     new conv_thr            =            1.0E-10 Ry

     new unit-cell volume =    475.27324 a.u.^3 (    70.42823 Ang^3 )

CELL_PARAMETERS (alat=  1.88972599)
  -3.290101597   0.000000000   0.000000000
   0.000000000   0.000000000   3.290101597
   0.000000000   6.506212343   0.000000000

ATOMIC_POSITIONS (angstrom)
Ti      -1.645050799   1.583448881   1.645050799
Ti      -3.290101597   3.296210377   3.290101597
Nb      -1.645050799   4.904207689   1.645050799
Nb      -3.290101597   6.481663912   3.290101597


     NEW-OLD atomic charge density approx. for the potential
     extrapolated charge   50.03393, renormalised to   50.00000

     total cpu time spent up to now is     5803.0 secs

     per-process dynamical memory:   186.0 Mb

     Self-consistent Calculation

     iteration #  1     ecut=    50.00 Ry     beta=0.60
     Davidson diagonalization with overlap
     ethr =  1.00E-06,  avg # of iterations =  4.8

     total cpu time spent up to now is     5869.8 secs

     total energy              =    -469.15803060 Ry
     Harris-Foulkes estimate   =    -469.10643304 Ry
     estimated scf accuracy    <       0.00582026 Ry

     iteration #  2     ecut=    50.00 Ry     beta=0.60
     Davidson diagonalization with overlap
     ethr =  1.16E-05,  avg # of iterations =  5.2

     total cpu time spent up to now is     5923.9 secs

     total energy              =    -469.13564224 Ry
     Harris-Foulkes estimate   =    -469.19073834 Ry
     estimated scf accuracy    <       0.51686081 Ry

     iteration #  3     ecut=    50.00 Ry     beta=0.60
     Davidson diagonalization with overlap
     ethr =  1.16E-05,  avg # of iterations =  5.2

     total cpu time spent up to now is     5975.3 secs

     total energy              =    -469.16240381 Ry
     Harris-Foulkes estimate   =    -469.16243012 Ry
     estimated scf accuracy    <       0.00005992 Ry

     iteration #  4     ecut=    50.00 Ry     beta=0.60
     Davidson diagonalization with overlap
     ethr =  1.20E-07,  avg # of iterations =  3.2

     total cpu time spent up to now is     6011.5 secs

     total energy              =    -469.16242135 Ry
     Harris-Foulkes estimate   =    -469.16242307 Ry
     estimated scf accuracy    <       0.00000788 Ry

[...]
     ewald contribution        =    -366.36467016 Ry
     smearing contrib. (-TS)   =      -0.00018626 Ry

     convergence has been achieved in  15 iterations

     Forces acting on atoms (Ry/au):

     atom    1 type  2   force =     0.00000000    0.00000287    0.00000000
     atom    2 type  2   force =     0.00000000   -0.00000287    0.00000000
     atom    3 type  1   force =     0.00000000   -0.00000322    0.00000000
     atom    4 type  1   force =     0.00000000    0.00000322    0.00000000

     Total force =     0.000006     Total SCF correction =     0.000002
     SCF correction compared to forces is large: reduce conv_thr to get better values


     entering subroutine stress ...

          total   stress  (Ry/bohr**3)                   (kbar)     P=    0.00
   0.00000001   0.00000000   0.00000000          0.00      0.00      0.00
   0.00000000   0.00000007   0.00000000          0.00      0.01      0.00
   0.00000000   0.00000000   0.00000001          0.00      0.00      0.00


     bfgs converged in  18 scf cycles and  17 bfgs steps
     (criteria: energy <  1.0E-10, force <  1.0E-05, cell <  1.0E-03)

     End of BFGS Geometry Optimization

     Final enthalpy =    -469.1624425226 Ry
Begin final coordinates
     new unit-cell volume =    476.60083 a.u.^3 (    70.62496 Ang^3 )

CELL_PARAMETERS (alat=  1.88972599)
  -3.293261762   0.000000000   0.000000000
   0.000000000   0.000000000   3.293261762
   0.000000000   6.511870974   0.000000000

ATOMIC_POSITIONS (angstrom)
Ti      -1.646630881   1.581788360   1.646630881
Ti      -3.293261762   3.302114870   3.293261762
Nb      -1.646630881   4.910158788   1.646630881
Nb      -3.293261762   6.485615416   3.293261762
End final coordinates



     A final scf calculation at the relaxed structure.
     The G-vectors are recalculated for the final unit cell
     Results may differ from those at the preceding step.

   Info: using nr1, nr2, nr3 values from input

   Info: using nr1, nr2, nr3 values from input

     Parallelization info
     --------------------
     sticks:   dense  smooth     PW     G-vecs:    dense   smooth      PW
     Min         386     152     46                22499     5672     962
     Max         388     154     47                22502     5674     966
     Sum        1549     613    185                90003    22691    3855



     bravais-lattice index     =            0
     lattice parameter (alat)  =       1.8897  a.u.
     unit-cell volume          =     476.6008 (a.u.)^3
     number of atoms/cell      =            4
     number of atomic types    =            2
     number of electrons       =        50.00
     number of Kohn-Sham states=           30
     kinetic-energy cutoff     =      50.0000  Ry
     charge density cutoff     =     500.0000  Ry
     convergence threshold     =      1.0E-12
     mixing beta               =       0.6000
     number of iterations used =            8  plain     mixing
     Exchange-correlation      = SLA  PW   PBE  PBE ( 1  4  3  4 0 0)

     celldm(1)=   1.889726  celldm(2)=   0.000000  celldm(3)=   0.000000
     celldm(4)=   0.000000  celldm(5)=   0.000000  celldm(6)=   0.000000

     crystal axes: (cart. coord. in units of alat)
               a(1) = (  -3.293262   0.000000   0.000000 )  
               a(2) = (   0.000000   0.000000   3.293262 )  
               a(3) = (   0.000000   6.511871   0.000000 )  

     reciprocal axes: (cart. coord. in units 2 pi/alat)
               b(1) = ( -0.303650  0.000000  0.000000 )  
               b(2) = (  0.000000 -0.000000  0.303650 )  
               b(3) = (  0.000000  0.153566 -0.000000 )  


     PseudoPot. # 1 for Nb read from file:
     ./Nb.pbe-nsp-van.UPF
     MD5 check sum: 0a22fc7fb0ba19a08ca5db297a5d2854
     Pseudo is Ultrasoft + core correction, Zval = 13.0
     Generated by new atomic code, or converted to UPF format
     Using radial grid of  887 points,  6 beta functions with: 
                l(1) =   0
                l(2) =   0
                l(3) =   1
                l(4) =   1
                l(5) =   2
                l(6) =   2
     Q(r) pseudized with  6 coefficients,  rinner =    1.000   1.000   1.000
                                                       1.000   1.000

     PseudoPot. # 2 for Ti read from file:
     ./Ti.pbe-sp-van_ak.UPF
     MD5 check sum: f98fea3e8887528921fefa5636a534ca
     Pseudo is Ultrasoft, Zval = 12.0
     Generated by new atomic code, or converted to UPF format
     Using radial grid of  851 points,  6 beta functions with: 
                l(1) =   0
                l(2) =   0
                l(3) =   1
                l(4) =   1
                l(5) =   2
                l(6) =   2
     Q(r) pseudized with  8 coefficients,  rinner =    1.000   1.000   1.000
                                                       1.000   1.000

     atomic species   valence    mass     pseudopotential
        Nb            13.00    92.90638     Nb( 1.00)
        Ti            12.00    47.86700     Ti( 1.00)

     16 Sym. Ops., with inversion, found ( 8 have fractional translation)



   Cartesian axes

     site n.     atom                  positions (alat units)
         1           Ti  tau(   1) = (  -1.6466310   1.5817885   1.6466310  )
         2           Ti  tau(   2) = (  -3.2932620   3.3021151   3.2932620  )
         3           Nb  tau(   3) = (  -1.6466310   4.9101592   1.6466310  )
         4           Nb  tau(   4) = (  -3.2932620   6.4856159   3.2932620  )

     number of k points=   225  Marzari-Vanderbilt smearing, width (Ry)=  0.0200

     Number of k-points >= 100: set verbosity='high' to print them.

     Dense  grid:    90003 G-vectors     FFT dimensions: (  48,  48,  96)

     Smooth grid:    22691 G-vectors     FFT dimensions: (  30,  30,  60)

     Estimated max dynamical RAM per process >      90.44Mb

     Estimated total allocated dynamical RAM >     361.75Mb

     Initial potential from superposition of free atoms

     starting charge   47.99445, renormalised to   50.00000
     Starting wfc are   46 randomized atomic wfcs

     total cpu time spent up to now is    11562.7 secs

     per-process dynamical memory:   156.0 Mb

     Self-consistent Calculation

     iteration #  1     ecut=    50.00 Ry     beta=0.60
     Davidson diagonalization with overlap
     c_bands:  1 eigenvalues not converged
     ethr =  1.00E-06,  avg # of iterations = 12.5

     total cpu time spent up to now is    11663.7 secs

     total energy              =    -444.85972088 Ry
     Harris-Foulkes estimate   =    -472.61387469 Ry
     estimated scf accuracy    <      34.34588184 Ry

     iteration #  2     ecut=    50.00 Ry     beta=0.60
     Davidson diagonalization with overlap
     ethr =  1.00E-02,  avg # of iterations =  8.4

     total cpu time spent up to now is    11735.7 secs

     total energy              =    -436.55564883 Ry
     Harris-Foulkes estimate   =    -520.32183263 Ry
     estimated scf accuracy    <     317.75080076 Ry

     iteration #  3     ecut=    50.00 Ry     beta=0.60
     Davidson diagonalization with overlap
     ethr =  1.00E-02,  avg # of iterations =  4.6

     total cpu time spent up to now is    11788.8 secs

     total energy              =    -469.02019801 Ry
     Harris-Foulkes estimate   =    -471.17178994 Ry
     estimated scf accuracy    <      16.96647438 Ry

     iteration #  4     ecut=    50.00 Ry     beta=0.60
     Davidson diagonalization with overlap
     ethr =  1.00E-02,  avg # of iterations =  2.7

     total cpu time spent up to now is    11815.8 secs

     total energy              =    -469.42153537 Ry
     Harris-Foulkes estimate   =    -469.46413439 Ry
     estimated scf accuracy    <       5.03213864 Ry

     iteration #  5     ecut=    50.00 Ry     beta=0.60
     Davidson diagonalization with overlap
     ethr =  1.00E-02,  avg # of iterations =  1.0

     total cpu time spent up to now is    11841.0 secs

     total energy              =    -469.01287493 Ry
     Harris-Foulkes estimate   =    -469.45079242 Ry
     estimated scf accuracy    <       4.64764729 Ry

     iteration #  6     ecut=    50.00 Ry     beta=0.60
     Davidson diagonalization with overlap
     ethr =  9.30E-03,  avg # of iterations =  1.1

     total cpu time spent up to now is    11865.0 secs

     total energy              =    -468.85809733 Ry
     Harris-Foulkes estimate   =    -469.11050387 Ry
     estimated scf accuracy    <       1.66159566 Ry

     iteration #  7     ecut=    50.00 Ry     beta=0.60
     Davidson diagonalization with overlap
     ethr =  3.32E-03,  avg # of iterations =  4.6

     total cpu time spent up to now is    11901.1 secs

     total energy              =    -469.23388109 Ry
     Harris-Foulkes estimate   =    -469.23745048 Ry
     estimated scf accuracy    <       1.34874077 Ry

     iteration #  8     ecut=    50.00 Ry     beta=0.60
     Davidson diagonalization with overlap
     ethr =  2.70E-03,  avg # of iterations =  1.0

     total cpu time spent up to now is    11924.8 secs

     total energy              =    -469.24811472 Ry
     Harris-Foulkes estimate   =    -469.23727968 Ry
     estimated scf accuracy    <       1.31666200 Ry

     iteration #  9     ecut=    50.00 Ry     beta=0.60
     Davidson diagonalization with overlap
     ethr =  2.63E-03,  avg # of iterations =  1.0

     total cpu time spent up to now is    11948.7 secs

     total energy              =    -469.16765483 Ry
     Harris-Foulkes estimate   =    -469.24914949 Ry
     estimated scf accuracy    <       1.47520180 Ry

     iteration # 10     ecut=    50.00 Ry     beta=0.60
     Davidson diagonalization with overlap
     ethr =  2.63E-03,  avg # of iterations =  1.0

     total cpu time spent up to now is    11972.3 secs

     total energy              =    -469.10624318 Ry
     Harris-Foulkes estimate   =    -469.18238086 Ry
     estimated scf accuracy    <       0.56056986 Ry

     iteration # 11     ecut=    50.00 Ry     beta=0.60
     Davidson diagonalization with overlap
     ethr =  1.12E-03,  avg # of iterations =  2.7

     total cpu time spent up to now is    11999.9 secs

     total energy              =    -469.15976072 Ry
     Harris-Foulkes estimate   =    -469.16577785 Ry
     estimated scf accuracy    <       0.07841633 Ry

     iteration # 12     ecut=    50.00 Ry     beta=0.60
     Davidson diagonalization with overlap
     ethr =  1.57E-04,  avg # of iterations =  2.6

     total cpu time spent up to now is    12027.3 secs

     total energy              =    -469.16236249 Ry
     Harris-Foulkes estimate   =    -469.16294024 Ry
     estimated scf accuracy    <       0.02168556 Ry

     iteration # 13     ecut=    50.00 Ry     beta=0.60
     Davidson diagonalization with overlap
     ethr =  4.34E-05,  avg # of iterations =  2.5

     total cpu time spent up to now is    12053.0 secs

     total energy              =    -469.16340335 Ry
     Harris-Foulkes estimate   =    -469.16274866 Ry
     estimated scf accuracy    <       0.01411464 Ry

     iteration # 14     ecut=    50.00 Ry     beta=0.60
     Davidson diagonalization with overlap
     ethr =  2.82E-05,  avg # of iterations =  2.5

     total cpu time spent up to now is    12078.8 secs

     total energy              =    -469.16001334 Ry
     Harris-Foulkes estimate   =    -469.16425230 Ry
     estimated scf accuracy    <       0.03993790 Ry

     iteration # 15     ecut=    50.00 Ry     beta=0.60
     Davidson diagonalization with overlap
     ethr =  2.82E-05,  avg # of iterations =  3.0

     total cpu time spent up to now is    12106.2 secs

     total energy              =    -469.16166919 Ry
     Harris-Foulkes estimate   =    -469.16191037 Ry
     estimated scf accuracy    <       0.00113308 Ry

     iteration # 16     ecut=    50.00 Ry     beta=0.60
     Davidson diagonalization with overlap
     ethr =  2.27E-06,  avg # of iterations =  6.1

     total cpu time spent up to now is    12147.3 secs

     total energy              =    -469.16207212 Ry
     Harris-Foulkes estimate   =    -469.16210217 Ry
     estimated scf accuracy    <       0.00142716 Ry

     iteration # 17     ecut=    50.00 Ry     beta=0.60
     Davidson diagonalization with overlap
     ethr =  2.27E-06,  avg # of iterations =  1.0

     total cpu time spent up to now is    12171.2 secs

     total energy              =    -469.16194641 Ry
     Harris-Foulkes estimate   =    -469.16208417 Ry
     estimated scf accuracy    <       0.00125158 Ry

     iteration # 18     ecut=    50.00 Ry     beta=0.60
     Davidson diagonalization with overlap
     ethr =  2.27E-06,  avg # of iterations =  1.0

     total cpu time spent up to now is    12195.7 secs

     total energy              =    -469.16197373 Ry
     Harris-Foulkes estimate   =    -469.16198825 Ry
     estimated scf accuracy    <       0.00017021 Ry

     iteration # 19     ecut=    50.00 Ry     beta=0.60
     Davidson diagonalization with overlap
     ethr =  3.40E-07,  avg # of iterations =  4.0

     total cpu time spent up to now is    12226.9 secs

     total energy              =    -469.16199683 Ry
     Harris-Foulkes estimate   =    -469.16199880 Ry
     estimated scf accuracy    <       0.00000944 Ry

     iteration # 20     ecut=    50.00 Ry     beta=0.60
     Davidson diagonalization with overlap
     ethr =  1.89E-08,  avg # of iterations =  3.9

     total cpu time spent up to now is    12258.3 secs

     total energy              =    -469.16199872 Ry
     Harris-Foulkes estimate   =    -469.16199887 Ry
     estimated scf accuracy    <       0.00000182 Ry

     iteration # 21     ecut=    50.00 Ry     beta=0.60
     Davidson diagonalization with overlap
     ethr =  3.65E-09,  avg # of iterations =  2.3

     total cpu time spent up to now is    12284.4 secs

     total energy              =    -469.16199878 Ry
     Harris-Foulkes estimate   =    -469.16199885 Ry
     estimated scf accuracy    <       0.00000055 Ry

     iteration # 22     ecut=    50.00 Ry     beta=0.60
     Davidson diagonalization with overlap
     ethr =  1.10E-09,  avg # of iterations =  2.4

     total cpu time spent up to now is    12310.6 secs

     total energy              =    -469.16199880 Ry
     Harris-Foulkes estimate   =    -469.16199882 Ry
     estimated scf accuracy    <       0.00000015 Ry

     iteration # 23     ecut=    50.00 Ry     beta=0.60
     Davidson diagonalization with overlap
     ethr =  3.00E-10,  avg # of iterations =  3.6

     total cpu time spent up to now is    12340.2 secs

     total energy              =    -469.16199882 Ry
     Harris-Foulkes estimate   =    -469.16199882 Ry
     estimated scf accuracy    <          4.3E-10 Ry

     iteration # 24     ecut=    50.00 Ry     beta=0.60
     Davidson diagonalization with overlap
     ethr =  8.58E-13,  avg # of iterations =  5.3

     total cpu time spent up to now is    12393.7 secs

     total energy              =    -469.16199882 Ry
     Harris-Foulkes estimate   =    -469.16199882 Ry
     estimated scf accuracy    <          5.9E-10 Ry

     iteration # 25     ecut=    50.00 Ry     beta=0.60
     Davidson diagonalization with overlap
     ethr =  8.58E-13,  avg # of iterations =  1.1

     total cpu time spent up to now is    12417.6 secs

     total energy              =    -469.16199882 Ry
     Harris-Foulkes estimate   =    -469.16199882 Ry
     estimated scf accuracy    <          9.1E-11 Ry

     iteration # 26     ecut=    50.00 Ry     beta=0.60
     Davidson diagonalization with overlap
     ethr =  1.82E-13,  avg # of iterations =  3.9

     total cpu time spent up to now is    12449.0 secs

     total energy              =    -469.16199882 Ry
     Harris-Foulkes estimate   =    -469.16199882 Ry
     estimated scf accuracy    <          1.8E-12 Ry

     iteration # 27     ecut=    50.00 Ry     beta=0.60
     Davidson diagonalization with overlap
     ethr =  1.00E-13,  avg # of iterations =  1.0

     total cpu time spent up to now is    12472.6 secs

     End of self-consistent calculation

     Number of k-points >= 100: set verbosity='high' to print the bands.

     the Fermi energy is    15.6353 ev

!    total energy              =    -469.16199882 Ry
     Harris-Foulkes estimate   =    -469.16199882 Ry
     estimated scf accuracy    <          4.3E-13 Ry

     The total energy is the sum of the following terms:

     one-electron contribution =    -116.24409196 Ry
     hartree contribution      =      79.40515207 Ry
     xc contribution           =     -65.95820257 Ry
     ewald contribution        =    -366.36467016 Ry
     smearing contrib. (-TS)   =      -0.00018619 Ry

     convergence has been achieved in  27 iterations

     Forces acting on atoms (Ry/au):

     atom    1 type  2   force =     0.00000000   -0.00000033    0.00000000
     atom    2 type  2   force =     0.00000000    0.00000033    0.00000000
     atom    3 type  1   force =     0.00000000    0.00002112    0.00000000
     atom    4 type  1   force =     0.00000000   -0.00002112    0.00000000

     Total force =     0.000030     Total SCF correction =     0.000002


     entering subroutine stress ...

          total   stress  (Ry/bohr**3)                   (kbar)     P=   -0.86
  -0.00000598   0.00000000   0.00000000         -0.88      0.00      0.00
   0.00000000  -0.00000559   0.00000000          0.00     -0.82      0.00
   0.00000000   0.00000000  -0.00000598          0.00      0.00     -0.88


     init_run     :     32.28s CPU     33.78s WALL (       2 calls)
     electrons    :  11715.19s CPU  12077.92s WALL (      19 calls)
     update_pot   :     47.72s CPU     48.09s WALL (      17 calls)
     forces       :    110.07s CPU    113.68s WALL (      19 calls)
     stress       :    195.89s CPU    203.91s WALL (      19 calls)

     Called by init_run:
     wfcinit      :     28.88s CPU     30.18s WALL (       2 calls)
     potinit      :      1.00s CPU      1.03s WALL (       2 calls)

     Called by electrons:
     c_bands      :  10146.97s CPU  10419.79s WALL (     347 calls)
     sum_band     :   1452.61s CPU   1521.56s WALL (     347 calls)
     v_of_rho     :     22.32s CPU     23.30s WALL (     357 calls)
     newd         :     93.59s CPU    114.50s WALL (     357 calls)
     mix_rho      :      3.42s CPU      3.58s WALL (     347 calls)

     Called by c_bands:
     init_us_2    :    145.51s CPU    150.61s WALL (  165150 calls)
     cegterg      :   9787.11s CPU  10048.49s WALL (   78075 calls)

     Called by sum_band:
     sum_band:bec :      6.29s CPU      6.44s WALL (   78075 calls)
     addusdens    :    126.86s CPU    150.98s WALL (     347 calls)

     Called by *egterg:
     h_psi        :   5965.70s CPU   6160.44s WALL (  320087 calls)
     s_psi        :    693.34s CPU    705.76s WALL (  320087 calls)
     g_psi        :     24.06s CPU     24.31s WALL (  241562 calls)
     cdiaghg      :    747.88s CPU    757.09s WALL (  313787 calls)

     Called by h_psi:
     h_psi:pot    :   5899.16s CPU   6091.61s WALL (  320087 calls)
     h_psi:calbec :    829.96s CPU    859.92s WALL (  320087 calls)
     vloc_psi     :   4449.19s CPU   4602.69s WALL (  320087 calls)
     add_vuspsi   :    617.77s CPU    627.34s WALL (  320087 calls)

     General routines
     calbec       :   1190.30s CPU   1231.68s WALL (  419537 calls)
     fft          :     19.63s CPU     20.46s WALL (    6164 calls)
     ffts         :      0.36s CPU      0.38s WALL (     704 calls)
     fftw         :   4769.94s CPU   4934.77s WALL (14437048 calls)
     interpolate  :      2.31s CPU      2.45s WALL (     704 calls)

     Parallel routines
     fft_scatter  :    664.55s CPU    691.19s WALL (14443916 calls)

     PWSCF        :     3h21m CPU        3h28m WALL


   This run was terminated on:  19:44: 4   1May2018            

=------------------------------------------------------------------------------=
   JOB DONE.
=------------------------------------------------------------------------------=
