
     Program PWSCF v.6.3MaX starts on 26Jan2020 at 21: 8:52 

     This program is part of the open-source Quantum ESPRESSO suite
     for quantum simulation of materials; please cite
         "P. Giannozzi et al., J. Phys.:Condens. Matter 21 395502 (2009);
         "P. Giannozzi et al., J. Phys.:Condens. Matter 29 465901 (2017);
          URL http://www.quantum-espresso.org", 
     in publications or presentations arising from this work. More details at
     http://www.quantum-espresso.org/quote

     Parallel version (MPI), running on     4 processors

     MPI processes distributed on     1 nodes
     R & G space division:  proc/nbgrp/npool/nimage =       4
     Waiting for input...
     Reading input from standard input

     Current dimensions of program PWSCF are:
     Max number of different atomic species (ntypx) = 10
     Max number of k-points (npk) =  40000
     Max angular momentum in pseudopotentials (lmaxx) =  3
     Message from routine iosys:
     minimal I/O required, wf_collect reset to FALSE

     Subspace diagonalization in iterative solution of the eigenvalue problem:
     a serial algorithm will be used

 
     Parallelization info
     --------------------
     sticks:   dense  smooth     PW     G-vecs:    dense   smooth      PW
     Min         780     312     95                27301     6894    1169
     Max         781     313     96                27302     6895    1170
     Sum        3121    1251    383               109205    27577    4677
 


     bravais-lattice index     =            0
     lattice parameter (alat)  =       1.8897  a.u.
     unit-cell volume          =     808.3427 (a.u.)^3
     number of atoms/cell      =            6
     number of atomic types    =            2
     number of electrons       =        74.00
     number of Kohn-Sham states=           44
     kinetic-energy cutoff     =      40.0000  Ry
     charge density cutoff     =     400.0000  Ry
     convergence threshold     =      1.0E-10
     mixing beta               =       0.6000
     number of iterations used =            8  plain     mixing
     Exchange-correlation      = SLA PW PBE PBE ( 1  4  3  4 0 0)
     nstep                     =           50


     celldm(1)=   1.889726  celldm(2)=   0.000000  celldm(3)=   0.000000
     celldm(4)=   0.000000  celldm(5)=   0.000000  celldm(6)=   0.000000

     crystal axes: (cart. coord. in units of alat)
               a(1) = (   3.045004   0.000000   4.972461 )  
               a(2) = (  -1.522502   2.637051   4.972461 )  
               a(3) = (  -1.522502  -2.637051   4.972461 )  

     reciprocal axes: (cart. coord. in units 2 pi/alat)
               b(1) = (  0.218938  0.000000  0.067036 )  
               b(2) = ( -0.109469  0.189606  0.067036 )  
               b(3) = ( -0.109469 -0.189606  0.067036 )  


     PseudoPot. # 1 for Nb read from file:
     ./Nb.pbe-nsp-van.UPF
     MD5 check sum: 0a22fc7fb0ba19a08ca5db297a5d2854
     Pseudo is Ultrasoft + core correction, Zval = 13.0
     Generated by new atomic code, or converted to UPF format
     Using radial grid of  887 points,  6 beta functions with: 
                l(1) =   0
                l(2) =   0
                l(3) =   1
                l(4) =   1
                l(5) =   2
                l(6) =   2
     Q(r) pseudized with  6 coefficients,  rinner =    1.000   1.000   1.000
                                                       1.000   1.000

     PseudoPot. # 2 for Ti read from file:
     ./Ti.pbe-sp-van_ak.UPF
     MD5 check sum: f98fea3e8887528921fefa5636a534ca
     Pseudo is Ultrasoft, Zval = 12.0
     Generated by new atomic code, or converted to UPF format
     Using radial grid of  851 points,  6 beta functions with: 
                l(1) =   0
                l(2) =   0
                l(3) =   1
                l(4) =   1
                l(5) =   2
                l(6) =   2
     Q(r) pseudized with  8 coefficients,  rinner =    1.000   1.000   1.000
                                                       1.000   1.000

     atomic species   valence    mass     pseudopotential
        Nb            13.00    92.90638     Nb( 1.00)
        Ti            12.00    47.86700     Ti( 1.00)

      6 Sym. Ops. (no inversion) found ( 4 have fractional translation)



   Cartesian axes

     site n.     atom                  positions (alat units)
         1           Ti  tau(   1) = (   0.0000000   0.0000000   9.9449228  )
         2           Ti  tau(   2) = (   0.0000015  -1.7580350   7.4586921  )
         3           Ti  tau(   3) = (   0.0000000   0.0000000  14.9173841  )
         4           Nb  tau(   4) = (   1.5225036   0.8790162   7.4586921  )
         5           Ti  tau(   5) = (   0.0000000   0.0000000   4.9724614  )
         6           Nb  tau(   6) = (  -1.5225006   0.8790162   7.4586921  )

     number of k points=   189  Marzari-Vanderbilt smearing, width (Ry)=  0.0200

     Number of k-points >= 100: set verbosity='high' to print them.

     Dense  grid:   109205 G-vectors     FFT dimensions: (  72,  72,  72)

     Smooth grid:    27577 G-vectors     FFT dimensions: (  45,  45,  45)

     Estimated max dynamical RAM per process >     216.27 MB

     Estimated total dynamical RAM >     865.08 MB

     Initial potential from superposition of free atoms

     starting charge   69.99436, renormalised to   74.00000
     Starting wfcs are   66 randomized atomic wfcs

     total cpu time spent up to now is      110.1 secs

     Self-consistent Calculation

     iteration #  1     ecut=    40.00 Ry     beta= 0.60
     Davidson diagonalization with overlap
     ethr =  1.00E-02,  avg # of iterations =  3.4

     total cpu time spent up to now is      181.4 secs

     total energy              =    -694.51279096 Ry
     Harris-Foulkes estimate   =    -704.65116834 Ry
     estimated scf accuracy    <      12.94174124 Ry

     iteration #  2     ecut=    40.00 Ry     beta= 0.60
     Davidson diagonalization with overlap
     ethr =  1.00E-02,  avg # of iterations =  5.5

     total cpu time spent up to now is      312.3 secs

     total energy              =    -698.16965321 Ry
     Harris-Foulkes estimate   =    -719.11494528 Ry
     estimated scf accuracy    <      67.05629812 Ry

     iteration #  3     ecut=    40.00 Ry     beta= 0.60
     Davidson diagonalization with overlap
     ethr =  1.00E-02,  avg # of iterations =  4.0

     total cpu time spent up to now is      477.9 secs

     total energy              =    -702.52232606 Ry
     Harris-Foulkes estimate   =    -704.54629206 Ry
     estimated scf accuracy    <      31.77427439 Ry

     iteration #  4     ecut=    40.00 Ry     beta= 0.60
     Davidson diagonalization with overlap
     ethr =  1.00E-02,  avg # of iterations =  1.3

     total cpu time spent up to now is      532.9 secs

     total energy              =    -703.38683465 Ry
     Harris-Foulkes estimate   =    -702.94443418 Ry
     estimated scf accuracy    <      12.42615682 Ry

     iteration #  5     ecut=    40.00 Ry     beta= 0.60
     Davidson diagonalization with overlap
     ethr =  1.00E-02,  avg # of iterations =  1.0

     total cpu time spent up to now is      571.7 secs

     total energy              =    -700.16435134 Ry
     Harris-Foulkes estimate   =    -703.43221975 Ry
     estimated scf accuracy    <      13.29470497 Ry

     iteration #  6     ecut=    40.00 Ry     beta= 0.60
     Davidson diagonalization with overlap
     ethr =  1.00E-02,  avg # of iterations =  5.9

     total cpu time spent up to now is      616.6 secs

     total energy              =    -700.97186189 Ry
     Harris-Foulkes estimate   =    -703.96727348 Ry
     estimated scf accuracy    <      24.13712368 Ry

     iteration #  7     ecut=    40.00 Ry     beta= 0.60
     Davidson diagonalization with overlap
     ethr =  1.00E-02,  avg # of iterations =  3.7

     total cpu time spent up to now is      654.3 secs

     total energy              =    -702.21981146 Ry
     Harris-Foulkes estimate   =    -702.22597717 Ry
     estimated scf accuracy    <       0.98573633 Ry

     iteration #  8     ecut=    40.00 Ry     beta= 0.60
     Davidson diagonalization with overlap
     ethr =  1.33E-03,  avg # of iterations =  6.2

     total cpu time spent up to now is      697.3 secs

     total energy              =    -702.44003797 Ry
     Harris-Foulkes estimate   =    -702.40434382 Ry
     estimated scf accuracy    <       0.14446400 Ry

     iteration #  9     ecut=    40.00 Ry     beta= 0.60
     Davidson diagonalization with overlap
     ethr =  1.95E-04,  avg # of iterations =  6.1

     total cpu time spent up to now is      739.5 secs

     total energy              =    -702.49151434 Ry
     Harris-Foulkes estimate   =    -702.51971275 Ry
     estimated scf accuracy    <       2.14973634 Ry

     iteration # 10     ecut=    40.00 Ry     beta= 0.60
     Davidson diagonalization with overlap
     ethr =  1.95E-04,  avg # of iterations =  1.1

     total cpu time spent up to now is      795.5 secs

     total energy              =    -702.48173339 Ry
     Harris-Foulkes estimate   =    -702.49324351 Ry
     estimated scf accuracy    <       1.86432450 Ry

     iteration # 11     ecut=    40.00 Ry     beta= 0.60
     Davidson diagonalization with overlap
     ethr =  1.95E-04,  avg # of iterations =  1.2

     total cpu time spent up to now is      826.2 secs

     total energy              =    -702.44366477 Ry
     Harris-Foulkes estimate   =    -702.48631652 Ry
     estimated scf accuracy    <       1.86850024 Ry

     iteration # 12     ecut=    40.00 Ry     beta= 0.60
     Davidson diagonalization with overlap
     ethr =  1.95E-04,  avg # of iterations =  1.0

     total cpu time spent up to now is      846.7 secs

     total energy              =    -702.40155782 Ry
     Harris-Foulkes estimate   =    -702.44785825 Ry
     estimated scf accuracy    <       1.35454165 Ry

     iteration # 13     ecut=    40.00 Ry     beta= 0.60
     Davidson diagonalization with overlap
     ethr =  1.95E-04,  avg # of iterations =  3.5

     total cpu time spent up to now is      892.7 secs

     total energy              =    -702.40969254 Ry
     Harris-Foulkes estimate   =    -702.41366594 Ry
     estimated scf accuracy    <       0.59282487 Ry

     iteration # 14     ecut=    40.00 Ry     beta= 0.60
     Davidson diagonalization with overlap
     ethr =  1.95E-04,  avg # of iterations =  1.0

     total cpu time spent up to now is      916.9 secs

     total energy              =    -702.42125600 Ry
     Harris-Foulkes estimate   =    -702.41081862 Ry
     estimated scf accuracy    <       0.54479823 Ry

     iteration # 15     ecut=    40.00 Ry     beta= 0.60
     Davidson diagonalization with overlap
     ethr =  1.95E-04,  avg # of iterations =  1.0

     total cpu time spent up to now is      941.1 secs

     total energy              =    -702.44362756 Ry
     Harris-Foulkes estimate   =    -702.42253900 Ry
     estimated scf accuracy    <       0.66110184 Ry

     iteration # 16     ecut=    40.00 Ry     beta= 0.60
     Davidson diagonalization with overlap
     ethr =  1.95E-04,  avg # of iterations =  2.9

     total cpu time spent up to now is      979.0 secs

     total energy              =    -702.29208916 Ry
     Harris-Foulkes estimate   =    -702.46156794 Ry
     estimated scf accuracy    <       1.26544014 Ry

     iteration # 17     ecut=    40.00 Ry     beta= 0.60
     Davidson diagonalization with overlap
     ethr =  1.95E-04,  avg # of iterations =  5.4

     total cpu time spent up to now is     1017.8 secs

     total energy              =    -702.38406284 Ry
     Harris-Foulkes estimate   =    -702.38996077 Ry
     estimated scf accuracy    <       0.05592117 Ry

     iteration # 18     ecut=    40.00 Ry     beta= 0.60
     Davidson diagonalization with overlap
     ethr =  7.56E-05,  avg # of iterations =  1.7

     total cpu time spent up to now is     1037.3 secs

     total energy              =    -702.38525711 Ry
     Harris-Foulkes estimate   =    -702.38594146 Ry
     estimated scf accuracy    <       0.01316273 Ry

     iteration # 19     ecut=    40.00 Ry     beta= 0.60
     Davidson diagonalization with overlap
     ethr =  1.78E-05,  avg # of iterations =  4.6

     total cpu time spent up to now is     1063.3 secs

     total energy              =    -702.38605938 Ry
     Harris-Foulkes estimate   =    -702.38608444 Ry
     estimated scf accuracy    <       0.00186259 Ry

     iteration # 20     ecut=    40.00 Ry     beta= 0.60
     Davidson diagonalization with overlap
     ethr =  2.52E-06,  avg # of iterations =  7.0

     total cpu time spent up to now is     1103.7 secs

     total energy              =    -702.38627126 Ry
     Harris-Foulkes estimate   =    -702.38634836 Ry
     estimated scf accuracy    <       0.00079045 Ry

     iteration # 21     ecut=    40.00 Ry     beta= 0.60
     Davidson diagonalization with overlap
     ethr =  1.07E-06,  avg # of iterations =  1.5

     total cpu time spent up to now is     1126.1 secs

     total energy              =    -702.38623128 Ry
     Harris-Foulkes estimate   =    -702.38629257 Ry
     estimated scf accuracy    <       0.00030060 Ry

     iteration # 22     ecut=    40.00 Ry     beta= 0.60
     Davidson diagonalization with overlap
     ethr =  4.06E-07,  avg # of iterations =  4.9

     total cpu time spent up to now is     1156.4 secs

     total energy              =    -702.38629917 Ry
     Harris-Foulkes estimate   =    -702.38634463 Ry
     estimated scf accuracy    <       0.00080332 Ry

     iteration # 23     ecut=    40.00 Ry     beta= 0.60
     Davidson diagonalization with overlap
     ethr =  4.06E-07,  avg # of iterations =  1.0

     total cpu time spent up to now is     1194.0 secs

     total energy              =    -702.38628483 Ry
     Harris-Foulkes estimate   =    -702.38630631 Ry
     estimated scf accuracy    <       0.00040827 Ry

     iteration # 24     ecut=    40.00 Ry     beta= 0.60
     Davidson diagonalization with overlap
     ethr =  4.06E-07,  avg # of iterations =  2.8

     total cpu time spent up to now is     1216.6 secs

     total energy              =    -702.38628053 Ry
     Harris-Foulkes estimate   =    -702.38629377 Ry
     estimated scf accuracy    <       0.00014020 Ry

     iteration # 25     ecut=    40.00 Ry     beta= 0.60
     Davidson diagonalization with overlap
     ethr =  1.89E-07,  avg # of iterations =  4.4

     total cpu time spent up to now is     1264.3 secs

     total energy              =    -702.38629422 Ry
     Harris-Foulkes estimate   =    -702.38629534 Ry
     estimated scf accuracy    <       0.00001240 Ry

     iteration # 26     ecut=    40.00 Ry     beta= 0.60
     Davidson diagonalization with overlap
     ethr =  1.68E-08,  avg # of iterations =  4.8

     total cpu time spent up to now is     1300.2 secs

     total energy              =    -702.38629503 Ry
     Harris-Foulkes estimate   =    -702.38629636 Ry
     estimated scf accuracy    <       0.00000742 Ry

     iteration # 27     ecut=    40.00 Ry     beta= 0.60
     Davidson diagonalization with overlap
     ethr =  1.00E-08,  avg # of iterations =  4.1

     total cpu time spent up to now is     1353.3 secs

     total energy              =    -702.38629577 Ry
     Harris-Foulkes estimate   =    -702.38629609 Ry
     estimated scf accuracy    <       0.00000398 Ry

     iteration # 28     ecut=    40.00 Ry     beta= 0.60
     Davidson diagonalization with overlap
     ethr =  5.38E-09,  avg # of iterations =  1.9

     total cpu time spent up to now is     1379.0 secs

     total energy              =    -702.38629580 Ry
     Harris-Foulkes estimate   =    -702.38629591 Ry
     estimated scf accuracy    <       0.00000128 Ry

     iteration # 29     ecut=    40.00 Ry     beta= 0.60
     Davidson diagonalization with overlap
     ethr =  1.72E-09,  avg # of iterations =  4.2

     total cpu time spent up to now is     1415.4 secs

     total energy              =    -702.38629589 Ry
     Harris-Foulkes estimate   =    -702.38629594 Ry
     estimated scf accuracy    <       0.00000050 Ry

     iteration # 30     ecut=    40.00 Ry     beta= 0.60
     Davidson diagonalization with overlap
     ethr =  6.77E-10,  avg # of iterations =  2.0

     total cpu time spent up to now is     1448.3 secs

     total energy              =    -702.38629589 Ry
     Harris-Foulkes estimate   =    -702.38629591 Ry
     estimated scf accuracy    <       0.00000015 Ry

     iteration # 31     ecut=    40.00 Ry     beta= 0.60
     Davidson diagonalization with overlap
     ethr =  2.03E-10,  avg # of iterations =  4.2

     total cpu time spent up to now is     1493.1 secs

     total energy              =    -702.38629591 Ry
     Harris-Foulkes estimate   =    -702.38629592 Ry
     estimated scf accuracy    <          6.5E-09 Ry

     iteration # 32     ecut=    40.00 Ry     beta= 0.60
     Davidson diagonalization with overlap
     c_bands:  1 eigenvalues not converged
     ethr =  8.78E-12,  avg # of iterations =  5.3

     total cpu time spent up to now is     1571.6 secs

     total energy              =    -702.38629591 Ry
     Harris-Foulkes estimate   =    -702.38629592 Ry
     estimated scf accuracy    <          2.3E-09 Ry

     iteration # 33     ecut=    40.00 Ry     beta= 0.60
     Davidson diagonalization with overlap
     ethr =  3.04E-12,  avg # of iterations =  4.0

     total cpu time spent up to now is     1624.4 secs

     total energy              =    -702.38629592 Ry
     Harris-Foulkes estimate   =    -702.38629592 Ry
     estimated scf accuracy    <          1.4E-09 Ry

     iteration # 34     ecut=    40.00 Ry     beta= 0.60
     Davidson diagonalization with overlap
     ethr =  1.91E-12,  avg # of iterations =  2.5

     total cpu time spent up to now is     1671.7 secs

     total energy              =    -702.38629592 Ry
     Harris-Foulkes estimate   =    -702.38629592 Ry
     estimated scf accuracy    <          1.2E-09 Ry

     iteration # 35     ecut=    40.00 Ry     beta= 0.60
     Davidson diagonalization with overlap
     ethr =  1.57E-12,  avg # of iterations =  1.2

     total cpu time spent up to now is     1691.2 secs

     total energy              =    -702.38629592 Ry
     Harris-Foulkes estimate   =    -702.38629592 Ry
     estimated scf accuracy    <          4.7E-10 Ry

     iteration # 36     ecut=    40.00 Ry     beta= 0.60
     Davidson diagonalization with overlap
     ethr =  6.34E-13,  avg # of iterations =  3.8

     total cpu time spent up to now is     1725.2 secs

     total energy              =    -702.38629592 Ry
     Harris-Foulkes estimate   =    -702.38629592 Ry
     estimated scf accuracy    <          1.1E-10 Ry

     iteration # 37     ecut=    40.00 Ry     beta= 0.60
     Davidson diagonalization with overlap
     ethr =  1.49E-13,  avg # of iterations =  4.2

     total cpu time spent up to now is     1754.6 secs

     End of self-consistent calculation

     Number of k-points >= 100: set verbosity='high' to print the bands.

     the Fermi energy is    12.9849 ev

!    total energy              =    -702.38629592 Ry
     Harris-Foulkes estimate   =    -702.38629592 Ry
     estimated scf accuracy    <          6.5E-11 Ry

     The total energy is the sum of the following terms:

     one-electron contribution =    -231.23608500 Ry
     hartree contribution      =     137.69602337 Ry
     xc contribution           =     -94.33332751 Ry
     ewald contribution        =    -514.50797732 Ry
     smearing contrib. (-TS)   =      -0.00492945 Ry

     convergence has been achieved in  37 iterations

     Forces acting on atoms (cartesian axes, Ry/au):

     atom    1 type  2   force =     0.00142236    0.00082120    0.00000000
     atom    2 type  2   force =     0.00000000    0.00000000    0.00000000
     atom    3 type  2   force =     0.00000000   -0.00164240    0.00000000
     atom    4 type  1   force =     0.00000000    0.00000000    0.00407371
     atom    5 type  2   force =    -0.00142236    0.00082120    0.00000000
     atom    6 type  1   force =     0.00000000    0.00000000   -0.00407371

     Total force =     0.006425     Total SCF correction =     0.000002


     Computing stress (Cartesian axis) and pressure

          total   stress  (Ry/bohr**3)                   (kbar)     P= -130.92
  -0.00089554   0.00000000  -0.00000000       -131.74      0.00     -0.00
   0.00000000  -0.00089554   0.00000000          0.00   -131.74      0.00
   0.00000000  -0.00000000  -0.00087882          0.00     -0.00   -129.28


     BFGS Geometry Optimization

     number of scf cycles    =   1
     number of bfgs steps    =   0

     enthalpy new            =    -702.3862959152 Ry

     new trust radius        =       0.1273070102 bohr
     new conv_thr            =            1.0E-10 Ry

     new unit-cell volume =    755.57945 a.u.^3 (   111.96532 Ang^3 )
     density =      5.59539 g/cm^3

CELL_PARAMETERS (alat=  1.88972599)
   2.976830997   0.000000000   4.863213695
  -1.488415499   2.578011452   4.863213695
  -1.488415499  -2.578011452   4.863213695

ATOMIC_POSITIONS (angstrom)
Ti       0.000735830   0.000424831   9.726427390
Ti       0.000001489  -1.718675161   7.294820542
Ti      -0.000000000  -0.000849663  14.589641084
Nb       1.488416988   0.859336291   7.296928892
Ti      -0.000735830   0.000424831   4.863213695
Nb      -1.488414010   0.859336291   7.292712192


     NEW-OLD atomic charge density approx. for the potential
     extrapolated charge   69.11218, renormalised to   74.00000

     total cpu time spent up to now is     1806.0 secs

     Self-consistent Calculation

     iteration #  1     ecut=    40.00 Ry     beta= 0.60
     Davidson diagonalization with overlap
     c_bands:  3 eigenvalues not converged
     c_bands:  1 eigenvalues not converged
     c_bands:  1 eigenvalues not converged
     c_bands:  1 eigenvalues not converged
     c_bands:  1 eigenvalues not converged
     c_bands:  1 eigenvalues not converged
     c_bands:  2 eigenvalues not converged
     c_bands:  1 eigenvalues not converged
     c_bands:  1 eigenvalues not converged
     c_bands:  1 eigenvalues not converged
     c_bands:  3 eigenvalues not converged
     c_bands:  1 eigenvalues not converged
     c_bands:  1 eigenvalues not converged
     c_bands:  2 eigenvalues not converged
     c_bands:  2 eigenvalues not converged
     c_bands:  3 eigenvalues not converged
     c_bands:  2 eigenvalues not converged
     c_bands:  1 eigenvalues not converged
     c_bands:  1 eigenvalues not converged
     c_bands:  1 eigenvalues not converged
     c_bands:  1 eigenvalues not converged
     c_bands:  2 eigenvalues not converged
     c_bands:  1 eigenvalues not converged
     c_bands:  1 eigenvalues not converged
     c_bands:  2 eigenvalues not converged
     c_bands:  2 eigenvalues not converged
     c_bands:  1 eigenvalues not converged
     c_bands:  1 eigenvalues not converged
     c_bands:  3 eigenvalues not converged
     c_bands:  1 eigenvalues not converged
     c_bands:  2 eigenvalues not converged
     c_bands:  3 eigenvalues not converged
     c_bands:  2 eigenvalues not converged
     c_bands:  1 eigenvalues not converged
     c_bands:  1 eigenvalues not converged
     c_bands:  1 eigenvalues not converged
     c_bands:  1 eigenvalues not converged
     c_bands:  1 eigenvalues not converged
     c_bands:  1 eigenvalues not converged
     c_bands:  2 eigenvalues not converged
     c_bands:  1 eigenvalues not converged
     c_bands:  1 eigenvalues not converged
     c_bands:  2 eigenvalues not converged
     c_bands:  2 eigenvalues not converged
     c_bands:  2 eigenvalues not converged
     c_bands:  1 eigenvalues not converged
     c_bands:  1 eigenvalues not converged
     c_bands:  1 eigenvalues not converged
     c_bands:  2 eigenvalues not converged
     c_bands:  1 eigenvalues not converged
     c_bands:  1 eigenvalues not converged
     c_bands:  1 eigenvalues not converged
     c_bands:  2 eigenvalues not converged
     c_bands:  1 eigenvalues not converged
     c_bands:  1 eigenvalues not converged
     c_bands:  1 eigenvalues not converged
     c_bands:  1 eigenvalues not converged
     c_bands:  1 eigenvalues not converged
     c_bands:  1 eigenvalues not converged
     c_bands:  2 eigenvalues not converged
     c_bands:  2 eigenvalues not converged
     c_bands:  1 eigenvalues not converged
     c_bands:  1 eigenvalues not converged
     c_bands:  1 eigenvalues not converged
     c_bands:  1 eigenvalues not converged
     c_bands:  2 eigenvalues not converged
     c_bands:  1 eigenvalues not converged
     c_bands:  1 eigenvalues not converged
     c_bands:  1 eigenvalues not converged
     c_bands:  1 eigenvalues not converged
     c_bands:  1 eigenvalues not converged
     ethr =  1.00E-06,  avg # of iterations = 18.0

     total cpu time spent up to now is     1952.8 secs

     total energy              =    -695.19303373 Ry
     Harris-Foulkes estimate   =    -713.18024446 Ry
     estimated scf accuracy    <       7.52792993 Ry

     iteration #  2     ecut=    40.00 Ry     beta= 0.60
     Davidson diagonalization with overlap
     ethr =  1.00E-02,  avg # of iterations =  5.3

     total cpu time spent up to now is     2030.6 secs

     total energy              =    -700.35752534 Ry
     Harris-Foulkes estimate   =    -714.78416735 Ry
     estimated scf accuracy    <      54.33422286 Ry

     iteration #  3     ecut=    40.00 Ry     beta= 0.60
     Davidson diagonalization with overlap
     ethr =  1.00E-02,  avg # of iterations =  4.1

     total cpu time spent up to now is     2084.4 secs

     total energy              =    -702.66372263 Ry
     Harris-Foulkes estimate   =    -704.09981082 Ry
     estimated scf accuracy    <       6.13486771 Ry

     iteration #  4     ecut=    40.00 Ry     beta= 0.60
     Davidson diagonalization with overlap
     ethr =  8.29E-03,  avg # of iterations =  2.1

     total cpu time spent up to now is     3180.7 secs

     total energy              =    -702.42642066 Ry
     Harris-Foulkes estimate   =    -702.96311956 Ry
     estimated scf accuracy    <       4.52567776 Ry

     iteration #  5     ecut=    40.00 Ry     beta= 0.60
     Davidson diagonalization with overlap
     ethr =  6.12E-03,  avg # of iterations =  1.5

     total cpu time spent up to now is     3199.7 secs

     total energy              =    -702.18070425 Ry
     Harris-Foulkes estimate   =    -702.55205123 Ry
     estimated scf accuracy    <       2.32796542 Ry

     iteration #  6     ecut=    40.00 Ry     beta= 0.60
     Davidson diagonalization with overlap
     ethr =  3.15E-03,  avg # of iterations =  4.4

     total cpu time spent up to now is     3225.9 secs

     total energy              =    -702.44496202 Ry
     Harris-Foulkes estimate   =    -702.41648424 Ry
     estimated scf accuracy    <       0.34597709 Ry

     iteration #  7     ecut=    40.00 Ry     beta= 0.60
     Davidson diagonalization with overlap
     ethr =  4.68E-04,  avg # of iterations =  6.8

     total cpu time spent up to now is     3261.4 secs

     total energy              =    -702.57179657 Ry
     Harris-Foulkes estimate   =    -702.50317916 Ry
     estimated scf accuracy    <       0.40517865 Ry

     iteration #  8     ecut=    40.00 Ry     beta= 0.60
     Davidson diagonalization with overlap
     ethr =  4.68E-04,  avg # of iterations =  1.3

     total cpu time spent up to now is     3284.2 secs

     total energy              =    -702.53784143 Ry
     Harris-Foulkes estimate   =    -702.58445910 Ry
     estimated scf accuracy    <       0.79635174 Ry

     iteration #  9     ecut=    40.00 Ry     beta= 0.60
     Davidson diagonalization with overlap
     ethr =  4.68E-04,  avg # of iterations =  1.0

     total cpu time spent up to now is     3309.5 secs

     total energy              =    -702.50983981 Ry
     Harris-Foulkes estimate   =    -702.54161212 Ry
     estimated scf accuracy    <       0.65688253 Ry

     iteration # 10     ecut=    40.00 Ry     beta= 0.60
     Davidson diagonalization with overlap
     ethr =  4.68E-04,  avg # of iterations =  1.0

     total cpu time spent up to now is     3331.4 secs

     total energy              =    -702.38115467 Ry
     Harris-Foulkes estimate   =    -702.51237315 Ry
     estimated scf accuracy    <       0.58730244 Ry

     iteration # 11     ecut=    40.00 Ry     beta= 0.60
     Davidson diagonalization with overlap
     ethr =  4.68E-04,  avg # of iterations =  3.1

     total cpu time spent up to now is     3373.0 secs

     total energy              =    -702.42652566 Ry
     Harris-Foulkes estimate   =    -702.41994593 Ry
     estimated scf accuracy    <       0.10790900 Ry

     iteration # 12     ecut=    40.00 Ry     beta= 0.60
     Davidson diagonalization with overlap
     ethr =  1.46E-04,  avg # of iterations =  3.1

     total cpu time spent up to now is     3398.5 secs

     total energy              =    -702.42396771 Ry
     Harris-Foulkes estimate   =    -702.43106006 Ry
     estimated scf accuracy    <       0.14710147 Ry

     iteration # 13     ecut=    40.00 Ry     beta= 0.60
     Davidson diagonalization with overlap
     ethr =  1.46E-04,  avg # of iterations =  1.1

     total cpu time spent up to now is     3425.8 secs

     total energy              =    -702.41390231 Ry
     Harris-Foulkes estimate   =    -702.42560284 Ry
     estimated scf accuracy    <       0.09677788 Ry

     iteration # 14     ecut=    40.00 Ry     beta= 0.60
     Davidson diagonalization with overlap
     ethr =  1.31E-04,  avg # of iterations =  3.4

     total cpu time spent up to now is     3452.6 secs

     total energy              =    -702.41986386 Ry
     Harris-Foulkes estimate   =    -702.42107179 Ry
     estimated scf accuracy    <       0.00390758 Ry

     iteration # 15     ecut=    40.00 Ry     beta= 0.60
     Davidson diagonalization with overlap
     ethr =  5.28E-06,  avg # of iterations =  6.6

     total cpu time spent up to now is     3501.3 secs

     total energy              =    -702.42252123 Ry
     Harris-Foulkes estimate   =    -702.42328640 Ry
     estimated scf accuracy    <       0.01460657 Ry

     iteration # 16     ecut=    40.00 Ry     beta= 0.60
     Davidson diagonalization with overlap
     ethr =  5.28E-06,  avg # of iterations =  1.0

     total cpu time spent up to now is     3520.6 secs

     total energy              =    -702.42041179 Ry
     Harris-Foulkes estimate   =    -702.42260999 Ry
     estimated scf accuracy    <       0.00837773 Ry

     iteration # 17     ecut=    40.00 Ry     beta= 0.60
     Davidson diagonalization with overlap
     ethr =  5.28E-06,  avg # of iterations =  6.1

     total cpu time spent up to now is     3557.1 secs

     total energy              =    -702.42197758 Ry
     Harris-Foulkes estimate   =    -702.42288943 Ry
     estimated scf accuracy    <       0.00858683 Ry

     iteration # 18     ecut=    40.00 Ry     beta= 0.60
     Davidson diagonalization with overlap
     ethr =  5.28E-06,  avg # of iterations =  1.2

     total cpu time spent up to now is     3613.4 secs

     total energy              =    -702.42204946 Ry
     Harris-Foulkes estimate   =    -702.42214717 Ry
     estimated scf accuracy    <       0.00285954 Ry

     iteration # 19     ecut=    40.00 Ry     beta= 0.60
     Davidson diagonalization with overlap
     ethr =  3.86E-06,  avg # of iterations =  3.1

     total cpu time spent up to now is     3699.9 secs

     total energy              =    -702.42195486 Ry
     Harris-Foulkes estimate   =    -702.42213580 Ry
     estimated scf accuracy    <       0.00139575 Ry

     iteration # 20     ecut=    40.00 Ry     beta= 0.60
     Davidson diagonalization with overlap
     ethr =  1.89E-06,  avg # of iterations =  5.6

     total cpu time spent up to now is     3842.3 secs

     total energy              =    -702.42222290 Ry
     Harris-Foulkes estimate   =    -702.42222554 Ry
     estimated scf accuracy    <       0.00017569 Ry

     iteration # 21     ecut=    40.00 Ry     beta= 0.60
     Davidson diagonalization with overlap
     ethr =  2.37E-07,  avg # of iterations =  3.7

     total cpu time spent up to now is     3865.8 secs

     total energy              =    -702.42221326 Ry
     Harris-Foulkes estimate   =    -702.42223573 Ry
     estimated scf accuracy    <       0.00025043 Ry

     iteration # 22     ecut=    40.00 Ry     beta= 0.60
     Davidson diagonalization with overlap
     ethr =  2.37E-07,  avg # of iterations =  1.0

     total cpu time spent up to now is     3887.4 secs

     total energy              =    -702.42220536 Ry
     Harris-Foulkes estimate   =    -702.42221741 Ry
     estimated scf accuracy    <       0.00010112 Ry

     iteration # 23     ecut=    40.00 Ry     beta= 0.60
     Davidson diagonalization with overlap
     ethr =  1.37E-07,  avg # of iterations =  3.9

     total cpu time spent up to now is     3918.1 secs

     total energy              =    -702.42221470 Ry
     Harris-Foulkes estimate   =    -702.42221479 Ry
     estimated scf accuracy    <       0.00000018 Ry

     iteration # 24     ecut=    40.00 Ry     beta= 0.60
     Davidson diagonalization with overlap
     ethr =  2.41E-10,  avg # of iterations =  6.8

     total cpu time spent up to now is     4048.8 secs

     total energy              =    -702.42221610 Ry
     Harris-Foulkes estimate   =    -702.42221653 Ry
     estimated scf accuracy    <       0.00000824 Ry

     iteration # 25     ecut=    40.00 Ry     beta= 0.60
     Davidson diagonalization with overlap
     ethr =  2.41E-10,  avg # of iterations =  4.9

     total cpu time spent up to now is     4134.1 secs

     total energy              =    -702.42221566 Ry
     Harris-Foulkes estimate   =    -702.42221619 Ry
     estimated scf accuracy    <       0.00000453 Ry

     iteration # 26     ecut=    40.00 Ry     beta= 0.60
     Davidson diagonalization with overlap
     ethr =  2.41E-10,  avg # of iterations =  5.9

     total cpu time spent up to now is     4221.2 secs

     total energy              =    -702.42221582 Ry
     Harris-Foulkes estimate   =    -702.42221587 Ry
     estimated scf accuracy    <       0.00000014 Ry

     iteration # 27     ecut=    40.00 Ry     beta= 0.60
     Davidson diagonalization with overlap
     ethr =  1.96E-10,  avg # of iterations =  4.5

     total cpu time spent up to now is     4249.6 secs

     total energy              =    -702.42221588 Ry
     Harris-Foulkes estimate   =    -702.42221586 Ry
     estimated scf accuracy    <       0.00000015 Ry

     iteration # 28     ecut=    40.00 Ry     beta= 0.60
     Davidson diagonalization with overlap
     ethr =  1.96E-10,  avg # of iterations =  1.7

     total cpu time spent up to now is     4268.8 secs

     total energy              =    -702.42221584 Ry
     Harris-Foulkes estimate   =    -702.42221589 Ry
     estimated scf accuracy    <       0.00000032 Ry

     iteration # 29     ecut=    40.00 Ry     beta= 0.60
     Davidson diagonalization with overlap
     ethr =  1.96E-10,  avg # of iterations =  2.5

     total cpu time spent up to now is     4289.2 secs

     total energy              =    -702.42221584 Ry
     Harris-Foulkes estimate   =    -702.42221585 Ry
     estimated scf accuracy    <       0.00000005 Ry

     iteration # 30     ecut=    40.00 Ry     beta= 0.60
     Davidson diagonalization with overlap
     ethr =  6.92E-11,  avg # of iterations =  4.0

     total cpu time spent up to now is     4321.6 secs

     total energy              =    -702.42221585 Ry
     Harris-Foulkes estimate   =    -702.42221585 Ry
     estimated scf accuracy    <          4.7E-09 Ry

     iteration # 31     ecut=    40.00 Ry     beta= 0.60
     Davidson diagonalization with overlap
     ethr =  6.40E-12,  avg # of iterations =  2.6

     total cpu time spent up to now is     4344.6 secs

     total energy              =    -702.42221585 Ry
     Harris-Foulkes estimate   =    -702.42221585 Ry
     estimated scf accuracy    <          1.4E-09 Ry

     iteration # 32     ecut=    40.00 Ry     beta= 0.60
     Davidson diagonalization with overlap
     ethr =  1.94E-12,  avg # of iterations =  4.1

     total cpu time spent up to now is     4374.4 secs

     total energy              =    -702.42221585 Ry
     Harris-Foulkes estimate   =    -702.42221585 Ry
     estimated scf accuracy    <          7.0E-10 Ry

     iteration # 33     ecut=    40.00 Ry     beta= 0.60
     Davidson diagonalization with overlap
     ethr =  9.45E-13,  avg # of iterations =  3.1

     total cpu time spent up to now is     4395.3 secs

     End of self-consistent calculation

     Number of k-points >= 100: set verbosity='high' to print the bands.

     the Fermi energy is    14.0742 ev

!    total energy              =    -702.42221585 Ry
     Harris-Foulkes estimate   =    -702.42221585 Ry
     estimated scf accuracy    <          2.2E-11 Ry

     The total energy is the sum of the following terms:

     one-electron contribution =    -213.91622307 Ry
     hartree contribution      =     132.37169395 Ry
     xc contribution           =     -94.65845955 Ry
     ewald contribution        =    -526.21460631 Ry
     smearing contrib. (-TS)   =      -0.00462087 Ry

     convergence has been achieved in  33 iterations

     Forces acting on atoms (cartesian axes, Ry/au):

     atom    1 type  2   force =     0.00040201    0.00023210    0.00000000
     atom    2 type  2   force =     0.00000000    0.00000000    0.00000000
     atom    3 type  2   force =     0.00000000   -0.00046420    0.00000000
     atom    4 type  1   force =    -0.00000000    0.00000000    0.00434526
     atom    5 type  2   force =    -0.00040201    0.00023210    0.00000000
     atom    6 type  1   force =    -0.00000000    0.00000000   -0.00434526

     Total force =     0.006198     Total SCF correction =     0.000002


     Computing stress (Cartesian axis) and pressure

          total   stress  (Ry/bohr**3)                   (kbar)     P=  -65.52
  -0.00045606  -0.00000000   0.00000000        -67.09     -0.00      0.00
   0.00000000  -0.00045606   0.00000000          0.00    -67.09      0.00
  -0.00000000   0.00000000  -0.00042408         -0.00      0.00    -62.38


     number of scf cycles    =   2
     number of bfgs steps    =   1

     enthalpy old            =    -702.3862959152 Ry
     enthalpy new            =    -702.4222158512 Ry

     CASE: enthalpy_new < enthalpy_old

     new trust radius        =       0.1178187927 bohr
     new conv_thr            =            1.0E-10 Ry

     new unit-cell volume =    709.13294 a.u.^3 (   105.08266 Ang^3 )
     density =      5.96187 g/cm^3

CELL_PARAMETERS (alat=  1.88972599)
   2.913034228   0.000000000   4.766373317
  -1.456517114   2.522761833   4.766373317
  -1.456517114  -2.522761833   4.766373317

ATOMIC_POSITIONS (angstrom)
Ti       0.001102864   0.000636739   9.532746633
Ti       0.000001457  -1.681842063   7.149559975
Ti      -0.000000000  -0.001273478  14.299119950
Nb       1.456518571   0.840919770   7.155766094
Ti      -0.001102864   0.000636739   4.766373317
Nb      -1.456515657   0.840919770   7.143353856


     NEW-OLD atomic charge density approx. for the potential
     extrapolated charge   69.41554, renormalised to   74.00000

     total cpu time spent up to now is     4410.8 secs

     Self-consistent Calculation

     iteration #  1     ecut=    40.00 Ry     beta= 0.60
     Davidson diagonalization with overlap
     c_bands:  1 eigenvalues not converged
     c_bands:  1 eigenvalues not converged
     c_bands:  2 eigenvalues not converged
     c_bands:  1 eigenvalues not converged
     c_bands:  2 eigenvalues not converged
     c_bands:  2 eigenvalues not converged
     c_bands:  1 eigenvalues not converged
     c_bands:  1 eigenvalues not converged
     c_bands:  1 eigenvalues not converged
     c_bands:  1 eigenvalues not converged
     c_bands:  1 eigenvalues not converged
     c_bands:  1 eigenvalues not converged
     c_bands:  1 eigenvalues not converged
     c_bands:  1 eigenvalues not converged
     c_bands:  2 eigenvalues not converged
     c_bands:  1 eigenvalues not converged
     c_bands:  1 eigenvalues not converged
     c_bands:  1 eigenvalues not converged
     c_bands:  2 eigenvalues not converged
     c_bands:  2 eigenvalues not converged
     c_bands:  1 eigenvalues not converged
     c_bands:  2 eigenvalues not converged
     c_bands:  2 eigenvalues not converged
     c_bands:  1 eigenvalues not converged
     c_bands:  1 eigenvalues not converged
     c_bands:  1 eigenvalues not converged
     c_bands:  2 eigenvalues not converged
     c_bands:  1 eigenvalues not converged
     c_bands:  1 eigenvalues not converged
     c_bands:  1 eigenvalues not converged
     c_bands:  1 eigenvalues not converged
     c_bands:  3 eigenvalues not converged
     c_bands:  1 eigenvalues not converged
     c_bands:  1 eigenvalues not converged
     c_bands:  1 eigenvalues not converged
     c_bands:  3 eigenvalues not converged
     c_bands:  2 eigenvalues not converged
     c_bands:  1 eigenvalues not converged
     c_bands:  3 eigenvalues not converged
     c_bands:  1 eigenvalues not converged
     c_bands:  1 eigenvalues not converged
     c_bands:  1 eigenvalues not converged
     c_bands:  1 eigenvalues not converged
     c_bands:  1 eigenvalues not converged
     c_bands:  1 eigenvalues not converged
     c_bands:  2 eigenvalues not converged
     c_bands:  2 eigenvalues not converged
     c_bands:  2 eigenvalues not converged
     c_bands:  1 eigenvalues not converged
     c_bands:  1 eigenvalues not converged
     c_bands:  1 eigenvalues not converged
     c_bands:  1 eigenvalues not converged
     c_bands:  1 eigenvalues not converged
     c_bands:  1 eigenvalues not converged
     c_bands:  2 eigenvalues not converged
     c_bands:  1 eigenvalues not converged
     c_bands:  1 eigenvalues not converged
     c_bands:  2 eigenvalues not converged
     c_bands:  1 eigenvalues not converged
     c_bands:  3 eigenvalues not converged
     c_bands:  1 eigenvalues not converged
     c_bands:  2 eigenvalues not converged
     c_bands:  1 eigenvalues not converged
     c_bands:  1 eigenvalues not converged
     c_bands:  2 eigenvalues not converged
     c_bands:  2 eigenvalues not converged
     c_bands:  3 eigenvalues not converged
     c_bands:  1 eigenvalues not converged
     c_bands:  1 eigenvalues not converged
     c_bands:  3 eigenvalues not converged
     c_bands:  1 eigenvalues not converged
     c_bands:  1 eigenvalues not converged
     c_bands:  1 eigenvalues not converged
     c_bands:  1 eigenvalues not converged
     ethr =  1.00E-06,  avg # of iterations = 18.1

     total cpu time spent up to now is     4496.6 secs

     total energy              =    -697.47517548 Ry
     Harris-Foulkes estimate   =    -711.73635424 Ry
     estimated scf accuracy    <       5.03237058 Ry

     iteration #  2     ecut=    40.00 Ry     beta= 0.60
     Davidson diagonalization with overlap
     ethr =  6.80E-03,  avg # of iterations =  5.3

     total cpu time spent up to now is     4537.1 secs

     total energy              =    -700.33194920 Ry
     Harris-Foulkes estimate   =    -711.02067025 Ry
     estimated scf accuracy    <      43.34182380 Ry

     iteration #  3     ecut=    40.00 Ry     beta= 0.60
     Davidson diagonalization with overlap
     ethr =  6.80E-03,  avg # of iterations =  4.5

     total cpu time spent up to now is     4566.1 secs

     total energy              =    -702.54868834 Ry
     Harris-Foulkes estimate   =    -703.56218234 Ry
     estimated scf accuracy    <       3.93881372 Ry

     iteration #  4     ecut=    40.00 Ry     beta= 0.60
     Davidson diagonalization with overlap
     ethr =  5.32E-03,  avg # of iterations =  2.4

     total cpu time spent up to now is     4586.2 secs

     total energy              =    -702.51302944 Ry
     Harris-Foulkes estimate   =    -702.80341491 Ry
     estimated scf accuracy    <       2.86261103 Ry

     iteration #  5     ecut=    40.00 Ry     beta= 0.60
     Davidson diagonalization with overlap
     ethr =  3.87E-03,  avg # of iterations =  1.2

     total cpu time spent up to now is     4605.8 secs

     total energy              =    -702.38256535 Ry
     Harris-Foulkes estimate   =    -702.58486491 Ry
     estimated scf accuracy    <       1.69465682 Ry

     iteration #  6     ecut=    40.00 Ry     beta= 0.60
     Davidson diagonalization with overlap
     ethr =  2.29E-03,  avg # of iterations =  2.6

     total cpu time spent up to now is     4627.8 secs

     total energy              =    -702.38479086 Ry
     Harris-Foulkes estimate   =    -702.44129940 Ry
     estimated scf accuracy    <       0.73286761 Ry

     iteration #  7     ecut=    40.00 Ry     beta= 0.60
     Davidson diagonalization with overlap
     ethr =  9.90E-04,  avg # of iterations =  5.2

     total cpu time spent up to now is     4660.4 secs

     total energy              =    -702.51977379 Ry
     Harris-Foulkes estimate   =    -702.45663659 Ry
     estimated scf accuracy    <       0.19085762 Ry

     iteration #  8     ecut=    40.00 Ry     beta= 0.60
     Davidson diagonalization with overlap
     ethr =  2.58E-04,  avg # of iterations =  5.8

     total cpu time spent up to now is     4697.0 secs

     total energy              =    -702.53921904 Ry
     Harris-Foulkes estimate   =    -702.54568407 Ry
     estimated scf accuracy    <       0.60988250 Ry

     iteration #  9     ecut=    40.00 Ry     beta= 0.60
     Davidson diagonalization with overlap
     ethr =  2.58E-04,  avg # of iterations =  1.0

     total cpu time spent up to now is     4715.8 secs

     total energy              =    -702.46919730 Ry
     Harris-Foulkes estimate   =    -702.54133278 Ry
     estimated scf accuracy    <       0.62037604 Ry

     iteration # 10     ecut=    40.00 Ry     beta= 0.60
     Davidson diagonalization with overlap
     ethr =  2.58E-04,  avg # of iterations =  1.1

     total cpu time spent up to now is     4745.2 secs

     total energy              =    -702.41359731 Ry
     Harris-Foulkes estimate   =    -702.47544108 Ry
     estimated scf accuracy    <       0.37793551 Ry

     iteration # 11     ecut=    40.00 Ry     beta= 0.60
     Davidson diagonalization with overlap
     ethr =  2.58E-04,  avg # of iterations =  3.7

     total cpu time spent up to now is     4773.9 secs

     total energy              =    -702.44368955 Ry
     Harris-Foulkes estimate   =    -702.43844615 Ry
     estimated scf accuracy    <       0.12315670 Ry

     iteration # 12     ecut=    40.00 Ry     beta= 0.60
     Davidson diagonalization with overlap
     ethr =  1.66E-04,  avg # of iterations =  1.4

     total cpu time spent up to now is     4825.4 secs

     total energy              =    -702.42128263 Ry
     Harris-Foulkes estimate   =    -702.44558686 Ry
     estimated scf accuracy    <       0.15041221 Ry

     iteration # 13     ecut=    40.00 Ry     beta= 0.60
     Davidson diagonalization with overlap
     ethr =  1.66E-04,  avg # of iterations =  1.8

     total cpu time spent up to now is     4849.8 secs

     total energy              =    -702.42483855 Ry
     Harris-Foulkes estimate   =    -702.42900624 Ry
     estimated scf accuracy    <       0.05609073 Ry

     iteration # 14     ecut=    40.00 Ry     beta= 0.60
     Davidson diagonalization with overlap
     ethr =  7.58E-05,  avg # of iterations =  6.0

     total cpu time spent up to now is     4890.2 secs

     total energy              =    -702.43697829 Ry
     Harris-Foulkes estimate   =    -702.43423865 Ry
     estimated scf accuracy    <       0.03147093 Ry

     iteration # 15     ecut=    40.00 Ry     beta= 0.60
     Davidson diagonalization with overlap
     ethr =  4.25E-05,  avg # of iterations =  1.6

     total cpu time spent up to now is     4912.1 secs

     total energy              =    -702.43519932 Ry
     Harris-Foulkes estimate   =    -702.43790021 Ry
     estimated scf accuracy    <       0.04973954 Ry

     iteration # 16     ecut=    40.00 Ry     beta= 0.60
     Davidson diagonalization with overlap
     ethr =  4.25E-05,  avg # of iterations =  1.0

     total cpu time spent up to now is     4984.3 secs

     total energy              =    -702.43166211 Ry
     Harris-Foulkes estimate   =    -702.43550322 Ry
     estimated scf accuracy    <       0.03604251 Ry

     iteration # 17     ecut=    40.00 Ry     beta= 0.60
     Davidson diagonalization with overlap
     ethr =  4.25E-05,  avg # of iterations =  1.0

     total cpu time spent up to now is     5003.2 secs

     total energy              =    -702.43243850 Ry
     Harris-Foulkes estimate   =    -702.43218764 Ry
     estimated scf accuracy    <       0.01722152 Ry

     iteration # 18     ecut=    40.00 Ry     beta= 0.60
     Davidson diagonalization with overlap
     ethr =  2.33E-05,  avg # of iterations =  1.0

     total cpu time spent up to now is     5885.2 secs

     total energy              =    -702.42925990 Ry
     Harris-Foulkes estimate   =    -702.43251500 Ry
     estimated scf accuracy    <       0.01796452 Ry

     iteration # 19     ecut=    40.00 Ry     beta= 0.60
     Davidson diagonalization with overlap
     ethr =  2.33E-05,  avg # of iterations =  3.4

     total cpu time spent up to now is     5910.3 secs

     total energy              =    -702.43058043 Ry
     Harris-Foulkes estimate   =    -702.43068580 Ry
     estimated scf accuracy    <       0.00114413 Ry

     iteration # 20     ecut=    40.00 Ry     beta= 0.60
     Davidson diagonalization with overlap
     ethr =  1.55E-06,  avg # of iterations =  6.3

     total cpu time spent up to now is     5960.9 secs

     total energy              =    -702.43131415 Ry
     Harris-Foulkes estimate   =    -702.43128888 Ry
     estimated scf accuracy    <       0.00047593 Ry

     iteration # 21     ecut=    40.00 Ry     beta= 0.60
     Davidson diagonalization with overlap
     ethr =  6.43E-07,  avg # of iterations =  1.4

     total cpu time spent up to now is     5980.6 secs

     total energy              =    -702.43168241 Ry
     Harris-Foulkes estimate   =    -702.43133269 Ry
     estimated scf accuracy    <       0.00082331 Ry

     iteration # 22     ecut=    40.00 Ry     beta= 0.60
     Davidson diagonalization with overlap
     ethr =  6.43E-07,  avg # of iterations =  5.3

     total cpu time spent up to now is     6015.9 secs

     total energy              =    -702.43131268 Ry
     Harris-Foulkes estimate   =    -702.43207462 Ry
     estimated scf accuracy    <       0.00913347 Ry

     iteration # 23     ecut=    40.00 Ry     beta= 0.60
     Davidson diagonalization with overlap
     ethr =  6.43E-07,  avg # of iterations =  4.3

     total cpu time spent up to now is     6053.8 secs

     total energy              =    -702.43130802 Ry
     Harris-Foulkes estimate   =    -702.43147389 Ry
     estimated scf accuracy    <       0.00271489 Ry

     iteration # 24     ecut=    40.00 Ry     beta= 0.60
     Davidson diagonalization with overlap
     ethr =  6.43E-07,  avg # of iterations =  1.0

     total cpu time spent up to now is     6074.9 secs

     total energy              =    -702.43124887 Ry
     Harris-Foulkes estimate   =    -702.43132608 Ry
     estimated scf accuracy    <       0.00164665 Ry

     iteration # 25     ecut=    40.00 Ry     beta= 0.60
     Davidson diagonalization with overlap
     ethr =  6.43E-07,  avg # of iterations =  3.5

     total cpu time spent up to now is     6104.4 secs

     total energy              =    -702.43113848 Ry
     Harris-Foulkes estimate   =    -702.43127457 Ry
     estimated scf accuracy    <       0.00077866 Ry

     iteration # 26     ecut=    40.00 Ry     beta= 0.60
     Davidson diagonalization with overlap
     ethr =  6.43E-07,  avg # of iterations =  4.9

     total cpu time spent up to now is     6138.7 secs

     total energy              =    -702.43121064 Ry
     Harris-Foulkes estimate   =    -702.43124822 Ry
     estimated scf accuracy    <       0.00009202 Ry

     iteration # 27     ecut=    40.00 Ry     beta= 0.60
     Davidson diagonalization with overlap
     ethr =  1.24E-07,  avg # of iterations =  5.2

     total cpu time spent up to now is     6171.9 secs

     total energy              =    -702.43123543 Ry
     Harris-Foulkes estimate   =    -702.43129104 Ry
     estimated scf accuracy    <       0.00059195 Ry

     iteration # 28     ecut=    40.00 Ry     beta= 0.60
     Davidson diagonalization with overlap
     ethr =  1.24E-07,  avg # of iterations =  3.6

     total cpu time spent up to now is     6197.6 secs

     total energy              =    -702.43120669 Ry
     Harris-Foulkes estimate   =    -702.43124593 Ry
     estimated scf accuracy    <       0.00019941 Ry

     iteration # 29     ecut=    40.00 Ry     beta= 0.60
     Davidson diagonalization with overlap
     ethr =  1.24E-07,  avg # of iterations =  4.2

     total cpu time spent up to now is     6229.5 secs

     total energy              =    -702.43123677 Ry
     Harris-Foulkes estimate   =    -702.43123955 Ry
     estimated scf accuracy    <       0.00002712 Ry

     iteration # 30     ecut=    40.00 Ry     beta= 0.60
     Davidson diagonalization with overlap
     ethr =  3.66E-08,  avg # of iterations =  1.2

     total cpu time spent up to now is     6249.9 secs

     total energy              =    -702.43123583 Ry
     Harris-Foulkes estimate   =    -702.43123746 Ry
     estimated scf accuracy    <       0.00001067 Ry

     iteration # 31     ecut=    40.00 Ry     beta= 0.60
     Davidson diagonalization with overlap
     ethr =  1.44E-08,  avg # of iterations =  3.9

     total cpu time spent up to now is     6963.9 secs

     total energy              =    -702.43123736 Ry
     Harris-Foulkes estimate   =    -702.43123737 Ry
     estimated scf accuracy    <       0.00000035 Ry

     iteration # 32     ecut=    40.00 Ry     beta= 0.60
     Davidson diagonalization with overlap
     ethr =  4.78E-10,  avg # of iterations =  4.9

     total cpu time spent up to now is     7224.6 secs

     total energy              =    -702.43123737 Ry
     Harris-Foulkes estimate   =    -702.43123741 Ry
     estimated scf accuracy    <       0.00000032 Ry

     iteration # 33     ecut=    40.00 Ry     beta= 0.60
     Davidson diagonalization with overlap
     ethr =  4.30E-10,  avg # of iterations =  1.0

     total cpu time spent up to now is     7243.1 secs

     total energy              =    -702.43123736 Ry
     Harris-Foulkes estimate   =    -702.43123737 Ry
     estimated scf accuracy    <       0.00000010 Ry

     iteration # 34     ecut=    40.00 Ry     beta= 0.60
     Davidson diagonalization with overlap
     ethr =  1.30E-10,  avg # of iterations =  4.1

     total cpu time spent up to now is     7269.2 secs

     total energy              =    -702.43123737 Ry
     Harris-Foulkes estimate   =    -702.43123738 Ry
     estimated scf accuracy    <          5.3E-09 Ry

     iteration # 35     ecut=    40.00 Ry     beta= 0.60
     Davidson diagonalization with overlap
     ethr =  7.12E-12,  avg # of iterations =  4.3

     total cpu time spent up to now is     7294.2 secs

     total energy              =    -702.43123737 Ry
     Harris-Foulkes estimate   =    -702.43123738 Ry
     estimated scf accuracy    <          1.5E-09 Ry

     iteration # 36     ecut=    40.00 Ry     beta= 0.60
     Davidson diagonalization with overlap
     ethr =  1.98E-12,  avg # of iterations =  4.1

     total cpu time spent up to now is     7320.2 secs

     total energy              =    -702.43123738 Ry
     Harris-Foulkes estimate   =    -702.43123738 Ry
     estimated scf accuracy    <          1.7E-10 Ry

     iteration # 37     ecut=    40.00 Ry     beta= 0.60
     Davidson diagonalization with overlap
     ethr =  2.34E-13,  avg # of iterations =  4.1

     total cpu time spent up to now is     7344.6 secs

     End of self-consistent calculation

     Number of k-points >= 100: set verbosity='high' to print the bands.

     the Fermi energy is    15.1563 ev

!    total energy              =    -702.43123738 Ry
     Harris-Foulkes estimate   =    -702.43123738 Ry
     estimated scf accuracy    <          3.5E-12 Ry

     The total energy is the sum of the following terms:

     one-electron contribution =    -197.41252909 Ry
     hartree contribution      =     127.43383868 Ry
     xc contribution           =     -94.98949476 Ry
     ewald contribution        =    -537.45891207 Ry
     smearing contrib. (-TS)   =      -0.00414013 Ry

     convergence has been achieved in  37 iterations

     Forces acting on atoms (cartesian axes, Ry/au):

     atom    1 type  2   force =    -0.00103520   -0.00059767    0.00000000
     atom    2 type  2   force =    -0.00000000    0.00000000    0.00000000
     atom    3 type  2   force =     0.00000000    0.00119534    0.00000000
     atom    4 type  1   force =     0.00000000    0.00000000    0.00431952
     atom    5 type  2   force =     0.00103520   -0.00059767    0.00000000
     atom    6 type  1   force =     0.00000000    0.00000000   -0.00431952

     Total force =     0.006450     Total SCF correction =     0.000001


     Computing stress (Cartesian axis) and pressure

          total   stress  (Ry/bohr**3)                   (kbar)     P=   12.77
   0.00007036   0.00000000  -0.00000000         10.35      0.00     -0.00
  -0.00000000   0.00007036   0.00000000         -0.00     10.35      0.00
   0.00000000  -0.00000000   0.00011971          0.00     -0.00     17.61


     number of scf cycles    =   3
     number of bfgs steps    =   2

     enthalpy old            =    -702.4222158512 Ry
     enthalpy new            =    -702.4312373750 Ry

     CASE: enthalpy_new < enthalpy_old

     new trust radius        =       0.0205258027 bohr
     new conv_thr            =            1.0E-10 Ry

     new unit-cell volume =    716.10875 a.u.^3 (   106.11637 Ang^3 )
     density =      5.90380 g/cm^3

CELL_PARAMETERS (alat=  1.88972599)
   2.921702434  -0.000000000   4.784742692
  -1.460851217   2.530268719   4.784742692
  -1.460851217  -2.530268719   4.784742692

ATOMIC_POSITIONS (angstrom)
Ti       0.000653684   0.000377404   9.569485384
Ti       0.000001461  -1.686846656   7.177114038
Ti       0.000000000  -0.000754809  14.354228076
Nb       1.460852678   0.843422063   7.184832300
Ti      -0.000653684   0.000377404   4.784742692
Nb      -1.460849756   0.843422063   7.169395776


     NEW-OLD atomic charge density approx. for the potential
     extrapolated charge   74.68183, renormalised to   74.00000

     total cpu time spent up to now is     7355.5 secs

     Self-consistent Calculation

     iteration #  1     ecut=    40.00 Ry     beta= 0.60
     Davidson diagonalization with overlap
     c_bands:  1 eigenvalues not converged
     c_bands:  1 eigenvalues not converged
     c_bands:  1 eigenvalues not converged
     c_bands:  1 eigenvalues not converged
     c_bands:  1 eigenvalues not converged
     c_bands:  1 eigenvalues not converged
     c_bands:  1 eigenvalues not converged
     ethr =  1.00E-06,  avg # of iterations = 11.2

     total cpu time spent up to now is     7406.4 secs

     total energy              =    -702.38567092 Ry
     Harris-Foulkes estimate   =    -701.11833694 Ry
     estimated scf accuracy    <       0.03963477 Ry

     iteration #  2     ecut=    40.00 Ry     beta= 0.60
     Davidson diagonalization with overlap
     ethr =  5.36E-05,  avg # of iterations =  5.9

     total cpu time spent up to now is     7446.6 secs

     total energy              =    -702.36920526 Ry
     Harris-Foulkes estimate   =    -702.51425473 Ry
     estimated scf accuracy    <       0.90199632 Ry

     iteration #  3     ecut=    40.00 Ry     beta= 0.60
     Davidson diagonalization with overlap
     ethr =  5.36E-05,  avg # of iterations =  5.4

     total cpu time spent up to now is     7481.3 secs

     total energy              =    -702.42246580 Ry
     Harris-Foulkes estimate   =    -702.44455941 Ry
     estimated scf accuracy    <       0.09157818 Ry

     iteration #  4     ecut=    40.00 Ry     beta= 0.60
     Davidson diagonalization with overlap
     ethr =  5.36E-05,  avg # of iterations =  5.6

     total cpu time spent up to now is     7511.9 secs

     total energy              =    -702.42826578 Ry
     Harris-Foulkes estimate   =    -702.44112603 Ry
     estimated scf accuracy    <       0.10519105 Ry

     iteration #  5     ecut=    40.00 Ry     beta= 0.60
     Davidson diagonalization with overlap
     ethr =  5.36E-05,  avg # of iterations =  3.4

     total cpu time spent up to now is     7533.2 secs

     total energy              =    -702.43149838 Ry
     Harris-Foulkes estimate   =    -702.43236986 Ry
     estimated scf accuracy    <       0.01717946 Ry

     iteration #  6     ecut=    40.00 Ry     beta= 0.60
     Davidson diagonalization with overlap
     ethr =  2.32E-05,  avg # of iterations =  4.5

     total cpu time spent up to now is     7557.5 secs

     total energy              =    -702.43167385 Ry
     Harris-Foulkes estimate   =    -702.43311145 Ry
     estimated scf accuracy    <       0.00986887 Ry

     iteration #  7     ecut=    40.00 Ry     beta= 0.60
     Davidson diagonalization with overlap
     ethr =  1.33E-05,  avg # of iterations =  2.0

     total cpu time spent up to now is     7577.3 secs

     total energy              =    -702.43158567 Ry
     Harris-Foulkes estimate   =    -702.43196362 Ry
     estimated scf accuracy    <       0.00489640 Ry

     iteration #  8     ecut=    40.00 Ry     beta= 0.60
     Davidson diagonalization with overlap
     ethr =  6.62E-06,  avg # of iterations =  3.0

     total cpu time spent up to now is     7598.6 secs

     total energy              =    -702.43137582 Ry
     Harris-Foulkes estimate   =    -702.43179753 Ry
     estimated scf accuracy    <       0.00263721 Ry

     iteration #  9     ecut=    40.00 Ry     beta= 0.60
     Davidson diagonalization with overlap
     ethr =  3.56E-06,  avg # of iterations =  3.9

     total cpu time spent up to now is     7621.5 secs

     total energy              =    -702.43151648 Ry
     Harris-Foulkes estimate   =    -702.43155000 Ry
     estimated scf accuracy    <       0.00060406 Ry

     iteration # 10     ecut=    40.00 Ry     beta= 0.60
     Davidson diagonalization with overlap
     c_bands:  1 eigenvalues not converged
     ethr =  8.16E-07,  avg # of iterations =  4.5

     total cpu time spent up to now is     7647.1 secs

     total energy              =    -702.43153640 Ry
     Harris-Foulkes estimate   =    -702.43159537 Ry
     estimated scf accuracy    <       0.00018444 Ry

     iteration # 11     ecut=    40.00 Ry     beta= 0.60
     Davidson diagonalization with overlap
     ethr =  2.49E-07,  avg # of iterations =  4.4

     total cpu time spent up to now is     7673.8 secs

     total energy              =    -702.43156898 Ry
     Harris-Foulkes estimate   =    -702.43157196 Ry
     estimated scf accuracy    <       0.00003417 Ry

     iteration # 12     ecut=    40.00 Ry     beta= 0.60
     Davidson diagonalization with overlap
     ethr =  4.62E-08,  avg # of iterations =  2.2

     total cpu time spent up to now is     7693.8 secs

     total energy              =    -702.43157053 Ry
     Harris-Foulkes estimate   =    -702.43157131 Ry
     estimated scf accuracy    <       0.00001410 Ry

     iteration # 13     ecut=    40.00 Ry     beta= 0.60
     Davidson diagonalization with overlap
     ethr =  1.91E-08,  avg # of iterations =  3.2

     total cpu time spent up to now is     7714.9 secs

     total energy              =    -702.43157071 Ry
     Harris-Foulkes estimate   =    -702.43157125 Ry
     estimated scf accuracy    <       0.00000795 Ry

     iteration # 14     ecut=    40.00 Ry     beta= 0.60
     Davidson diagonalization with overlap
     ethr =  1.07E-08,  avg # of iterations =  2.7

     total cpu time spent up to now is     7735.3 secs

     total energy              =    -702.43157078 Ry
     Harris-Foulkes estimate   =    -702.43157096 Ry
     estimated scf accuracy    <       0.00000456 Ry

     iteration # 15     ecut=    40.00 Ry     beta= 0.60
     Davidson diagonalization with overlap
     ethr =  6.16E-09,  avg # of iterations =  3.5

     total cpu time spent up to now is     7757.4 secs

     total energy              =    -702.43157073 Ry
     Harris-Foulkes estimate   =    -702.43157107 Ry
     estimated scf accuracy    <       0.00000280 Ry

     iteration # 16     ecut=    40.00 Ry     beta= 0.60
     Davidson diagonalization with overlap
     ethr =  3.78E-09,  avg # of iterations =  2.3

     total cpu time spent up to now is     7777.1 secs

     total energy              =    -702.43157059 Ry
     Harris-Foulkes estimate   =    -702.43157084 Ry
     estimated scf accuracy    <       0.00000109 Ry

     iteration # 17     ecut=    40.00 Ry     beta= 0.60
     Davidson diagonalization with overlap
     ethr =  1.47E-09,  avg # of iterations =  4.6

     total cpu time spent up to now is     7804.8 secs

     total energy              =    -702.43157082 Ry
     Harris-Foulkes estimate   =    -702.43157087 Ry
     estimated scf accuracy    <       0.00000037 Ry

     iteration # 18     ecut=    40.00 Ry     beta= 0.60
     Davidson diagonalization with overlap
     ethr =  5.01E-10,  avg # of iterations =  2.1

     total cpu time spent up to now is     7825.0 secs

     total energy              =    -702.43157082 Ry
     Harris-Foulkes estimate   =    -702.43157084 Ry
     estimated scf accuracy    <       0.00000012 Ry

     iteration # 19     ecut=    40.00 Ry     beta= 0.60
     Davidson diagonalization with overlap
     ethr =  1.58E-10,  avg # of iterations =  4.4

     total cpu time spent up to now is     7852.3 secs

     total energy              =    -702.43157084 Ry
     Harris-Foulkes estimate   =    -702.43157084 Ry
     estimated scf accuracy    <       0.00000003 Ry

     iteration # 20     ecut=    40.00 Ry     beta= 0.60
     Davidson diagonalization with overlap
     ethr =  3.48E-11,  avg # of iterations =  1.6

     total cpu time spent up to now is     7871.8 secs

     total energy              =    -702.43157084 Ry
     Harris-Foulkes estimate   =    -702.43157084 Ry
     estimated scf accuracy    <       0.00000002 Ry

     iteration # 21     ecut=    40.00 Ry     beta= 0.60
     Davidson diagonalization with overlap
     ethr =  2.14E-11,  avg # of iterations =  2.4

     total cpu time spent up to now is     7892.2 secs

     total energy              =    -702.43157084 Ry
     Harris-Foulkes estimate   =    -702.43157084 Ry
     estimated scf accuracy    <          3.9E-09 Ry

     iteration # 22     ecut=    40.00 Ry     beta= 0.60
     Davidson diagonalization with overlap
     ethr =  5.29E-12,  avg # of iterations =  4.3

     total cpu time spent up to now is     7918.4 secs

     total energy              =    -702.43157084 Ry
     Harris-Foulkes estimate   =    -702.43157084 Ry
     estimated scf accuracy    <          3.0E-10 Ry

     iteration # 23     ecut=    40.00 Ry     beta= 0.60
     Davidson diagonalization with overlap
     ethr =  4.07E-13,  avg # of iterations =  4.6

     total cpu time spent up to now is     7946.5 secs

     End of self-consistent calculation

     Number of k-points >= 100: set verbosity='high' to print the bands.

     the Fermi energy is    14.9846 ev

!    total energy              =    -702.43157084 Ry
     Harris-Foulkes estimate   =    -702.43157084 Ry
     estimated scf accuracy    <          1.7E-11 Ry

     The total energy is the sum of the following terms:

     one-electron contribution =    -199.97552044 Ry
     hartree contribution      =     128.19291743 Ry
     xc contribution           =     -94.93694241 Ry
     ewald contribution        =    -535.70786403 Ry
     smearing contrib. (-TS)   =      -0.00416139 Ry

     convergence has been achieved in  23 iterations

     Forces acting on atoms (cartesian axes, Ry/au):

     atom    1 type  2   force =    -0.00095794   -0.00055307    0.00000000
     atom    2 type  2   force =     0.00000000   -0.00000000   -0.00000000
     atom    3 type  2   force =     0.00000000    0.00110613    0.00000000
     atom    4 type  1   force =     0.00000000    0.00000000    0.00432458
     atom    5 type  2   force =     0.00095794   -0.00055307    0.00000000
     atom    6 type  1   force =     0.00000000    0.00000000   -0.00432458

     Total force =     0.006409     Total SCF correction =     0.000002


     Computing stress (Cartesian axis) and pressure

          total   stress  (Ry/bohr**3)                   (kbar)     P=   -0.53
  -0.00001640   0.00000000  -0.00000000         -2.41      0.00     -0.00
  -0.00000000  -0.00001640   0.00000000         -0.00     -2.41      0.00
   0.00000000  -0.00000000   0.00002190          0.00     -0.00      3.22


     number of scf cycles    =   4
     number of bfgs steps    =   3

     enthalpy old            =    -702.4312373750 Ry
     enthalpy new            =    -702.4315708375 Ry

     CASE: enthalpy_new < enthalpy_old

     new trust radius        =       0.0044797883 bohr
     new conv_thr            =            1.0E-10 Ry

     new unit-cell volume =    716.24883 a.u.^3 (   106.13712 Ang^3 )
     density =      5.90264 g/cm^3

CELL_PARAMETERS (alat=  1.88972599)
   2.920871192  -0.000000000   4.788402914
  -1.460435596   2.529548843   4.788402914
  -1.460435596  -2.529548843   4.788402914

ATOMIC_POSITIONS (angstrom)
Ti       0.000129523   0.000074780   9.576805829
Ti       0.000001461  -1.686366738   7.182604372
Ti       0.000000000  -0.000149560  14.365208743
Nb       1.460437057   0.843182104   7.192700953
Ti      -0.000129523   0.000074780   4.788402914
Nb      -1.460434135   0.843182104   7.172507790


     NEW-OLD atomic charge density approx. for the potential
     extrapolated charge   74.01369, renormalised to   74.00000

     total cpu time spent up to now is     7957.5 secs

     Self-consistent Calculation

     iteration #  1     ecut=    40.00 Ry     beta= 0.60
     Davidson diagonalization with overlap
     ethr =  1.00E-06,  avg # of iterations =  3.0

     Threshold (ethr) on eigenvalues was too large:
     Diagonalizing with lowered threshold

     Davidson diagonalization with overlap
     ethr =  1.93E-08,  avg # of iterations =  5.5

     total cpu time spent up to now is     8018.5 secs

     total energy              =    -702.43161353 Ry
     Harris-Foulkes estimate   =    -702.40511518 Ry
     estimated scf accuracy    <       0.00001628 Ry

     iteration #  2     ecut=    40.00 Ry     beta= 0.60
     Davidson diagonalization with overlap
     ethr =  2.20E-08,  avg # of iterations =  5.1

     total cpu time spent up to now is     8058.1 secs

     total energy              =    -702.43161724 Ry
     Harris-Foulkes estimate   =    -702.43164753 Ry
     estimated scf accuracy    <       0.00013483 Ry

     iteration #  3     ecut=    40.00 Ry     beta= 0.60
     Davidson diagonalization with overlap
     ethr =  2.20E-08,  avg # of iterations =  5.1

     total cpu time spent up to now is     8088.9 secs

     total energy              =    -702.43162729 Ry
     Harris-Foulkes estimate   =    -702.43163566 Ry
     estimated scf accuracy    <       0.00003267 Ry

     iteration #  4     ecut=    40.00 Ry     beta= 0.60
     Davidson diagonalization with overlap
     ethr =  2.20E-08,  avg # of iterations =  3.7

     total cpu time spent up to now is     8114.0 secs

     total energy              =    -702.43163053 Ry
     Harris-Foulkes estimate   =    -702.43163160 Ry
     estimated scf accuracy    <       0.00000990 Ry

     iteration #  5     ecut=    40.00 Ry     beta= 0.60
     Davidson diagonalization with overlap
     ethr =  1.34E-08,  avg # of iterations =  2.0

     total cpu time spent up to now is     8133.8 secs

     total energy              =    -702.43162965 Ry
     Harris-Foulkes estimate   =    -702.43163109 Ry
     estimated scf accuracy    <       0.00000367 Ry

     iteration #  6     ecut=    40.00 Ry     beta= 0.60
     Davidson diagonalization with overlap
     ethr =  4.96E-09,  avg # of iterations =  4.6

     total cpu time spent up to now is     8161.3 secs

     total energy              =    -702.43163038 Ry
     Harris-Foulkes estimate   =    -702.43163059 Ry
     estimated scf accuracy    <       0.00000217 Ry

     iteration #  7     ecut=    40.00 Ry     beta= 0.60
     Davidson diagonalization with overlap
     ethr =  2.93E-09,  avg # of iterations =  1.0

     total cpu time spent up to now is     8180.1 secs

     total energy              =    -702.43163034 Ry
     Harris-Foulkes estimate   =    -702.43163044 Ry
     estimated scf accuracy    <       0.00000075 Ry

     iteration #  8     ecut=    40.00 Ry     beta= 0.60
     Davidson diagonalization with overlap
     ethr =  1.01E-09,  avg # of iterations =  3.5

     total cpu time spent up to now is     8203.5 secs

     total energy              =    -702.43163041 Ry
     Harris-Foulkes estimate   =    -702.43163041 Ry
     estimated scf accuracy    <       0.00000002 Ry

     iteration #  9     ecut=    40.00 Ry     beta= 0.60
     Davidson diagonalization with overlap
     ethr =  2.15E-11,  avg # of iterations =  5.5

     total cpu time spent up to now is     8235.5 secs

     total energy              =    -702.43163041 Ry
     Harris-Foulkes estimate   =    -702.43163041 Ry
     estimated scf accuracy    <       0.00000003 Ry

     iteration # 10     ecut=    40.00 Ry     beta= 0.60
     Davidson diagonalization with overlap
     ethr =  2.15E-11,  avg # of iterations =  3.3

     total cpu time spent up to now is     8257.0 secs

     total energy              =    -702.43163041 Ry
     Harris-Foulkes estimate   =    -702.43163041 Ry
     estimated scf accuracy    <          1.7E-09 Ry

     iteration # 11     ecut=    40.00 Ry     beta= 0.60
     Davidson diagonalization with overlap
     ethr =  2.31E-12,  avg # of iterations =  5.5

     total cpu time spent up to now is     8287.6 secs

     total energy              =    -702.43163041 Ry
     Harris-Foulkes estimate   =    -702.43163041 Ry
     estimated scf accuracy    <          1.1E-09 Ry

     iteration # 12     ecut=    40.00 Ry     beta= 0.60
     Davidson diagonalization with overlap
     ethr =  1.55E-12,  avg # of iterations =  1.0

     total cpu time spent up to now is     8306.4 secs

     total energy              =    -702.43163041 Ry
     Harris-Foulkes estimate   =    -702.43163041 Ry
     estimated scf accuracy    <          6.4E-10 Ry

     iteration # 13     ecut=    40.00 Ry     beta= 0.60
     Davidson diagonalization with overlap
     ethr =  8.71E-13,  avg # of iterations =  3.9

     total cpu time spent up to now is     8330.6 secs

     End of self-consistent calculation

     Number of k-points >= 100: set verbosity='high' to print the bands.

     the Fermi energy is    14.9802 ev

!    total energy              =    -702.43163041 Ry
     Harris-Foulkes estimate   =    -702.43163041 Ry
     estimated scf accuracy    <          9.5E-11 Ry

     The total energy is the sum of the following terms:

     one-electron contribution =    -200.02871692 Ry
     hartree contribution      =     128.20937935 Ry
     xc contribution           =     -94.93602572 Ry
     ewald contribution        =    -535.67217156 Ry
     smearing contrib. (-TS)   =      -0.00409557 Ry

     convergence has been achieved in  13 iterations

     Forces acting on atoms (cartesian axes, Ry/au):

     atom    1 type  2   force =    -0.00112403   -0.00064896    0.00000000
     atom    2 type  2   force =     0.00000000    0.00000000    0.00000000
     atom    3 type  2   force =     0.00000000    0.00129792    0.00000000
     atom    4 type  1   force =     0.00000000    0.00000000    0.00431738
     atom    5 type  2   force =     0.00112403   -0.00064896   -0.00000000
     atom    6 type  1   force =     0.00000000    0.00000000   -0.00431738

     Total force =     0.006506     Total SCF correction =     0.000004


     Computing stress (Cartesian axis) and pressure

          total   stress  (Ry/bohr**3)                   (kbar)     P=   -0.87
  -0.00001630   0.00000000   0.00000000         -2.40      0.00      0.00
  -0.00000000  -0.00001630  -0.00000000         -0.00     -2.40     -0.00
  -0.00000000   0.00000000   0.00001482         -0.00      0.00      2.18


     number of scf cycles    =   5
     number of bfgs steps    =   4

     enthalpy old            =    -702.4315708375 Ry
     enthalpy new            =    -702.4316304121 Ry

     CASE: enthalpy_new < enthalpy_old


     WARNING: bfgs curvature condition failed, Theta= 0.846
     new trust radius        =       0.0049315368 bohr
     new conv_thr            =            1.0E-10 Ry

     new unit-cell volume =    716.28734 a.u.^3 (   106.14283 Ang^3 )
     density =      5.90232 g/cm^3

CELL_PARAMETERS (alat=  1.88972599)
   2.919899807  -0.000000000   4.791847055
  -1.459949903   2.528707598   4.791847055
  -1.459949903  -2.528707598   4.791847055

ATOMIC_POSITIONS (angstrom)
Ti      -0.000493805  -0.000285098   9.583694111
Ti       0.000001460  -1.685805908   7.187770583
Ti      -0.000000000   0.000570197  14.375541166
Nb       1.459951364   0.842901690   7.200485961
Ti       0.000493805  -0.000285098   4.791847055
Nb      -1.459948443   0.842901690   7.175055206


     NEW-OLD atomic charge density approx. for the potential
     extrapolated charge   74.00376, renormalised to   74.00000

     total cpu time spent up to now is     8341.5 secs

     Self-consistent Calculation

     iteration #  1     ecut=    40.00 Ry     beta= 0.60
     Davidson diagonalization with overlap
     ethr =  1.00E-06,  avg # of iterations =  3.0

     Threshold (ethr) on eigenvalues was too large:
     Diagonalizing with lowered threshold

     Davidson diagonalization with overlap
     ethr =  8.03E-09,  avg # of iterations =  6.3

     total cpu time spent up to now is     8409.2 secs

     total energy              =    -702.43168984 Ry
     Harris-Foulkes estimate   =    -702.42440279 Ry
     estimated scf accuracy    <       0.00000576 Ry

     iteration #  2     ecut=    40.00 Ry     beta= 0.60
     Davidson diagonalization with overlap
     ethr =  7.78E-09,  avg # of iterations =  4.8

     total cpu time spent up to now is     8440.9 secs

     total energy              =    -702.43168716 Ry
     Harris-Foulkes estimate   =    -702.43169511 Ry
     estimated scf accuracy    <       0.00003213 Ry

     iteration #  3     ecut=    40.00 Ry     beta= 0.60
     Davidson diagonalization with overlap
     ethr =  7.78E-09,  avg # of iterations =  5.1

     total cpu time spent up to now is     8471.5 secs

     total energy              =    -702.43168984 Ry
     Harris-Foulkes estimate   =    -702.43169498 Ry
     estimated scf accuracy    <       0.00003935 Ry

     iteration #  4     ecut=    40.00 Ry     beta= 0.60
     Davidson diagonalization with overlap
     ethr =  7.78E-09,  avg # of iterations =  4.3

     total cpu time spent up to now is     8499.3 secs

     total energy              =    -702.43169166 Ry
     Harris-Foulkes estimate   =    -702.43169275 Ry
     estimated scf accuracy    <       0.00000542 Ry

     iteration #  5     ecut=    40.00 Ry     beta= 0.60
     Davidson diagonalization with overlap
     ethr =  7.32E-09,  avg # of iterations =  3.4

     total cpu time spent up to now is     8520.9 secs

     total energy              =    -702.43169219 Ry
     Harris-Foulkes estimate   =    -702.43169219 Ry
[...]
     Starting wfcs are   66 randomized atomic wfcs

     total cpu time spent up to now is    19611.7 secs

     Self-consistent Calculation

     iteration #  1     ecut=    40.00 Ry     beta= 0.60
     Davidson diagonalization with overlap
     c_bands:  1 eigenvalues not converged
     c_bands:  2 eigenvalues not converged
     c_bands:  4 eigenvalues not converged
     c_bands:  2 eigenvalues not converged
     c_bands:  1 eigenvalues not converged
     c_bands:  2 eigenvalues not converged
     c_bands:  1 eigenvalues not converged
     c_bands:  3 eigenvalues not converged
     c_bands:  3 eigenvalues not converged
     c_bands:  3 eigenvalues not converged
     c_bands:  2 eigenvalues not converged
     c_bands:  3 eigenvalues not converged
     c_bands:  2 eigenvalues not converged
     c_bands:  2 eigenvalues not converged
     c_bands:  2 eigenvalues not converged
     c_bands:  1 eigenvalues not converged
     c_bands:  3 eigenvalues not converged
     c_bands:  2 eigenvalues not converged
     c_bands:  1 eigenvalues not converged
     c_bands:  3 eigenvalues not converged
     c_bands:  2 eigenvalues not converged
     c_bands:  1 eigenvalues not converged
     c_bands:  2 eigenvalues not converged
     c_bands:  2 eigenvalues not converged
     c_bands:  1 eigenvalues not converged
     c_bands:  1 eigenvalues not converged
     c_bands:  2 eigenvalues not converged
     c_bands:  1 eigenvalues not converged
     c_bands:  1 eigenvalues not converged
     c_bands:  1 eigenvalues not converged
     c_bands:  1 eigenvalues not converged
     c_bands:  2 eigenvalues not converged
     c_bands:  1 eigenvalues not converged
     c_bands:  1 eigenvalues not converged
     c_bands:  1 eigenvalues not converged
     c_bands:  1 eigenvalues not converged
     c_bands:  1 eigenvalues not converged
     c_bands:  3 eigenvalues not converged
     c_bands:  3 eigenvalues not converged
     c_bands:  2 eigenvalues not converged
     c_bands:  3 eigenvalues not converged
     c_bands:  1 eigenvalues not converged
     c_bands:  1 eigenvalues not converged
     c_bands:  1 eigenvalues not converged
     c_bands:  3 eigenvalues not converged
     c_bands:  2 eigenvalues not converged
     c_bands:  2 eigenvalues not converged
     c_bands:  1 eigenvalues not converged
     c_bands:  2 eigenvalues not converged
     c_bands:  2 eigenvalues not converged
     c_bands:  1 eigenvalues not converged
     c_bands:  1 eigenvalues not converged
     c_bands:  2 eigenvalues not converged
     c_bands:  1 eigenvalues not converged
     c_bands:  1 eigenvalues not converged
     c_bands:  3 eigenvalues not converged
     c_bands:  1 eigenvalues not converged
     c_bands:  1 eigenvalues not converged
     c_bands:  1 eigenvalues not converged
     c_bands:  1 eigenvalues not converged
     c_bands:  1 eigenvalues not converged
     c_bands:  1 eigenvalues not converged
     c_bands:  1 eigenvalues not converged
     c_bands:  1 eigenvalues not converged
     c_bands:  1 eigenvalues not converged
     c_bands:  1 eigenvalues not converged
     c_bands:  1 eigenvalues not converged
     c_bands:  1 eigenvalues not converged
     c_bands:  1 eigenvalues not converged
     c_bands:  1 eigenvalues not converged
     c_bands:  1 eigenvalues not converged
     c_bands:  1 eigenvalues not converged
     c_bands:  1 eigenvalues not converged
     c_bands:  2 eigenvalues not converged
     c_bands:  2 eigenvalues not converged
     c_bands:  1 eigenvalues not converged
     c_bands:  1 eigenvalues not converged
     c_bands:  1 eigenvalues not converged
     c_bands:  1 eigenvalues not converged
     c_bands:  1 eigenvalues not converged
     c_bands:  1 eigenvalues not converged
     c_bands:  1 eigenvalues not converged
     c_bands:  1 eigenvalues not converged
     c_bands:  2 eigenvalues not converged
     c_bands:  2 eigenvalues not converged
     c_bands:  1 eigenvalues not converged
     c_bands:  1 eigenvalues not converged
     c_bands:  1 eigenvalues not converged
     c_bands:  1 eigenvalues not converged
     c_bands:  2 eigenvalues not converged
     c_bands:  2 eigenvalues not converged
     c_bands:  1 eigenvalues not converged
     c_bands:  1 eigenvalues not converged
     c_bands:  1 eigenvalues not converged
     c_bands:  1 eigenvalues not converged
     c_bands:  1 eigenvalues not converged
     c_bands:  1 eigenvalues not converged
     c_bands:  1 eigenvalues not converged
     c_bands:  1 eigenvalues not converged
     c_bands:  1 eigenvalues not converged
     c_bands:  1 eigenvalues not converged
     c_bands:  1 eigenvalues not converged
     c_bands:  1 eigenvalues not converged
     c_bands:  1 eigenvalues not converged
     c_bands:  1 eigenvalues not converged
     c_bands:  1 eigenvalues not converged
     c_bands:  1 eigenvalues not converged
     c_bands:  1 eigenvalues not converged
     c_bands:  2 eigenvalues not converged
     c_bands:  1 eigenvalues not converged
     c_bands:  1 eigenvalues not converged
     c_bands:  1 eigenvalues not converged
     c_bands:  1 eigenvalues not converged
     c_bands:  1 eigenvalues not converged
     c_bands:  1 eigenvalues not converged
     c_bands:  1 eigenvalues not converged
     c_bands:  1 eigenvalues not converged
     c_bands:  1 eigenvalues not converged
     c_bands:  1 eigenvalues not converged
     c_bands:  1 eigenvalues not converged
     c_bands:  1 eigenvalues not converged
     c_bands:  1 eigenvalues not converged
     c_bands:  1 eigenvalues not converged
     c_bands:  1 eigenvalues not converged
     c_bands:  1 eigenvalues not converged
     c_bands:  1 eigenvalues not converged
     c_bands:  1 eigenvalues not converged
     c_bands:  1 eigenvalues not converged
     c_bands:  1 eigenvalues not converged
     c_bands:  1 eigenvalues not converged
     ethr =  1.00E-06,  avg # of iterations = 19.0

     total cpu time spent up to now is    19691.9 secs

     total energy              =    -696.28420628 Ry
     Harris-Foulkes estimate   =    -704.66532245 Ry
     estimated scf accuracy    <      10.77402748 Ry

     iteration #  2     ecut=    40.00 Ry     beta= 0.60
     Davidson diagonalization with overlap
     ethr =  1.00E-02,  avg # of iterations =  5.0

     total cpu time spent up to now is    19726.6 secs

     total energy              =    -697.16631883 Ry
     Harris-Foulkes estimate   =    -715.83203168 Ry
     estimated scf accuracy    <      61.93328046 Ry

     iteration #  3     ecut=    40.00 Ry     beta= 0.60
     Davidson diagonalization with overlap
     ethr =  1.00E-02,  avg # of iterations =  4.8

     total cpu time spent up to now is    19756.3 secs

     total energy              =    -702.17268073 Ry
     Harris-Foulkes estimate   =    -702.84125028 Ry
     estimated scf accuracy    <       8.24755646 Ry

     iteration #  4     ecut=    40.00 Ry     beta= 0.60
     Davidson diagonalization with overlap
     ethr =  1.00E-02,  avg # of iterations =  1.5

     total cpu time spent up to now is    19774.7 secs

     total energy              =    -702.35410566 Ry
     Harris-Foulkes estimate   =    -702.44119595 Ry
     estimated scf accuracy    <       1.56448457 Ry

     iteration #  5     ecut=    40.00 Ry     beta= 0.60
     Davidson diagonalization with overlap
     ethr =  2.11E-03,  avg # of iterations =  4.7

     total cpu time spent up to now is    19798.1 secs

     total energy              =    -702.46931087 Ry
     Harris-Foulkes estimate   =    -702.48049072 Ry
     estimated scf accuracy    <       0.55208236 Ry

     iteration #  6     ecut=    40.00 Ry     beta= 0.60
     Davidson diagonalization with overlap
     ethr =  7.46E-04,  avg # of iterations =  3.9

     total cpu time spent up to now is    19821.1 secs

     total energy              =    -702.44771418 Ry
     Harris-Foulkes estimate   =    -702.52762207 Ry
     estimated scf accuracy    <       0.86692276 Ry

     iteration #  7     ecut=    40.00 Ry     beta= 0.60
     Davidson diagonalization with overlap
     ethr =  7.46E-04,  avg # of iterations =  1.1

     total cpu time spent up to now is    19838.9 secs

     total energy              =    -702.42924007 Ry
     Harris-Foulkes estimate   =    -702.46495215 Ry
     estimated scf accuracy    <       0.50625787 Ry

     iteration #  8     ecut=    40.00 Ry     beta= 0.60
     Davidson diagonalization with overlap
     ethr =  6.84E-04,  avg # of iterations =  1.3

     total cpu time spent up to now is    19856.9 secs

     total energy              =    -702.42544063 Ry
     Harris-Foulkes estimate   =    -702.43939333 Ry
     estimated scf accuracy    <       0.22131179 Ry

     iteration #  9     ecut=    40.00 Ry     beta= 0.60
     Davidson diagonalization with overlap
     ethr =  2.99E-04,  avg # of iterations =  4.5

     total cpu time spent up to now is    19879.2 secs

     total energy              =    -702.43029388 Ry
     Harris-Foulkes estimate   =    -702.43369831 Ry
     estimated scf accuracy    <       0.07003445 Ry

     iteration # 10     ecut=    40.00 Ry     beta= 0.60
     Davidson diagonalization with overlap
     ethr =  9.46E-05,  avg # of iterations =  6.8

     total cpu time spent up to now is    19909.2 secs

     total energy              =    -702.43835075 Ry
     Harris-Foulkes estimate   =    -702.43773787 Ry
     estimated scf accuracy    <       0.00880720 Ry

     iteration # 11     ecut=    40.00 Ry     beta= 0.60
     Davidson diagonalization with overlap
     c_bands:  1 eigenvalues not converged
     c_bands:  1 eigenvalues not converged
     ethr =  1.19E-05,  avg # of iterations =  5.1

     total cpu time spent up to now is    19934.3 secs

     total energy              =    -702.43898494 Ry
     Harris-Foulkes estimate   =    -702.43942637 Ry
     estimated scf accuracy    <       0.02392310 Ry

     iteration # 12     ecut=    40.00 Ry     beta= 0.60
     Davidson diagonalization with overlap
     ethr =  1.19E-05,  avg # of iterations =  1.5

     total cpu time spent up to now is    19952.8 secs

     total energy              =    -702.43630095 Ry
     Harris-Foulkes estimate   =    -702.43930052 Ry
     estimated scf accuracy    <       0.02293857 Ry

     iteration # 13     ecut=    40.00 Ry     beta= 0.60
     Davidson diagonalization with overlap
     ethr =  1.19E-05,  avg # of iterations =  2.8

     total cpu time spent up to now is    19972.6 secs

     total energy              =    -702.43684074 Ry
     Harris-Foulkes estimate   =    -702.43712171 Ry
     estimated scf accuracy    <       0.00398424 Ry

     iteration # 14     ecut=    40.00 Ry     beta= 0.60
     Davidson diagonalization with overlap
     c_bands:  1 eigenvalues not converged
     ethr =  5.38E-06,  avg # of iterations =  5.0

     total cpu time spent up to now is    19996.9 secs

     total energy              =    -702.43708066 Ry
     Harris-Foulkes estimate   =    -702.43713604 Ry
     estimated scf accuracy    <       0.00048663 Ry

     iteration # 15     ecut=    40.00 Ry     beta= 0.60
     Davidson diagonalization with overlap
     ethr =  6.58E-07,  avg # of iterations =  5.7

     total cpu time spent up to now is    20025.9 secs

     total energy              =    -702.43718243 Ry
     Harris-Foulkes estimate   =    -702.43717959 Ry
     estimated scf accuracy    <       0.00000936 Ry

     iteration # 16     ecut=    40.00 Ry     beta= 0.60
     Davidson diagonalization with overlap
     ethr =  1.27E-08,  avg # of iterations =  5.4

     total cpu time spent up to now is    20058.8 secs

     total energy              =    -702.43716907 Ry
     Harris-Foulkes estimate   =    -702.43719405 Ry
     estimated scf accuracy    <       0.00015744 Ry

     iteration # 17     ecut=    40.00 Ry     beta= 0.60
     Davidson diagonalization with overlap
     ethr =  1.27E-08,  avg # of iterations =  5.1

     total cpu time spent up to now is    20088.5 secs

     total energy              =    -702.43718103 Ry
     Harris-Foulkes estimate   =    -702.43718142 Ry
     estimated scf accuracy    <       0.00000187 Ry

     iteration # 18     ecut=    40.00 Ry     beta= 0.60
     Davidson diagonalization with overlap
     ethr =  2.53E-09,  avg # of iterations =  4.0

     total cpu time spent up to now is    20113.6 secs

     total energy              =    -702.43718112 Ry
     Harris-Foulkes estimate   =    -702.43718151 Ry
     estimated scf accuracy    <       0.00000284 Ry

     iteration # 19     ecut=    40.00 Ry     beta= 0.60
     Davidson diagonalization with overlap
     ethr =  2.53E-09,  avg # of iterations =  1.0

     total cpu time spent up to now is    20131.5 secs

     total energy              =    -702.43718117 Ry
     Harris-Foulkes estimate   =    -702.43718123 Ry
     estimated scf accuracy    <       0.00000054 Ry

     iteration # 20     ecut=    40.00 Ry     beta= 0.60
     Davidson diagonalization with overlap
     ethr =  7.32E-10,  avg # of iterations =  4.1

     total cpu time spent up to now is    20156.7 secs

     total energy              =    -702.43718127 Ry
     Harris-Foulkes estimate   =    -702.43718127 Ry
     estimated scf accuracy    <       0.00000002 Ry

     iteration # 21     ecut=    40.00 Ry     beta= 0.60
     Davidson diagonalization with overlap
     ethr =  2.91E-11,  avg # of iterations =  4.2

     total cpu time spent up to now is    20182.1 secs

     total energy              =    -702.43718127 Ry
     Harris-Foulkes estimate   =    -702.43718127 Ry
     estimated scf accuracy    <       0.00000005 Ry

     iteration # 22     ecut=    40.00 Ry     beta= 0.60
     Davidson diagonalization with overlap
     ethr =  2.91E-11,  avg # of iterations =  1.0

     total cpu time spent up to now is    20200.0 secs

     total energy              =    -702.43718127 Ry
     Harris-Foulkes estimate   =    -702.43718127 Ry
     estimated scf accuracy    <       0.00000001 Ry

     iteration # 23     ecut=    40.00 Ry     beta= 0.60
     Davidson diagonalization with overlap
     ethr =  1.81E-11,  avg # of iterations =  3.8

     total cpu time spent up to now is    20222.7 secs

     total energy              =    -702.43718127 Ry
     Harris-Foulkes estimate   =    -702.43718127 Ry
     estimated scf accuracy    <          2.3E-11 Ry

     iteration # 24     ecut=    40.00 Ry     beta= 0.60
     Davidson diagonalization with overlap
     ethr =  1.00E-13,  avg # of iterations =  5.9

     total cpu time spent up to now is    20257.9 secs

     total energy              =    -702.43718127 Ry
     Harris-Foulkes estimate   =    -702.43718127 Ry
     estimated scf accuracy    <          1.1E-10 Ry

     iteration # 25     ecut=    40.00 Ry     beta= 0.60
     Davidson diagonalization with overlap
     ethr =  1.00E-13,  avg # of iterations =  1.0

     total cpu time spent up to now is    20275.6 secs

     total energy              =    -702.43718127 Ry
     Harris-Foulkes estimate   =    -702.43718127 Ry
     estimated scf accuracy    <          4.0E-11 Ry

     iteration # 26     ecut=    40.00 Ry     beta= 0.60
     Davidson diagonalization with overlap
     ethr =  1.00E-13,  avg # of iterations =  3.0

     total cpu time spent up to now is    20297.4 secs

     total energy              =    -702.43718127 Ry
     Harris-Foulkes estimate   =    -702.43718127 Ry
     estimated scf accuracy    <          9.7E-12 Ry

     iteration # 27     ecut=    40.00 Ry     beta= 0.60
     Davidson diagonalization with overlap
     ethr =  1.00E-13,  avg # of iterations =  1.0

     total cpu time spent up to now is    20315.4 secs

     End of self-consistent calculation

     Number of k-points >= 100: set verbosity='high' to print the bands.

     the Fermi energy is    14.9303 ev

!    total energy              =    -702.43718127 Ry
     Harris-Foulkes estimate   =    -702.43718127 Ry
     estimated scf accuracy    <          5.8E-13 Ry

     The total energy is the sum of the following terms:

     one-electron contribution =    -201.47097201 Ry
     hartree contribution      =     129.15184362 Ry
     xc contribution           =     -94.96770511 Ry
     ewald contribution        =    -535.14911105 Ry
     smearing contrib. (-TS)   =      -0.00123672 Ry

     convergence has been achieved in  27 iterations

     Forces acting on atoms (cartesian axes, Ry/au):

     atom    1 type  2   force =     0.00008658    0.00004999   -0.00000000
     atom    2 type  2   force =     0.00000000    0.00000000    0.00000000
     atom    3 type  2   force =    -0.00000000   -0.00009998    0.00000000
     atom    4 type  1   force =    -0.00000000    0.00000000    0.00008775
     atom    5 type  2   force =    -0.00008658    0.00004999    0.00000000
     atom    6 type  1   force =     0.00000000    0.00000000   -0.00008775

     Total force =     0.000213     Total SCF correction =     0.000001


     Computing stress (Cartesian axis) and pressure

          total   stress  (Ry/bohr**3)                   (kbar)     P=   -5.12
  -0.00003134  -0.00000000   0.00000000         -4.61     -0.00      0.00
  -0.00000000  -0.00003134   0.00000000         -0.00     -4.61      0.00
   0.00000000   0.00000000  -0.00004184          0.00      0.00     -6.15

 
     init_run     :     32.00s CPU     75.24s WALL (       2 calls)
     electrons    :  14960.61s CPU  19794.20s WALL (      33 calls)
     update_pot   :     42.34s CPU     45.96s WALL (      31 calls)
     forces       :     82.23s CPU     85.62s WALL (      33 calls)
     stress       :    206.69s CPU    216.38s WALL (      33 calls)

     Called by init_run:
     wfcinit      :     29.46s CPU     45.94s WALL (       2 calls)
     potinit      :      0.97s CPU     12.67s WALL (       2 calls)
     hinit0       :      1.25s CPU     16.19s WALL (       2 calls)

     Called by electrons:
     c_bands      :  12876.31s CPU  16506.58s WALL (     569 calls)
     sum_band     :   1963.58s CPU   2038.72s WALL (     569 calls)
     v_of_rho     :     28.12s CPU     28.35s WALL (     594 calls)
     newd         :     94.05s CPU    145.91s WALL (     594 calls)
     mix_rho      :      3.16s CPU      3.19s WALL (     569 calls)

     Called by c_bands:
     init_us_2    :    136.52s CPU    138.28s WALL (  227934 calls)
     cegterg      :  12009.99s CPU  12183.55s WALL (  107541 calls)

     Called by sum_band:
     sum_band:bec :      4.33s CPU      4.41s WALL (  107541 calls)
     addusdens    :    112.25s CPU    158.52s WALL (     569 calls)

     Called by *egterg:
     h_psi        :   8305.18s CPU   8456.13s WALL (  529705 calls)
     s_psi        :    324.35s CPU    326.13s WALL (  529705 calls)
     g_psi        :     56.17s CPU     57.35s WALL (  421786 calls)
     cdiaghg      :   2122.19s CPU   2132.87s WALL (  521956 calls)

     Called by h_psi:
     h_psi:pot    :   8283.07s CPU   8432.91s WALL (  529705 calls)
     h_psi:calbec :    354.97s CPU    358.00s WALL (  529705 calls)
     vloc_psi     :   7600.29s CPU   7744.43s WALL (  529705 calls)
     add_vuspsi   :    325.76s CPU    327.53s WALL (  529705 calls)

     General routines
     calbec       :    507.16s CPU    510.76s WALL (  668431 calls)
     fft          :     17.40s CPU     17.63s WALL (    8553 calls)
     ffts         :      0.61s CPU      0.63s WALL (    1163 calls)
     fftw         :   8257.72s CPU   8415.35s WALL (30278962 calls)
     interpolate  :      1.61s CPU      1.61s WALL (     594 calls)
 
     Parallel routines
     fft_scatt_xy :   1582.84s CPU   1599.48s WALL (30288678 calls)
     fft_scatt_yz :   1503.99s CPU   1514.90s WALL (30288678 calls)
 
     PWSCF        :     4h15m CPU       15h 5m WALL

      38h
 
   This run was terminated on:   2:47:36  27Jan2020            

=------------------------------------------------------------------------------=
   JOB DONE.
=------------------------------------------------------------------------------=
