
     Program PWSCF v.6.0 (svn rev. 13079) starts on 30Apr2018 at 10:51:22 

     This program is part of the open-source Quantum ESPRESSO suite
     for quantum simulation of materials; please cite
         "P. Giannozzi et al., J. Phys.:Condens. Matter 21 395502 (2009);
          URL http://www.quantum-espresso.org", 
     in publications or presentations arising from this work. More details at
     http://www.quantum-espresso.org/quote

     Parallel version (MPI), running on     4 processors
     R & G space division:  proc/nbgrp/npool/nimage =       4
     Waiting for input...
     Reading input from standard input

     Current dimensions of program PWSCF are:
     Max number of different atomic species (ntypx) = 10
     Max number of k-points (npk) =  40000
     Max angular momentum in pseudopotentials (lmaxx) =  3

     Subspace diagonalization in iterative solution of the eigenvalue problem:
     a serial algorithm will be used


     Parallelization info
     --------------------
     sticks:   dense  smooth     PW     G-vecs:    dense   smooth      PW
     Min         861     343    115                18208     4601     910
     Max         862     344    116                18209     4602     911
     Sum        3447    1375    463                72835    18407    3643



     bravais-lattice index     =            0
     lattice parameter (alat)  =       1.8897  a.u.
     unit-cell volume          =     538.8952 (a.u.)^3
     number of atoms/cell      =            4
     number of atomic types    =            2
     number of electrons       =        50.00
     number of Kohn-Sham states=           30
     kinetic-energy cutoff     =      40.0000  Ry
     charge density cutoff     =     400.0000  Ry
     convergence threshold     =      1.0E-10
     mixing beta               =       0.6000
     number of iterations used =            8  plain     mixing
     Exchange-correlation      = SLA  PW   PBE  PBE ( 1  4  3  4 0 0)
     nstep                     =           50


     celldm(1)=   1.889726  celldm(2)=   0.000000  celldm(3)=   0.000000
     celldm(4)=   0.000000  celldm(5)=   0.000000  celldm(6)=   0.000000

     crystal axes: (cart. coord. in units of alat)
               a(1) = (   1.522502  -2.637051  -4.972461 )  
               a(2) = (  -1.522502   2.637051  -4.972461 )  
               a(3) = (   3.045004   0.000000   4.972461 )  

     reciprocal axes: (cart. coord. in units 2 pi/alat)
               b(1) = (  0.164203 -0.094803 -0.100554 )  
               b(2) = (  0.164203  0.284409 -0.100554 )  
               b(3) = (  0.328407  0.189606  0.000000 )  


     PseudoPot. # 1 for Nb read from file:
     ./Nb.pbe-nsp-van.UPF
     MD5 check sum: 0a22fc7fb0ba19a08ca5db297a5d2854
     Pseudo is Ultrasoft + core correction, Zval = 13.0
     Generated by new atomic code, or converted to UPF format
     Using radial grid of  887 points,  6 beta functions with: 
                l(1) =   0
                l(2) =   0
                l(3) =   1
                l(4) =   1
                l(5) =   2
                l(6) =   2
     Q(r) pseudized with  6 coefficients,  rinner =    1.000   1.000   1.000
                                                       1.000   1.000

     PseudoPot. # 2 for Ti read from file:
     ./Ti.pbe-sp-van_ak.UPF
     MD5 check sum: f98fea3e8887528921fefa5636a534ca
     Pseudo is Ultrasoft, Zval = 12.0
     Generated by new atomic code, or converted to UPF format
     Using radial grid of  851 points,  6 beta functions with: 
                l(1) =   0
                l(2) =   0
                l(3) =   1
                l(4) =   1
                l(5) =   2
                l(6) =   2
     Q(r) pseudized with  8 coefficients,  rinner =    1.000   1.000   1.000
                                                       1.000   1.000

     atomic species   valence    mass     pseudopotential
        Nb            13.00    92.90638     Nb( 1.00)
        Ti            12.00    47.86700     Ti( 1.00)

      2 Sym. Ops. (no inversion) found



   Cartesian axes

     site n.     atom                  positions (alat units)
         1           Ti  tau(   1) = (   3.0450042   0.0000000  -4.9724614  )
         2           Ti  tau(   2) = (   1.5225036   0.8790162  -2.4862307  )
         3           Nb  tau(   3) = (   3.0450042   0.0000000   0.0000000  )
         4           Nb  tau(   4) = (   3.0450058  -1.7580350  -2.4862307  )

     number of k points=   595  Marzari-Vanderbilt smearing, width (Ry)=  0.0200

     Number of k-points >= 100: set verbosity='high' to print them.

     Dense  grid:    72835 G-vectors     FFT dimensions: (  72,  72,  72)

     Smooth grid:    18407 G-vectors     FFT dimensions: (  45,  45,  45)

     Estimated max dynamical RAM per process >     173.96Mb

     Estimated total allocated dynamical RAM >     695.84Mb

     Initial potential from superposition of free atoms

     starting charge   47.99445, renormalised to   50.00000
     Starting wfc are   46 randomized atomic wfcs

     total cpu time spent up to now is       46.0 secs

     per-process dynamical memory:   248.0 Mb

     Self-consistent Calculation

     iteration #  1     ecut=    40.00 Ry     beta=0.60
     Davidson diagonalization with overlap
     ethr =  1.00E-02,  avg # of iterations =  3.1

     total cpu time spent up to now is      145.1 secs

     total energy              =    -459.96373133 Ry
     Harris-Foulkes estimate   =    -470.86414509 Ry
     estimated scf accuracy    <      13.79170493 Ry

     iteration #  2     ecut=    40.00 Ry     beta=0.60
     Davidson diagonalization with overlap
     ethr =  1.00E-02,  avg # of iterations =  5.8

     total cpu time spent up to now is      307.7 secs

     total energy              =    -467.70590557 Ry
     Harris-Foulkes estimate   =    -484.12659604 Ry
     estimated scf accuracy    <      45.92577772 Ry

     iteration #  3     ecut=    40.00 Ry     beta=0.60
     Davidson diagonalization with overlap
     ethr =  1.00E-02,  avg # of iterations =  3.5

     total cpu time spent up to now is      420.8 secs

     total energy              =    -469.92839753 Ry
     Harris-Foulkes estimate   =    -470.61446218 Ry
     estimated scf accuracy    <       8.75694679 Ry

     iteration #  4     ecut=    40.00 Ry     beta=0.60
     Davidson diagonalization with overlap
     ethr =  1.00E-02,  avg # of iterations =  1.0

     total cpu time spent up to now is      495.2 secs

     total energy              =    -468.94326044 Ry
     Harris-Foulkes estimate   =    -469.97548838 Ry
     estimated scf accuracy    <       6.91835931 Ry

     iteration #  5     ecut=    40.00 Ry     beta=0.60
     Davidson diagonalization with overlap
     ethr =  1.00E-02,  avg # of iterations =  1.9

     total cpu time spent up to now is      573.7 secs

     total energy              =    -468.82268721 Ry
     Harris-Foulkes estimate   =    -469.11693481 Ry
     estimated scf accuracy    <       2.69251034 Ry

     iteration #  6     ecut=    40.00 Ry     beta=0.60
     Davidson diagonalization with overlap
     ethr =  5.39E-03,  avg # of iterations =  4.2

     total cpu time spent up to now is      665.8 secs

     total energy              =    -468.94091425 Ry
     Harris-Foulkes estimate   =    -469.03299908 Ry
     estimated scf accuracy    <       0.37245449 Ry

     iteration #  7     ecut=    40.00 Ry     beta=0.60
     Davidson diagonalization with overlap
     ethr =  7.45E-04,  avg # of iterations =  5.1

     total cpu time spent up to now is      805.9 secs

     total energy              =    -469.09493559 Ry
     Harris-Foulkes estimate   =    -469.14630465 Ry
     estimated scf accuracy    <       0.71806954 Ry

     iteration #  8     ecut=    40.00 Ry     beta=0.60
     Davidson diagonalization with overlap
     ethr =  7.45E-04,  avg # of iterations =  1.0

     total cpu time spent up to now is      879.6 secs

     total energy              =    -469.08405660 Ry
     Harris-Foulkes estimate   =    -469.11636966 Ry
     estimated scf accuracy    <       0.50667361 Ry

     iteration #  9     ecut=    40.00 Ry     beta=0.60
     Davidson diagonalization with overlap
     ethr =  7.45E-04,  avg # of iterations =  1.3

     total cpu time spent up to now is      954.2 secs

     total energy              =    -469.06117088 Ry
     Harris-Foulkes estimate   =    -469.10189875 Ry
     estimated scf accuracy    <       0.24298035 Ry

     iteration # 10     ecut=    40.00 Ry     beta=0.60
     Davidson diagonalization with overlap
     ethr =  4.86E-04,  avg # of iterations =  4.3

     total cpu time spent up to now is     1052.3 secs

     total energy              =    -469.10635306 Ry
     Harris-Foulkes estimate   =    -469.10086055 Ry
     estimated scf accuracy    <       0.06418531 Ry

     iteration # 11     ecut=    40.00 Ry     beta=0.60
     Davidson diagonalization with overlap
     ethr =  1.28E-04,  avg # of iterations =  4.9

     total cpu time spent up to now is     1156.5 secs

     total energy              =    -469.08979236 Ry
     Harris-Foulkes estimate   =    -469.11427615 Ry
     estimated scf accuracy    <       0.21555612 Ry

     iteration # 12     ecut=    40.00 Ry     beta=0.60
     Davidson diagonalization with overlap
     ethr =  1.28E-04,  avg # of iterations =  1.4

     total cpu time spent up to now is     1231.8 secs

     total energy              =    -469.08826247 Ry
     Harris-Foulkes estimate   =    -469.09469700 Ry
     estimated scf accuracy    <       0.06469172 Ry

     iteration # 13     ecut=    40.00 Ry     beta=0.60
     Davidson diagonalization with overlap
     ethr =  1.28E-04,  avg # of iterations =  3.3

     total cpu time spent up to now is     1320.4 secs

     total energy              =    -469.09317432 Ry
     Harris-Foulkes estimate   =    -469.09314220 Ry
     estimated scf accuracy    <       0.00200332 Ry

     iteration # 14     ecut=    40.00 Ry     beta=0.60
     Davidson diagonalization with overlap
     ethr =  4.01E-06,  avg # of iterations =  6.5

     total cpu time spent up to now is     1461.1 secs

     total energy              =    -469.09381800 Ry
     Harris-Foulkes estimate   =    -469.09393214 Ry
     estimated scf accuracy    <       0.00042168 Ry

     iteration # 15     ecut=    40.00 Ry     beta=0.60
     Davidson diagonalization with overlap
     ethr =  8.43E-07,  avg # of iterations =  4.3

     total cpu time spent up to now is     1559.0 secs

     total energy              =    -469.09389297 Ry
     Harris-Foulkes estimate   =    -469.09390795 Ry
     estimated scf accuracy    <       0.00019107 Ry

     iteration # 16     ecut=    40.00 Ry     beta=0.60
     Davidson diagonalization with overlap
     ethr =  3.82E-07,  avg # of iterations =  1.4

     total cpu time spent up to now is     1634.5 secs

     total energy              =    -469.09388833 Ry
     Harris-Foulkes estimate   =    -469.09389795 Ry
     estimated scf accuracy    <       0.00009174 Ry

     iteration # 17     ecut=    40.00 Ry     beta=0.60
     Davidson diagonalization with overlap
     ethr =  1.83E-07,  avg # of iterations =  2.9

     total cpu time spent up to now is     1720.4 secs

     total energy              =    -469.09389288 Ry
     Harris-Foulkes estimate   =    -469.09389538 Ry
     estimated scf accuracy    <       0.00002140 Ry

     iteration # 18     ecut=    40.00 Ry     beta=0.60
     Davidson diagonalization with overlap
     ethr =  4.28E-08,  avg # of iterations =  2.8

     total cpu time spent up to now is     1807.6 secs

     total energy              =    -469.09389408 Ry
     Harris-Foulkes estimate   =    -469.09389497 Ry
     estimated scf accuracy    <       0.00000645 Ry

     iteration # 19     ecut=    40.00 Ry     beta=0.60
     Davidson diagonalization with overlap
     ethr =  1.29E-08,  avg # of iterations =  4.0

     total cpu time spent up to now is     1920.0 secs

     total energy              =    -469.09389471 Ry
     Harris-Foulkes estimate   =    -469.09389481 Ry
     estimated scf accuracy    <       0.00000043 Ry

     iteration # 20     ecut=    40.00 Ry     beta=0.60
     Davidson diagonalization with overlap
     ethr =  8.56E-10,  avg # of iterations =  4.4

     total cpu time spent up to now is     2058.8 secs

     total energy              =    -469.09389481 Ry
     Harris-Foulkes estimate   =    -469.09389482 Ry
     estimated scf accuracy    <       0.00000014 Ry

     iteration # 21     ecut=    40.00 Ry     beta=0.60
     Davidson diagonalization with overlap
     ethr =  2.83E-10,  avg # of iterations =  1.3

     total cpu time spent up to now is     2144.1 secs

     total energy              =    -469.09389480 Ry
     Harris-Foulkes estimate   =    -469.09389482 Ry
     estimated scf accuracy    <       0.00000012 Ry

     iteration # 22     ecut=    40.00 Ry     beta=0.60
     Davidson diagonalization with overlap
     ethr =  2.31E-10,  avg # of iterations =  1.6

     total cpu time spent up to now is     2236.4 secs

     total energy              =    -469.09389480 Ry
     Harris-Foulkes estimate   =    -469.09389481 Ry
     estimated scf accuracy    <       0.00000001 Ry

     iteration # 23     ecut=    40.00 Ry     beta=0.60
     Davidson diagonalization with overlap
     ethr =  2.68E-11,  avg # of iterations =  4.8

     total cpu time spent up to now is     2379.2 secs

     total energy              =    -469.09389481 Ry
     Harris-Foulkes estimate   =    -469.09389481 Ry
     estimated scf accuracy    <          9.6E-09 Ry

     iteration # 24     ecut=    40.00 Ry     beta=0.60
     Davidson diagonalization with overlap
     ethr =  1.92E-11,  avg # of iterations =  1.0

     total cpu time spent up to now is     2456.9 secs

     total energy              =    -469.09389481 Ry
     Harris-Foulkes estimate   =    -469.09389481 Ry
     estimated scf accuracy    <          3.5E-09 Ry

     iteration # 25     ecut=    40.00 Ry     beta=0.60
     Davidson diagonalization with overlap
     ethr =  6.90E-12,  avg # of iterations =  3.8

     total cpu time spent up to now is     2554.5 secs

     total energy              =    -469.09389481 Ry
     Harris-Foulkes estimate   =    -469.09389481 Ry
     estimated scf accuracy    <          4.7E-10 Ry

     iteration # 26     ecut=    40.00 Ry     beta=0.60
     Davidson diagonalization with overlap
     ethr =  9.32E-13,  avg # of iterations =  4.3

     total cpu time spent up to now is     2656.3 secs

     total energy              =    -469.09389481 Ry
     Harris-Foulkes estimate   =    -469.09389481 Ry
     estimated scf accuracy    <          3.3E-10 Ry

     iteration # 27     ecut=    40.00 Ry     beta=0.60
     Davidson diagonalization with overlap
     ethr =  6.60E-13,  avg # of iterations =  1.0

     total cpu time spent up to now is     2728.8 secs

     End of self-consistent calculation

     Number of k-points >= 100: set verbosity='high' to print the bands.

     the Fermi energy is    13.8357 ev

!    total energy              =    -469.09389481 Ry
     Harris-Foulkes estimate   =    -469.09389481 Ry
     estimated scf accuracy    <          4.3E-11 Ry

     The total energy is the sum of the following terms:

     one-electron contribution =    -136.30112547 Ry
     hartree contribution      =      85.07449640 Ry
     xc contribution           =     -65.49779266 Ry
     ewald contribution        =    -352.36535258 Ry
     smearing contrib. (-TS)   =      -0.00412051 Ry

     convergence has been achieved in  27 iterations

     Forces acting on atoms (Ry/au):

     atom    1 type  2   force =     0.00077215   -0.00044580   -0.00095544
     atom    2 type  2   force =    -0.00077186    0.00044563    0.00095587
     atom    3 type  1   force =    -0.00365985    0.00211301    0.00559243
     atom    4 type  1   force =     0.00365955   -0.00211284   -0.00559286

     Total force =     0.010084     Total SCF correction =     0.000005


     entering subroutine stress ...

          total   stress  (Ry/bohr**3)                   (kbar)     P= -124.86
  -0.00088910  -0.00003520   0.00001638       -130.79     -5.18      2.41
  -0.00003520  -0.00092975  -0.00000946         -5.18   -136.77     -1.39
   0.00001638  -0.00000946  -0.00072748          2.41     -1.39   -107.02


     BFGS Geometry Optimization

     number of scf cycles    =   1
     number of bfgs steps    =   0

     enthalpy new            =    -469.0938948088 Ry

     new trust radius        =       0.1079990735 bohr
     new conv_thr            =            1.0E-10 Ry

     new unit-cell volume =    505.30859 a.u.^3 (    74.87901 Ang^3 )

CELL_PARAMETERS (alat=  1.88972599)
   1.488944544  -2.575920236  -4.880779725
  -1.493017975   2.578272033  -4.883274187
   2.979357905  -0.003855571   4.883274187

ATOMIC_POSITIONS (angstrom)
Ti       2.975683997  -0.001734439  -4.881275904
Ti       1.486470802   0.858063262  -2.440101331
Nb       2.975427759  -0.001586500   0.004151736
Nb       2.979744709  -1.720356533  -2.442255231


     NEW-OLD atomic charge density approx. for the potential

     Check: negative/imaginary core charge=   -0.000001    0.000000
     extrapolated charge   46.80993, renormalised to   50.00000

     total cpu time spent up to now is     2751.8 secs

     per-process dynamical memory:   254.9 Mb

     Self-consistent Calculation

     iteration #  1     ecut=    40.00 Ry     beta=0.60
     Davidson diagonalization with overlap
     c_bands:  1 eigenvalues not converged
     c_bands:  1 eigenvalues not converged
     c_bands:  1 eigenvalues not converged
     c_bands:  1 eigenvalues not converged
     c_bands:  1 eigenvalues not converged
     c_bands:  1 eigenvalues not converged
     c_bands:  1 eigenvalues not converged
     c_bands:  1 eigenvalues not converged
     c_bands:  1 eigenvalues not converged
     c_bands:  1 eigenvalues not converged
     c_bands:  2 eigenvalues not converged
     c_bands:  1 eigenvalues not converged
     c_bands:  1 eigenvalues not converged
     c_bands:  1 eigenvalues not converged
     c_bands:  1 eigenvalues not converged
     c_bands:  1 eigenvalues not converged
     c_bands:  1 eigenvalues not converged
     c_bands:  1 eigenvalues not converged
     c_bands:  1 eigenvalues not converged
     c_bands:  1 eigenvalues not converged
     c_bands:  1 eigenvalues not converged
     c_bands:  1 eigenvalues not converged
     c_bands:  1 eigenvalues not converged
     c_bands:  1 eigenvalues not converged
     c_bands:  2 eigenvalues not converged
     c_bands:  1 eigenvalues not converged
     c_bands:  1 eigenvalues not converged
     c_bands:  2 eigenvalues not converged
     c_bands:  1 eigenvalues not converged
     c_bands:  2 eigenvalues not converged
     c_bands:  1 eigenvalues not converged
     c_bands:  3 eigenvalues not converged
     c_bands:  1 eigenvalues not converged
     c_bands:  1 eigenvalues not converged
     c_bands:  1 eigenvalues not converged
     c_bands:  1 eigenvalues not converged
     c_bands:  1 eigenvalues not converged
     c_bands:  1 eigenvalues not converged
     c_bands:  1 eigenvalues not converged
     c_bands:  2 eigenvalues not converged
     c_bands:  2 eigenvalues not converged
     c_bands:  1 eigenvalues not converged
     c_bands:  2 eigenvalues not converged
     c_bands:  2 eigenvalues not converged
     c_bands:  1 eigenvalues not converged
     c_bands:  1 eigenvalues not converged
     c_bands:  2 eigenvalues not converged
     c_bands:  1 eigenvalues not converged
     c_bands:  1 eigenvalues not converged
     c_bands:  4 eigenvalues not converged
     c_bands:  1 eigenvalues not converged
     c_bands:  1 eigenvalues not converged
     c_bands:  1 eigenvalues not converged
     c_bands:  4 eigenvalues not converged
     c_bands:  1 eigenvalues not converged
     c_bands:  1 eigenvalues not converged
     c_bands:  1 eigenvalues not converged
     c_bands:  1 eigenvalues not converged
     c_bands:  1 eigenvalues not converged
     c_bands:  2 eigenvalues not converged
     c_bands:  1 eigenvalues not converged
     c_bands:  1 eigenvalues not converged
     c_bands:  1 eigenvalues not converged
     c_bands:  1 eigenvalues not converged
     c_bands:  1 eigenvalues not converged
     c_bands:  1 eigenvalues not converged
     c_bands:  1 eigenvalues not converged
     c_bands:  1 eigenvalues not converged
     c_bands:  2 eigenvalues not converged
     c_bands:  1 eigenvalues not converged
     c_bands:  3 eigenvalues not converged
     c_bands:  1 eigenvalues not converged
     c_bands:  1 eigenvalues not converged
     c_bands:  1 eigenvalues not converged
     c_bands:  1 eigenvalues not converged
     c_bands:  1 eigenvalues not converged
     c_bands:  1 eigenvalues not converged
     c_bands:  2 eigenvalues not converged
     c_bands:  1 eigenvalues not converged
     c_bands:  1 eigenvalues not converged
     c_bands:  1 eigenvalues not converged
     c_bands:  1 eigenvalues not converged
     c_bands:  1 eigenvalues not converged
     c_bands:  1 eigenvalues not converged
     c_bands:  1 eigenvalues not converged
     c_bands:  1 eigenvalues not converged
     c_bands:  1 eigenvalues not converged
     c_bands:  1 eigenvalues not converged
     c_bands:  1 eigenvalues not converged
     c_bands:  1 eigenvalues not converged
     c_bands:  1 eigenvalues not converged
     c_bands:  1 eigenvalues not converged
     c_bands:  1 eigenvalues not converged
     c_bands:  1 eigenvalues not converged
     c_bands:  2 eigenvalues not converged
     c_bands:  1 eigenvalues not converged
     c_bands:  1 eigenvalues not converged
     c_bands:  1 eigenvalues not converged
     c_bands:  3 eigenvalues not converged
     c_bands:  1 eigenvalues not converged
     c_bands:  1 eigenvalues not converged
     c_bands:  3 eigenvalues not converged
     c_bands:  2 eigenvalues not converged
     c_bands:  1 eigenvalues not converged
     c_bands:  1 eigenvalues not converged
     c_bands:  2 eigenvalues not converged
     c_bands:  1 eigenvalues not converged
     c_bands:  1 eigenvalues not converged
     c_bands:  1 eigenvalues not converged
     c_bands:  1 eigenvalues not converged
     c_bands:  1 eigenvalues not converged
     c_bands:  1 eigenvalues not converged
     c_bands:  1 eigenvalues not converged
     c_bands:  1 eigenvalues not converged
     c_bands:  1 eigenvalues not converged
     c_bands:  2 eigenvalues not converged
     c_bands:  3 eigenvalues not converged
     c_bands:  1 eigenvalues not converged
     c_bands:  2 eigenvalues not converged
     c_bands:  1 eigenvalues not converged
     c_bands:  1 eigenvalues not converged
     c_bands:  1 eigenvalues not converged
     c_bands:  2 eigenvalues not converged
     c_bands:  2 eigenvalues not converged
     c_bands:  1 eigenvalues not converged
     c_bands:  1 eigenvalues not converged
     c_bands:  2 eigenvalues not converged
     c_bands:  4 eigenvalues not converged
     c_bands:  1 eigenvalues not converged
     c_bands:  3 eigenvalues not converged
     c_bands:  1 eigenvalues not converged
     c_bands:  1 eigenvalues not converged
     c_bands:  4 eigenvalues not converged
     c_bands:  1 eigenvalues not converged
     c_bands:  1 eigenvalues not converged
     c_bands:  1 eigenvalues not converged
     c_bands:  1 eigenvalues not converged
     c_bands:  1 eigenvalues not converged
     c_bands:  1 eigenvalues not converged
     c_bands:  1 eigenvalues not converged
     c_bands:  1 eigenvalues not converged
     c_bands:  1 eigenvalues not converged
     c_bands:  2 eigenvalues not converged
     c_bands:  1 eigenvalues not converged
     c_bands:  1 eigenvalues not converged
     c_bands:  1 eigenvalues not converged
     c_bands:  1 eigenvalues not converged
     c_bands:  1 eigenvalues not converged
     c_bands:  1 eigenvalues not converged
     c_bands:  1 eigenvalues not converged
     c_bands:  2 eigenvalues not converged
     c_bands:  1 eigenvalues not converged
     c_bands:  1 eigenvalues not converged
     c_bands:  1 eigenvalues not converged
     c_bands:  1 eigenvalues not converged
     c_bands:  1 eigenvalues not converged
     c_bands:  1 eigenvalues not converged
     c_bands:  1 eigenvalues not converged
     c_bands:  1 eigenvalues not converged
     c_bands:  1 eigenvalues not converged
     c_bands:  1 eigenvalues not converged
     ethr =  1.00E-06,  avg # of iterations = 17.6

     total cpu time spent up to now is     3082.3 secs

     total energy              =    -464.47633337 Ry
     Harris-Foulkes estimate   =    -475.12488857 Ry
     estimated scf accuracy    <       4.90180528 Ry

     iteration #  2     ecut=    40.00 Ry     beta=0.60
     Davidson diagonalization with overlap
     ethr =  9.80E-03,  avg # of iterations =  5.5

     total cpu time spent up to now is     3238.1 secs

     total energy              =    -468.74010923 Ry
     Harris-Foulkes estimate   =    -476.32340420 Ry
     estimated scf accuracy    <      24.72909533 Ry

     iteration #  3     ecut=    40.00 Ry     beta=0.60
     Davidson diagonalization with overlap
     ethr =  9.80E-03,  avg # of iterations =  3.6

     total cpu time spent up to now is     3337.9 secs

     total energy              =    -469.12241033 Ry
     Harris-Foulkes estimate   =    -470.19214193 Ry
     estimated scf accuracy    <       5.43626780 Ry

     iteration #  4     ecut=    40.00 Ry     beta=0.60
     Davidson diagonalization with overlap
     ethr =  9.80E-03,  avg # of iterations =  1.3

     total cpu time spent up to now is     3412.9 secs

     total energy              =    -468.96738040 Ry
     Harris-Foulkes estimate   =    -469.27708940 Ry
     estimated scf accuracy    <       2.79933246 Ry

     iteration #  5     ecut=    40.00 Ry     beta=0.60
     Davidson diagonalization with overlap
     ethr =  5.60E-03,  avg # of iterations =  3.4

     total cpu time spent up to now is     3496.7 secs

     total energy              =    -469.15291030 Ry
     Harris-Foulkes estimate   =    -469.12421597 Ry
     estimated scf accuracy    <       0.89958847 Ry

     iteration #  6     ecut=    40.00 Ry     beta=0.60
     Davidson diagonalization with overlap
     ethr =  1.80E-03,  avg # of iterations =  4.3

     total cpu time spent up to now is     3587.7 secs

     total energy              =    -469.16503339 Ry
     Harris-Foulkes estimate   =    -469.21144778 Ry
     estimated scf accuracy    <       0.75759046 Ry

     iteration #  7     ecut=    40.00 Ry     beta=0.60
     Davidson diagonalization with overlap
     ethr =  1.52E-03,  avg # of iterations =  1.5

     total cpu time spent up to now is     3662.3 secs

     total energy              =    -469.18687442 Ry
     Harris-Foulkes estimate   =    -469.17394033 Ry
     estimated scf accuracy    <       0.58235699 Ry

     iteration #  8     ecut=    40.00 Ry     beta=0.60
     Davidson diagonalization with overlap
     ethr =  1.16E-03,  avg # of iterations =  1.2

     total cpu time spent up to now is     3736.0 secs

     total energy              =    -469.18985633 Ry
     Harris-Foulkes estimate   =    -469.19000028 Ry
     estimated scf accuracy    <       0.61710526 Ry

     iteration #  9     ecut=    40.00 Ry     beta=0.60
     Davidson diagonalization with overlap
     ethr =  1.16E-03,  avg # of iterations =  1.1

     total cpu time spent up to now is     3809.7 secs

     total energy              =    -469.21045215 Ry
     Harris-Foulkes estimate   =    -469.19160226 Ry
     estimated scf accuracy    <       0.59008889 Ry

     iteration # 10     ecut=    40.00 Ry     beta=0.60
     Davidson diagonalization with overlap
     ethr =  1.16E-03,  avg # of iterations =  1.0

     total cpu time spent up to now is     3882.7 secs

     total energy              =    -468.99721281 Ry
     Harris-Foulkes estimate   =    -469.21169927 Ry
     estimated scf accuracy    <       0.65661068 Ry

     iteration # 11     ecut=    40.00 Ry     beta=0.60
     Davidson diagonalization with overlap
     ethr =  1.16E-03,  avg # of iterations =  4.8

     total cpu time spent up to now is     3987.2 secs

     total energy              =    -469.10234022 Ry
     Harris-Foulkes estimate   =    -469.12722082 Ry
     estimated scf accuracy    <       0.16888032 Ry

     iteration # 12     ecut=    40.00 Ry     beta=0.60
     Davidson diagonalization with overlap
     ethr =  3.38E-04,  avg # of iterations =  2.9

     total cpu time spent up to now is     4068.3 secs

     total energy              =    -469.11542291 Ry
     Harris-Foulkes estimate   =    -469.11217548 Ry
     estimated scf accuracy    <       0.03208603 Ry

     iteration # 13     ecut=    40.00 Ry     beta=0.60
     Davidson diagonalization with overlap
     ethr =  6.42E-05,  avg # of iterations =  5.1

     total cpu time spent up to now is     4171.4 secs

     total energy              =    -469.11766883 Ry
     Harris-Foulkes estimate   =    -469.11894924 Ry
     estimated scf accuracy    <       0.04257483 Ry

     iteration # 14     ecut=    40.00 Ry     beta=0.60
     Davidson diagonalization with overlap
     ethr =  6.42E-05,  avg # of iterations =  1.0

     total cpu time spent up to now is     4244.4 secs

     total energy              =    -469.11803901 Ry
     Harris-Foulkes estimate   =    -469.11803727 Ry
     estimated scf accuracy    <       0.03610980 Ry

     iteration # 15     ecut=    40.00 Ry     beta=0.60
     Davidson diagonalization with overlap
     ethr =  6.42E-05,  avg # of iterations =  1.0

     total cpu time spent up to now is     4317.3 secs

     total energy              =    -469.11683429 Ry
     Harris-Foulkes estimate   =    -469.11815208 Ry
     estimated scf accuracy    <       0.03441410 Ry

     iteration # 16     ecut=    40.00 Ry     beta=0.60
     Davidson diagonalization with overlap
     ethr =  6.42E-05,  avg # of iterations =  1.0

     total cpu time spent up to now is     4390.2 secs

     total energy              =    -469.11678754 Ry
     Harris-Foulkes estimate   =    -469.11699578 Ry
     estimated scf accuracy    <       0.02344330 Ry

     iteration # 17     ecut=    40.00 Ry     beta=0.60
     Davidson diagonalization with overlap
     ethr =  4.69E-05,  avg # of iterations =  1.0

     total cpu time spent up to now is     4463.1 secs

     total energy              =    -469.11290550 Ry
     Harris-Foulkes estimate   =    -469.11686881 Ry
     estimated scf accuracy    <       0.02124084 Ry

     iteration # 18     ecut=    40.00 Ry     beta=0.60
     Davidson diagonalization with overlap
     ethr =  4.25E-05,  avg # of iterations =  3.9

     total cpu time spent up to now is     4551.7 secs

     total energy              =    -469.11493168 Ry
     Harris-Foulkes estimate   =    -469.11504410 Ry
     estimated scf accuracy    <       0.00034907 Ry

     iteration # 19     ecut=    40.00 Ry     beta=0.60
     Davidson diagonalization with overlap
     ethr =  6.98E-07,  avg # of iterations =  5.9

     total cpu time spent up to now is     4702.7 secs

     total energy              =    -469.11562633 Ry
     Harris-Foulkes estimate   =    -469.11580174 Ry
     estimated scf accuracy    <       0.00279641 Ry

     iteration # 20     ecut=    40.00 Ry     beta=0.60
     Davidson diagonalization with overlap
     ethr =  6.98E-07,  avg # of iterations =  1.3

     total cpu time spent up to now is     4776.5 secs

     total energy              =    -469.11547310 Ry
     Harris-Foulkes estimate   =    -469.11565481 Ry
     estimated scf accuracy    <       0.00166479 Ry

     iteration # 21     ecut=    40.00 Ry     beta=0.60
     Davidson diagonalization with overlap
     ethr =  6.98E-07,  avg # of iterations =  4.0

     total cpu time spent up to now is     4876.2 secs

     total energy              =    -469.11552505 Ry
     Harris-Foulkes estimate   =    -469.11555830 Ry
     estimated scf accuracy    <       0.00012793 Ry

     iteration # 22     ecut=    40.00 Ry     beta=0.60
     Davidson diagonalization with overlap
     ethr =  2.56E-07,  avg # of iterations =  4.0

     total cpu time spent up to now is     4972.8 secs

     total energy              =    -469.11554403 Ry
     Harris-Foulkes estimate   =    -469.11555089 Ry
     estimated scf accuracy    <       0.00003435 Ry

     iteration # 23     ecut=    40.00 Ry     beta=0.60
     Davidson diagonalization with overlap
     ethr =  6.87E-08,  avg # of iterations =  3.1

     total cpu time spent up to now is     5057.4 secs

     total energy              =    -469.11554682 Ry
     Harris-Foulkes estimate   =    -469.11554726 Ry
     estimated scf accuracy    <       0.00000201 Ry

     iteration # 24     ecut=    40.00 Ry     beta=0.60
     Davidson diagonalization with overlap
     ethr =  4.02E-09,  avg # of iterations =  5.0

     total cpu time spent up to now is     5174.1 secs

     total energy              =    -469.11554786 Ry
     Harris-Foulkes estimate   =    -469.11554820 Ry
     estimated scf accuracy    <       0.00000283 Ry

     iteration # 25     ecut=    40.00 Ry     beta=0.60
     Davidson diagonalization with overlap
     ethr =  4.02E-09,  avg # of iterations =  1.0

     total cpu time spent up to now is     5247.0 secs

     total energy              =    -469.11554781 Ry
     Harris-Foulkes estimate   =    -469.11554794 Ry
     estimated scf accuracy    <       0.00000081 Ry

     iteration # 26     ecut=    40.00 Ry     beta=0.60
     Davidson diagonalization with overlap
     ethr =  1.63E-09,  avg # of iterations =  3.8

     total cpu time spent up to now is     5345.8 secs

     total energy              =    -469.11554795 Ry
     Harris-Foulkes estimate   =    -469.11554796 Ry
     estimated scf accuracy    <       0.00000010 Ry

     iteration # 27     ecut=    40.00 Ry     beta=0.60
     Davidson diagonalization with overlap
     ethr =  1.97E-10,  avg # of iterations =  1.6

     total cpu time spent up to now is     5421.1 secs

     total energy              =    -469.11554795 Ry
     Harris-Foulkes estimate   =    -469.11554796 Ry
     estimated scf accuracy    <       0.00000006 Ry

     iteration # 28     ecut=    40.00 Ry     beta=0.60
     Davidson diagonalization with overlap
     ethr =  1.17E-10,  avg # of iterations =  1.8

     total cpu time spent up to now is     5496.7 secs

     total energy              =    -469.11554795 Ry
     Harris-Foulkes estimate   =    -469.11554795 Ry
     estimated scf accuracy    <       0.00000002 Ry

     iteration # 29     ecut=    40.00 Ry     beta=0.60
     Davidson diagonalization with overlap
     ethr =  3.51E-11,  avg # of iterations =  3.9

     total cpu time spent up to now is     5589.5 secs

     total energy              =    -469.11554795 Ry
     Harris-Foulkes estimate   =    -469.11554795 Ry
     estimated scf accuracy    <          5.5E-10 Ry

     iteration # 30     ecut=    40.00 Ry     beta=0.60
     Davidson diagonalization with overlap
     ethr =  1.10E-12,  avg # of iterations =  5.1

     total cpu time spent up to now is     5702.1 secs

     total energy              =    -469.11554795 Ry
     Harris-Foulkes estimate   =    -469.11554795 Ry
     estimated scf accuracy    <          2.0E-10 Ry

     iteration # 31     ecut=    40.00 Ry     beta=0.60
     Davidson diagonalization with overlap
     ethr =  4.01E-13,  avg # of iterations =  1.0

     total cpu time spent up to now is     5775.0 secs

     total energy              =    -469.11554795 Ry
     Harris-Foulkes estimate   =    -469.11554795 Ry
     estimated scf accuracy    <          1.0E-10 Ry

     iteration # 32     ecut=    40.00 Ry     beta=0.60
     Davidson diagonalization with overlap
     ethr =  2.00E-13,  avg # of iterations =  3.2

     total cpu time spent up to now is     5865.3 secs

     End of self-consistent calculation

     Number of k-points >= 100: set verbosity='high' to print the bands.

     the Fermi energy is    14.9287 ev

!    total energy              =    -469.11554795 Ry
     Harris-Foulkes estimate   =    -469.11554795 Ry
     estimated scf accuracy    <          1.9E-11 Ry

     The total energy is the sum of the following terms:

     one-electron contribution =    -125.12046705 Ry
     hartree contribution      =      81.73536686 Ry
     xc contribution           =     -65.72018241 Ry
     ewald contribution        =    -360.00672732 Ry
     smearing contrib. (-TS)   =      -0.00353803 Ry

     convergence has been achieved in  32 iterations

     Forces acting on atoms (Ry/au):

     atom    1 type  2   force =    -0.00002560    0.00001478   -0.00323282
     atom    2 type  2   force =     0.00002577   -0.00001488    0.00323270
     atom    3 type  1   force =    -0.00392220    0.00226448    0.00652879
     atom    4 type  1   force =     0.00392203   -0.00226439   -0.00652867

     Total force =     0.012131     Total SCF correction =     0.000003


     entering subroutine stress ...

          total   stress  (Ry/bohr**3)                   (kbar)     P=  -57.04
  -0.00043791  -0.00003530   0.00001544        -64.42     -5.19      2.27
  -0.00003530  -0.00047867  -0.00000891         -5.19    -70.41     -1.31
   0.00001544  -0.00000891  -0.00024668          2.27     -1.31    -36.29


     number of scf cycles    =   2
     number of bfgs steps    =   1

     enthalpy old            =    -469.0938948088 Ry
     enthalpy new            =    -469.1155479533 Ry

     CASE: enthalpy_new < enthalpy_old

     new trust radius        =       0.0986307004 bohr
     new conv_thr            =            1.0E-10 Ry

     new unit-cell volume =    478.89540 a.u.^3 (    70.96498 Ang^3 )

CELL_PARAMETERS (alat=  1.88972599)
   1.459923126  -2.520009479  -4.823501913
  -1.470811296   2.526295767  -4.830165384
   2.923241795  -0.010612157   4.830165384

ATOMIC_POSITIONS (angstrom)
Ti       2.912726768  -0.004541304  -4.826958200
Ti       1.453649319   0.837857518  -2.408849837
Nb       2.912377133  -0.004339442   0.012228381
Nb       2.924809638  -1.688639757  -2.417871274


     NEW-OLD atomic charge density approx. for the potential

     Check: negative/imaginary core charge=   -0.000001    0.000000
     extrapolated charge   47.35289, renormalised to   50.00000

     total cpu time spent up to now is     5888.5 secs

     per-process dynamical memory:   255.7 Mb

     Self-consistent Calculation

     iteration #  1     ecut=    40.00 Ry     beta=0.60
     Davidson diagonalization with overlap
     c_bands:  1 eigenvalues not converged
     c_bands:  1 eigenvalues not converged
     c_bands:  1 eigenvalues not converged
     c_bands:  1 eigenvalues not converged
     c_bands:  1 eigenvalues not converged
     c_bands:  1 eigenvalues not converged
     c_bands:  1 eigenvalues not converged
     c_bands:  1 eigenvalues not converged
     c_bands:  1 eigenvalues not converged
     c_bands:  1 eigenvalues not converged
     c_bands:  1 eigenvalues not converged
     c_bands:  1 eigenvalues not converged
     c_bands:  1 eigenvalues not converged
     c_bands:  1 eigenvalues not converged
     c_bands:  1 eigenvalues not converged
     c_bands:  2 eigenvalues not converged
     c_bands:  1 eigenvalues not converged
     c_bands:  1 eigenvalues not converged
     c_bands:  1 eigenvalues not converged
     c_bands:  1 eigenvalues not converged
     c_bands:  1 eigenvalues not converged
     c_bands:  1 eigenvalues not converged
     c_bands:  1 eigenvalues not converged
     c_bands:  1 eigenvalues not converged
     c_bands:  1 eigenvalues not converged
     c_bands:  1 eigenvalues not converged
     c_bands:  1 eigenvalues not converged
     c_bands:  1 eigenvalues not converged
     c_bands:  1 eigenvalues not converged
     c_bands:  1 eigenvalues not converged
     c_bands:  1 eigenvalues not converged
     c_bands:  1 eigenvalues not converged
     c_bands:  1 eigenvalues not converged
     c_bands:  2 eigenvalues not converged
     c_bands:  1 eigenvalues not converged
     c_bands:  1 eigenvalues not converged
     c_bands:  1 eigenvalues not converged
     c_bands:  2 eigenvalues not converged
     c_bands:  1 eigenvalues not converged
     c_bands:  1 eigenvalues not converged
     c_bands:  2 eigenvalues not converged
     c_bands:  2 eigenvalues not converged
     c_bands:  1 eigenvalues not converged
     c_bands:  1 eigenvalues not converged
     c_bands:  1 eigenvalues not converged
     c_bands:  1 eigenvalues not converged
     c_bands:  1 eigenvalues not converged
     c_bands:  1 eigenvalues not converged
     c_bands:  1 eigenvalues not converged
     c_bands:  1 eigenvalues not converged
     c_bands:  1 eigenvalues not converged
     c_bands:  1 eigenvalues not converged
     c_bands:  1 eigenvalues not converged
     c_bands:  1 eigenvalues not converged
     c_bands:  1 eigenvalues not converged
     c_bands:  1 eigenvalues not converged
     c_bands:  1 eigenvalues not converged
     c_bands:  1 eigenvalues not converged
     c_bands:  3 eigenvalues not converged
     c_bands:  1 eigenvalues not converged
     c_bands:  1 eigenvalues not converged
     c_bands:  1 eigenvalues not converged
     c_bands:  1 eigenvalues not converged
     c_bands:  1 eigenvalues not converged
     c_bands:  1 eigenvalues not converged
     c_bands:  1 eigenvalues not converged
     c_bands:  1 eigenvalues not converged
     c_bands:  1 eigenvalues not converged
     c_bands:  1 eigenvalues not converged
     c_bands:  1 eigenvalues not converged
     c_bands:  1 eigenvalues not converged
     c_bands:  1 eigenvalues not converged
     c_bands:  1 eigenvalues not converged
     c_bands:  1 eigenvalues not converged
     c_bands:  1 eigenvalues not converged
     c_bands:  1 eigenvalues not converged
     c_bands:  1 eigenvalues not converged
     c_bands:  1 eigenvalues not converged
     c_bands:  2 eigenvalues not converged
     c_bands:  1 eigenvalues not converged
     c_bands:  2 eigenvalues not converged
     c_bands:  1 eigenvalues not converged
     c_bands:  1 eigenvalues not converged
     c_bands:  2 eigenvalues not converged
     c_bands:  1 eigenvalues not converged
     c_bands:  1 eigenvalues not converged
     c_bands:  1 eigenvalues not converged
     c_bands:  1 eigenvalues not converged
     c_bands:  1 eigenvalues not converged
     c_bands:  1 eigenvalues not converged
     c_bands:  1 eigenvalues not converged
     c_bands:  1 eigenvalues not converged
     c_bands:  1 eigenvalues not converged
     c_bands:  2 eigenvalues not converged
     c_bands:  1 eigenvalues not converged
     c_bands:  1 eigenvalues not converged
     c_bands:  1 eigenvalues not converged
     c_bands:  1 eigenvalues not converged
     c_bands:  1 eigenvalues not converged
     c_bands:  1 eigenvalues not converged
     c_bands:  1 eigenvalues not converged
     c_bands:  1 eigenvalues not converged
     c_bands:  1 eigenvalues not converged
     c_bands:  1 eigenvalues not converged
     c_bands:  2 eigenvalues not converged
     c_bands:  3 eigenvalues not converged
     c_bands:  1 eigenvalues not converged
     c_bands:  2 eigenvalues not converged
     c_bands:  1 eigenvalues not converged
     c_bands:  1 eigenvalues not converged
     c_bands:  1 eigenvalues not converged
     c_bands:  1 eigenvalues not converged
     c_bands:  1 eigenvalues not converged
     c_bands:  1 eigenvalues not converged
     c_bands:  1 eigenvalues not converged
     c_bands:  1 eigenvalues not converged
     c_bands:  1 eigenvalues not converged
     c_bands:  1 eigenvalues not converged
     c_bands:  1 eigenvalues not converged
     c_bands:  1 eigenvalues not converged
     c_bands:  1 eigenvalues not converged
     c_bands:  1 eigenvalues not converged
     c_bands:  1 eigenvalues not converged
     c_bands:  1 eigenvalues not converged
     c_bands:  1 eigenvalues not converged
     c_bands:  1 eigenvalues not converged
     c_bands:  1 eigenvalues not converged
     c_bands:  1 eigenvalues not converged
     c_bands:  1 eigenvalues not converged
     c_bands:  1 eigenvalues not converged
     ethr =  1.00E-06,  avg # of iterations = 16.0

     total cpu time spent up to now is     6199.2 secs

     total energy              =    -466.91606877 Ry
     Harris-Foulkes estimate   =    -473.70151152 Ry
     estimated scf accuracy    <       2.24221496 Ry

     iteration #  2     ecut=    40.00 Ry     beta=0.60
     Davidson diagonalization with overlap
     ethr =  4.48E-03,  avg # of iterations =  5.8

     total cpu time spent up to now is     6359.7 secs

     total energy              =    -468.65090579 Ry
     Harris-Foulkes estimate   =    -472.84286243 Ry
     estimated scf accuracy    <      15.29871135 Ry

     iteration #  3     ecut=    40.00 Ry     beta=0.60
     Davidson diagonalization with overlap
     ethr =  4.48E-03,  avg # of iterations =  4.9

     total cpu time spent up to now is     6476.0 secs

     total energy              =    -469.18362220 Ry
     Harris-Foulkes estimate   =    -469.59689799 Ry
     estimated scf accuracy    <       2.15085545 Ry

     iteration #  4     ecut=    40.00 Ry     beta=0.60
     Davidson diagonalization with overlap
     ethr =  4.30E-03,  avg # of iterations =  1.2

     total cpu time spent up to now is     6551.7 secs

     total energy              =    -469.19838557 Ry
     Harris-Foulkes estimate   =    -469.23758782 Ry
     estimated scf accuracy    <       1.21153645 Ry

     iteration #  5     ecut=    40.00 Ry     beta=0.60
     Davidson diagonalization with overlap
     ethr =  2.42E-03,  avg # of iterations =  1.2

     total cpu time spent up to now is     6626.4 secs

     total energy              =    -469.14288671 Ry
     Harris-Foulkes estimate   =    -469.21460291 Ry
     estimated scf accuracy    <       1.01279698 Ry

     iteration #  6     ecut=    40.00 Ry     beta=0.60
     Davidson diagonalization with overlap
     ethr =  2.03E-03,  avg # of iterations =  1.1

     total cpu time spent up to now is     6701.2 secs

     total energy              =    -469.12225418 Ry
     Harris-Foulkes estimate   =    -469.15692855 Ry
     estimated scf accuracy    <       0.65084454 Ry

     iteration #  7     ecut=    40.00 Ry     beta=0.60
     Davidson diagonalization with overlap
     ethr =  1.30E-03,  avg # of iterations =  2.7

     total cpu time spent up to now is     6782.4 secs

     total energy              =    -469.11602912 Ry
     Harris-Foulkes estimate   =    -469.14387331 Ry
     estimated scf accuracy    <       0.30943818 Ry

     iteration #  8     ecut=    40.00 Ry     beta=0.60
     Davidson diagonalization with overlap
     ethr =  6.19E-04,  avg # of iterations =  3.1

     total cpu time spent up to now is     6865.7 secs

     total energy              =    -469.12172034 Ry
     Harris-Foulkes estimate   =    -469.12645238 Ry
     estimated scf accuracy    <       0.14944877 Ry

     iteration #  9     ecut=    40.00 Ry     beta=0.60
     Davidson diagonalization with overlap
     ethr =  2.99E-04,  avg # of iterations =  3.6

     total cpu time spent up to now is     6953.2 secs

     total energy              =    -469.12739012 Ry
     Harris-Foulkes estimate   =    -469.12862226 Ry
     estimated scf accuracy    <       0.08452180 Ry

     iteration # 10     ecut=    40.00 Ry     beta=0.60
     Davidson diagonalization with overlap
     ethr =  1.69E-04,  avg # of iterations =  2.2

     total cpu time spent up to now is     7032.4 secs

     total energy              =    -469.11215521 Ry
     Harris-Foulkes estimate   =    -469.12866413 Ry
     estimated scf accuracy    <       0.07230118 Ry

     iteration # 11     ecut=    40.00 Ry     beta=0.60
     Davidson diagonalization with overlap
     ethr =  1.45E-04,  avg # of iterations =  4.0

     total cpu time spent up to now is     7127.4 secs

     total energy              =    -469.11905509 Ry
     Harris-Foulkes estimate   =    -469.11964569 Ry
     estimated scf accuracy    <       0.00384167 Ry

     iteration # 12     ecut=    40.00 Ry     beta=0.60
     Davidson diagonalization with overlap
     ethr =  7.68E-06,  avg # of iterations =  6.0

     total cpu time spent up to now is     7269.8 secs

     total energy              =    -469.12100564 Ry
     Harris-Foulkes estimate   =    -469.12093962 Ry
     estimated scf accuracy    <       0.00147384 Ry

     iteration # 13     ecut=    40.00 Ry     beta=0.60
     Davidson diagonalization with overlap
     ethr =  2.95E-06,  avg # of iterations =  1.3

     total cpu time spent up to now is     7345.3 secs

     total energy              =    -469.12051493 Ry
     Harris-Foulkes estimate   =    -469.12104268 Ry
     estimated scf accuracy    <       0.00223716 Ry

     iteration # 14     ecut=    40.00 Ry     beta=0.60
     Davidson diagonalization with overlap
     ethr =  2.95E-06,  avg # of iterations =  3.8

     total cpu time spent up to now is     7438.3 secs

     total energy              =    -469.12076840 Ry
     Harris-Foulkes estimate   =    -469.12079794 Ry
     estimated scf accuracy    <       0.00013453 Ry

     iteration # 15     ecut=    40.00 Ry     beta=0.60
     Davidson diagonalization with overlap
     ethr =  2.69E-07,  avg # of iterations =  3.7

     total cpu time spent up to now is     7535.0 secs

     total energy              =    -469.12079474 Ry
     Harris-Foulkes estimate   =    -469.12079525 Ry
     estimated scf accuracy    <       0.00000406 Ry

     iteration # 16     ecut=    40.00 Ry     beta=0.60
     Davidson diagonalization with overlap
     ethr =  8.12E-09,  avg # of iterations =  4.7

     total cpu time spent up to now is     7657.5 secs

     total energy              =    -469.12079655 Ry
     Harris-Foulkes estimate   =    -469.12079652 Ry
     estimated scf accuracy    <       0.00000231 Ry

     iteration # 17     ecut=    40.00 Ry     beta=0.60
     Davidson diagonalization with overlap
     ethr =  4.62E-09,  avg # of iterations =  1.0

     total cpu time spent up to now is     7731.7 secs

     total energy              =    -469.12079621 Ry
     Harris-Foulkes estimate   =    -469.12079659 Ry
     estimated scf accuracy    <       0.00000255 Ry

     iteration # 18     ecut=    40.00 Ry     beta=0.60
     Davidson diagonalization with overlap
     ethr =  4.62E-09,  avg # of iterations =  1.1

     total cpu time spent up to now is     7806.7 secs

     total energy              =    -469.12079626 Ry
     Harris-Foulkes estimate   =    -469.12079631 Ry
     estimated scf accuracy    <       0.00000048 Ry

     iteration # 19     ecut=    40.00 Ry     beta=0.60
     Davidson diagonalization with overlap
     ethr =  9.69E-10,  avg # of iterations =  4.2

     total cpu time spent up to now is     7909.1 secs

     total energy              =    -469.12079635 Ry
     Harris-Foulkes estimate   =    -469.12079636 Ry
     estimated scf accuracy    <       0.00000005 Ry

     iteration # 20     ecut=    40.00 Ry     beta=0.60
     Davidson diagonalization with overlap
     ethr =  1.05E-10,  avg # of iterations =  3.5

     total cpu time spent up to now is     8002.2 secs

     total energy              =    -469.12079635 Ry
     Harris-Foulkes estimate   =    -469.12079636 Ry
     estimated scf accuracy    <          9.7E-09 Ry

     iteration # 21     ecut=    40.00 Ry     beta=0.60
     Davidson diagonalization with overlap
     ethr =  1.94E-11,  avg # of iterations =  3.5

     total cpu time spent up to now is     8098.2 secs

     total energy              =    -469.12079636 Ry
     Harris-Foulkes estimate   =    -469.12079636 Ry
     estimated scf accuracy    <          7.8E-09 Ry

     iteration # 22     ecut=    40.00 Ry     beta=0.60
     Davidson diagonalization with overlap
     ethr =  1.57E-11,  avg # of iterations =  1.1

     total cpu time spent up to now is     8173.2 secs

     total energy              =    -469.12079636 Ry
     Harris-Foulkes estimate   =    -469.12079636 Ry
     estimated scf accuracy    <          1.1E-09 Ry

     iteration # 23     ecut=    40.00 Ry     beta=0.60
     Davidson diagonalization with overlap
     ethr =  2.22E-12,  avg # of iterations =  4.0

     total cpu time spent up to now is     8275.7 secs

     total energy              =    -469.12079636 Ry
     Harris-Foulkes estimate   =    -469.12079636 Ry
     estimated scf accuracy    <          1.7E-10 Ry

     iteration # 24     ecut=    40.00 Ry     beta=0.60
     Davidson diagonalization with overlap
     ethr =  3.37E-13,  avg # of iterations =  2.0

     total cpu time spent up to now is     8354.4 secs

     End of self-consistent calculation

     Number of k-points >= 100: set verbosity='high' to print the bands.

     the Fermi energy is    15.8843 ev

!    total energy              =    -469.12079636 Ry
     Harris-Foulkes estimate   =    -469.12079636 Ry
     estimated scf accuracy    <          6.7E-11 Ry

     The total energy is the sum of the following terms:

     one-electron contribution =    -115.69663209 Ry
     hartree contribution      =      78.99744877 Ry
     xc contribution           =     -65.91986800 Ry
     ewald contribution        =    -366.49876072 Ry
     smearing contrib. (-TS)   =      -0.00298432 Ry

     convergence has been achieved in  24 iterations

     Forces acting on atoms (Ry/au):

     atom    1 type  2   force =    -0.00161403    0.00093186   -0.00589007
     atom    2 type  2   force =     0.00161409   -0.00093189    0.00588983
     atom    3 type  1   force =    -0.00414705    0.00239430    0.00519067
     atom    4 type  1   force =     0.00414700   -0.00239427   -0.00519044

     Total force =     0.013269     Total SCF correction =     0.000010


     entering subroutine stress ...

          total   stress  (Ry/bohr**3)                   (kbar)     P=   12.94
   0.00003554  -0.00003191   0.00001693          5.23     -4.69      2.49
  -0.00003191  -0.00000131  -0.00000977         -4.69     -0.19     -1.44
   0.00001693  -0.00000977   0.00022957          2.49     -1.44     33.77


     number of scf cycles    =   3
     number of bfgs steps    =   2

     enthalpy old            =    -469.1155479533 Ry
     enthalpy new            =    -469.1207963560 Ry

     CASE: enthalpy_new < enthalpy_old

     new trust radius        =       0.0207408780 bohr
     new conv_thr            =            1.0E-10 Ry

     new unit-cell volume =    481.45377 a.u.^3 (    71.34409 Ang^3 )

CELL_PARAMETERS (alat=  1.88972599)
   1.460970649  -2.519812836  -4.845251350
  -1.475265811   2.528066151  -4.854000620
   2.927002250  -0.013584688   4.854000620

ATOMIC_POSITIONS (angstrom)
Ti       2.912371577  -0.005137665  -4.851335956
Ti       1.453960550   0.836876397  -2.417270152
Nb       2.912647331  -0.005296872   0.015586482
Nb       2.928949948  -1.691030166  -2.430192010


     NEW-OLD atomic charge density approx. for the potential

     Check: negative/imaginary core charge=   -0.000001    0.000000
     extrapolated charge   50.25503, renormalised to   50.00000

     total cpu time spent up to now is     8377.6 secs

     per-process dynamical memory:   255.7 Mb

     Self-consistent Calculation

     iteration #  1     ecut=    40.00 Ry     beta=0.60
     Davidson diagonalization with overlap
     c_bands:  1 eigenvalues not converged
     c_bands:  1 eigenvalues not converged
     c_bands:  1 eigenvalues not converged
     ethr =  1.00E-06,  avg # of iterations =  6.0

     total cpu time spent up to now is     8558.0 secs

     total energy              =    -469.11315167 Ry
     Harris-Foulkes estimate   =    -468.69786125 Ry
     estimated scf accuracy    <       0.00708148 Ry

     iteration #  2     ecut=    40.00 Ry     beta=0.60
     Davidson diagonalization with overlap
     c_bands:  1 eigenvalues not converged
     c_bands:  1 eigenvalues not converged
     c_bands:  1 eigenvalues not converged
     c_bands:  1 eigenvalues not converged
     c_bands:  1 eigenvalues not converged
     ethr =  1.42E-05,  avg # of iterations =  6.3

     total cpu time spent up to now is     8723.8 secs

     total energy              =    -469.11002584 Ry
     Harris-Foulkes estimate   =    -469.13740181 Ry
     estimated scf accuracy    <       0.17593518 Ry

     iteration #  3     ecut=    40.00 Ry     beta=0.60
     Davidson diagonalization with overlap
     ethr =  1.42E-05,  avg # of iterations =  5.1

     total cpu time spent up to now is     8857.9 secs

     total energy              =    -469.12133537 Ry
     Harris-Foulkes estimate   =    -469.12301349 Ry
     estimated scf accuracy    <       0.00466353 Ry

     iteration #  4     ecut=    40.00 Ry     beta=0.60
     Davidson diagonalization with overlap
     ethr =  9.33E-06,  avg # of iterations =  2.0

     total cpu time spent up to now is     8936.7 secs

     total energy              =    -469.12158723 Ry
     Harris-Foulkes estimate   =    -469.12180758 Ry
     estimated scf accuracy    <       0.00190317 Ry

     iteration #  5     ecut=    40.00 Ry     beta=0.60
     Davidson diagonalization with overlap
     ethr =  3.81E-06,  avg # of iterations =  2.1

     total cpu time spent up to now is     9016.4 secs

     total energy              =    -469.12154447 Ry
     Harris-Foulkes estimate   =    -469.12165745 Ry
     estimated scf accuracy    <       0.00140132 Ry

     iteration #  6     ecut=    40.00 Ry     beta=0.60
     Davidson diagonalization with overlap
     ethr =  2.80E-06,  avg # of iterations =  1.0

     total cpu time spent up to now is     9090.4 secs

     total energy              =    -469.12138983 Ry
     Harris-Foulkes estimate   =    -469.12157079 Ry
     estimated scf accuracy    <       0.00107077 Ry

     iteration #  7     ecut=    40.00 Ry     beta=0.60
     Davidson diagonalization with overlap
     ethr =  2.14E-06,  avg # of iterations =  1.7

     total cpu time spent up to now is     9167.2 secs

     total energy              =    -469.12136405 Ry
     Harris-Foulkes estimate   =    -469.12143382 Ry
     estimated scf accuracy    <       0.00036455 Ry

     iteration #  8     ecut=    40.00 Ry     beta=0.60
     Davidson diagonalization with overlap
     ethr =  7.29E-07,  avg # of iterations =  3.0

     total cpu time spent up to now is     9254.7 secs

     total energy              =    -469.12140071 Ry
     Harris-Foulkes estimate   =    -469.12140424 Ry
     estimated scf accuracy    <       0.00004323 Ry

     iteration #  9     ecut=    40.00 Ry     beta=0.60
     Davidson diagonalization with overlap
     ethr =  8.65E-08,  avg # of iterations =  4.2

     total cpu time spent up to now is     9355.8 secs

     total energy              =    -469.12140801 Ry
     Harris-Foulkes estimate   =    -469.12140823 Ry
     estimated scf accuracy    <       0.00000187 Ry

     iteration # 10     ecut=    40.00 Ry     beta=0.60
     Davidson diagonalization with overlap
     ethr =  3.73E-09,  avg # of iterations =  4.2

     total cpu time spent up to now is     9460.4 secs

     total energy              =    -469.12140840 Ry
     Harris-Foulkes estimate   =    -469.12140847 Ry
     estimated scf accuracy    <       0.00000031 Ry

     iteration # 11     ecut=    40.00 Ry     beta=0.60
     Davidson diagonalization with overlap
     ethr =  6.24E-10,  avg # of iterations =  4.1

     total cpu time spent up to now is     9563.6 secs

     total energy              =    -469.12140845 Ry
     Harris-Foulkes estimate   =    -469.12140848 Ry
     estimated scf accuracy    <       0.00000008 Ry

     iteration # 12     ecut=    40.00 Ry     beta=0.60
     Davidson diagonalization with overlap
     ethr =  1.66E-10,  avg # of iterations =  4.0

     total cpu time spent up to now is     9665.1 secs

     total energy              =    -469.12140846 Ry
     Harris-Foulkes estimate   =    -469.12140847 Ry
     estimated scf accuracy    <       0.00000008 Ry

     iteration # 13     ecut=    40.00 Ry     beta=0.60
     Davidson diagonalization with overlap
     ethr =  1.66E-10,  avg # of iterations =  1.0

     total cpu time spent up to now is     9739.4 secs

     total energy              =    -469.12140846 Ry
     Harris-Foulkes estimate   =    -469.12140846 Ry
     estimated scf accuracy    <       0.00000004 Ry

     iteration # 14     ecut=    40.00 Ry     beta=0.60
     Davidson diagonalization with overlap
     ethr =  7.43E-11,  avg # of iterations =  2.2

     total cpu time spent up to now is     9818.6 secs

     total energy              =    -469.12140846 Ry
     Harris-Foulkes estimate   =    -469.12140846 Ry
     estimated scf accuracy    <          5.2E-09 Ry

     iteration # 15     ecut=    40.00 Ry     beta=0.60
     Davidson diagonalization with overlap
     ethr =  1.03E-11,  avg # of iterations =  4.3

     total cpu time spent up to now is     9927.3 secs

     total energy              =    -469.12140846 Ry
     Harris-Foulkes estimate   =    -469.12140846 Ry
     estimated scf accuracy    <          2.6E-09 Ry

     iteration # 16     ecut=    40.00 Ry     beta=0.60
     Davidson diagonalization with overlap
     ethr =  5.11E-12,  avg # of iterations =  1.0

     total cpu time spent up to now is    10001.7 secs

     total energy              =    -469.12140846 Ry
     Harris-Foulkes estimate   =    -469.12140846 Ry
     estimated scf accuracy    <          1.0E-09 Ry

     iteration # 17     ecut=    40.00 Ry     beta=0.60
     Davidson diagonalization with overlap
     ethr =  2.08E-12,  avg # of iterations =  1.8

     total cpu time spent up to now is    10078.8 secs

     total energy              =    -469.12140846 Ry
     Harris-Foulkes estimate   =    -469.12140846 Ry
     estimated scf accuracy    <          2.8E-10 Ry

     iteration # 18     ecut=    40.00 Ry     beta=0.60
     Davidson diagonalization with overlap
     ethr =  5.60E-13,  avg # of iterations =  4.1

     total cpu time spent up to now is    10178.4 secs

     End of self-consistent calculation

     Number of k-points >= 100: set verbosity='high' to print the bands.

     the Fermi energy is    15.7833 ev

!    total energy              =    -469.12140846 Ry
     Harris-Foulkes estimate   =    -469.12140846 Ry
     estimated scf accuracy    <          3.0E-12 Ry

     The total energy is the sum of the following terms:

     one-electron contribution =    -116.65536784 Ry
     hartree contribution      =      79.27767350 Ry
     xc contribution           =     -65.89999266 Ry
     ewald contribution        =    -365.84074066 Ry
     smearing contrib. (-TS)   =      -0.00298079 Ry

     convergence has been achieved in  18 iterations

     Forces acting on atoms (Ry/au):

     atom    1 type  2   force =    -0.00196547    0.00113477   -0.00570927
     atom    2 type  2   force =     0.00196542   -0.00113473    0.00570932
     atom    3 type  1   force =    -0.00445145    0.00257004    0.00424542
     atom    4 type  1   force =     0.00445150   -0.00257007   -0.00424547

     Total force =     0.012821     Total SCF correction =     0.000004


     entering subroutine stress ...

          total   stress  (Ry/bohr**3)                   (kbar)     P=    4.89
  -0.00001007  -0.00003109   0.00001867         -1.48     -4.57      2.75
  -0.00003109  -0.00004598  -0.00001078         -4.57     -6.76     -1.59
   0.00001867  -0.00001078   0.00015577          2.75     -1.59     22.91


     number of scf cycles    =   4
     number of bfgs steps    =   3

     enthalpy old            =    -469.1207963560 Ry
     enthalpy new            =    -469.1214084581 Ry

     CASE: enthalpy_new < enthalpy_old

     new trust radius        =       0.0310463981 bohr
     new conv_thr            =            1.0E-10 Ry

     new unit-cell volume =    482.96199 a.u.^3 (    71.56758 Ang^3 )

CELL_PARAMETERS (alat=  1.88972599)
   1.459219999  -2.512657849  -4.876790109
  -1.481536960   2.525542552  -4.890462320
   2.927952324  -0.020277462   4.890462320

ATOMIC_POSITIONS (angstrom)
Ti       2.903589395  -0.006211519  -4.888489268
Ti       1.450871580   0.832515566  -2.427835253
Nb       2.905481025  -0.007303652   0.022650551
Nb       2.930516270  -1.691934483  -2.448512729


     NEW-OLD atomic charge density approx. for the potential

     Check: negative/imaginary core charge=   -0.000001    0.000000
     extrapolated charge   50.14988, renormalised to   50.00000

     total cpu time spent up to now is    10201.7 secs

     per-process dynamical memory:   255.7 Mb

     Self-consistent Calculation

     iteration #  1     ecut=    40.00 Ry     beta=0.60
     Davidson diagonalization with overlap
     c_bands:  1 eigenvalues not converged
     c_bands:  1 eigenvalues not converged
     ethr =  1.00E-06,  avg # of iterations =  6.0

     total cpu time spent up to now is    10388.3 secs

     total energy              =    -469.11957670 Ry
     Harris-Foulkes estimate   =    -468.87191552 Ry
     estimated scf accuracy    <       0.00235238 Ry

     iteration #  2     ecut=    40.00 Ry     beta=0.60
     Davidson diagonalization with overlap
     c_bands:  1 eigenvalues not converged
     c_bands:  1 eigenvalues not converged
     c_bands:  1 eigenvalues not converged
     c_bands:  2 eigenvalues not converged
     c_bands:  1 eigenvalues not converged
     c_bands:  1 eigenvalues not converged
     c_bands:  1 eigenvalues not converged
     c_bands:  1 eigenvalues not converged
     ethr =  4.70E-06,  avg # of iterations =  6.0

     total cpu time spent up to now is    10553.2 secs

     total energy              =    -469.11923269 Ry
     Harris-Foulkes estimate   =    -469.12648711 Ry
     estimated scf accuracy    <       0.04259698 Ry

     iteration #  3     ecut=    40.00 Ry     beta=0.60
     Davidson diagonalization with overlap
     ethr =  4.70E-06,  avg # of iterations =  5.1

     total cpu time spent up to now is    10686.3 secs

     total energy              =    -469.12211840 Ry
     Harris-Foulkes estimate   =    -469.12287350 Ry
     estimated scf accuracy    <       0.00223359 Ry

     iteration #  4     ecut=    40.00 Ry     beta=0.60
     Davidson diagonalization with overlap
     ethr =  4.47E-06,  avg # of iterations =  2.3

     total cpu time spent up to now is    10768.8 secs

     total energy              =    -469.12231682 Ry
     Harris-Foulkes estimate   =    -469.12238722 Ry
     estimated scf accuracy    <       0.00060892 Ry

     iteration #  5     ecut=    40.00 Ry     beta=0.60
     Davidson diagonalization with overlap
     ethr =  1.22E-06,  avg # of iterations =  2.8

     total cpu time spent up to now is    10850.7 secs

     total energy              =    -469.12221861 Ry
     Harris-Foulkes estimate   =    -469.12234585 Ry
     estimated scf accuracy    <       0.00050001 Ry

     iteration #  6     ecut=    40.00 Ry     beta=0.60
     Davidson diagonalization with overlap
     ethr =  1.00E-06,  avg # of iterations =  2.8

     total cpu time spent up to now is    10933.6 secs

     total energy              =    -469.12223036 Ry
     Harris-Foulkes estimate   =    -469.12226955 Ry
     estimated scf accuracy    <       0.00026919 Ry

     iteration #  7     ecut=    40.00 Ry     beta=0.60
     Davidson diagonalization with overlap
     ethr =  5.38E-07,  avg # of iterations =  2.1

     total cpu time spent up to now is    11013.4 secs

     total energy              =    -469.12225338 Ry
     Harris-Foulkes estimate   =    -469.12225502 Ry
     estimated scf accuracy    <       0.00001611 Ry

     iteration #  8     ecut=    40.00 Ry     beta=0.60
     Davidson diagonalization with overlap
     ethr =  3.22E-08,  avg # of iterations =  4.6

     total cpu time spent up to now is    11123.8 secs

     total energy              =    -469.12225734 Ry
     Harris-Foulkes estimate   =    -469.12225818 Ry
     estimated scf accuracy    <       0.00000344 Ry

     iteration #  9     ecut=    40.00 Ry     beta=0.60
     Davidson diagonalization with overlap
     ethr =  6.89E-09,  avg # of iterations =  1.4

     total cpu time spent up to now is    11198.6 secs

     total energy              =    -469.12225689 Ry
     Harris-Foulkes estimate   =    -469.12225753 Ry
     estimated scf accuracy    <       0.00000167 Ry

     iteration # 10     ecut=    40.00 Ry     beta=0.60
     Davidson diagonalization with overlap
     ethr =  3.35E-09,  avg # of iterations =  2.8

     total cpu time spent up to now is    11288.1 secs

     total energy              =    -469.12225701 Ry
     Harris-Foulkes estimate   =    -469.12225711 Ry
     estimated scf accuracy    <       0.00000020 Ry

     iteration # 11     ecut=    40.00 Ry     beta=0.60
     Davidson diagonalization with overlap
     ethr =  4.06E-10,  avg # of iterations =  4.3

     total cpu time spent up to now is    11413.0 secs

     total energy              =    -469.12225706 Ry
     Harris-Foulkes estimate   =    -469.12225709 Ry
     estimated scf accuracy    <       0.00000020 Ry

     iteration # 12     ecut=    40.00 Ry     beta=0.60
     Davidson diagonalization with overlap
     ethr =  4.06E-10,  avg # of iterations =  1.0

     total cpu time spent up to now is    11487.0 secs

     total energy              =    -469.12225706 Ry
     Harris-Foulkes estimate   =    -469.12225707 Ry
     estimated scf accuracy    <       0.00000006 Ry

     iteration # 13     ecut=    40.00 Ry     beta=0.60
     Davidson diagonalization with overlap
     ethr =  1.16E-10,  avg # of iterations =  3.9

     total cpu time spent up to now is    11584.6 secs

     total energy              =    -469.12225707 Ry
     Harris-Foulkes estimate   =    -469.12225707 Ry
     estimated scf accuracy    <          3.5E-09 Ry

     iteration # 14     ecut=    40.00 Ry     beta=0.60
     Davidson diagonalization with overlap
     ethr =  7.05E-12,  avg # of iterations =  3.3

     total cpu time spent up to now is    11675.1 secs

     total energy              =    -469.12225707 Ry
     Harris-Foulkes estimate   =    -469.12225707 Ry
     estimated scf accuracy    <          7.2E-10 Ry

     iteration # 15     ecut=    40.00 Ry     beta=0.60
     Davidson diagonalization with overlap
     ethr =  1.43E-12,  avg # of iterations =  3.7

     total cpu time spent up to now is    11768.0 secs

     End of self-consistent calculation

     Number of k-points >= 100: set verbosity='high' to print the bands.

     the Fermi energy is    15.7188 ev

!    total energy              =    -469.12225707 Ry
     Harris-Foulkes estimate   =    -469.12225707 Ry
     estimated scf accuracy    <          4.6E-11 Ry

     The total energy is the sum of the following terms:

     one-electron contribution =    -117.26263247 Ry
     hartree contribution      =      79.46565384 Ry
     xc contribution           =     -65.88945250 Ry
     ewald contribution        =    -365.43291394 Ry
     smearing contrib. (-TS)   =      -0.00291199 Ry

     convergence has been achieved in  15 iterations

     Forces acting on atoms (Ry/au):

     atom    1 type  2   force =    -0.00278232    0.00160638   -0.00542717
     atom    2 type  2   force =     0.00278214   -0.00160627    0.00542688
     atom    3 type  1   force =    -0.00499998    0.00288674    0.00260307
     atom    4 type  1   force =     0.00500017   -0.00288685   -0.00260278

     Total force =     0.012640     Total SCF correction =     0.000017


     entering subroutine stress ...

          total   stress  (Ry/bohr**3)                   (kbar)     P=   -0.31
  -0.00002984  -0.00002774   0.00002178         -4.39     -4.08      3.20
  -0.00002774  -0.00006187  -0.00001257         -4.08     -9.10     -1.85
   0.00002178  -0.00001257   0.00008547          3.20     -1.85     12.57


     number of scf cycles    =   5
     number of bfgs steps    =   4

     enthalpy old            =    -469.1214084581 Ry
     enthalpy new            =    -469.1222570708 Ry

     CASE: enthalpy_new < enthalpy_old

     new trust radius        =       0.0463120811 bohr
     new conv_thr            =            1.0E-10 Ry

     new unit-cell volume =    483.75805 a.u.^3 (    71.68555 Ang^3 )

CELL_PARAMETERS (alat=  1.88972599)
   1.453963831  -2.497221396  -4.922482211
  -1.492278348   2.519342291  -4.946014788
   2.927953434  -0.032679906   4.946014788

ATOMIC_POSITIONS (angstrom)
Ti       2.883775586  -0.007173816  -4.944565644
Ti       1.444443460   0.823825039  -2.441119143
Nb       2.889469036  -0.010460930   0.034955274
Nb       2.931027937  -1.692229894  -2.474624410


     NEW-OLD atomic charge density approx. for the potential

     Check: negative/imaginary core charge=   -0.000001    0.000000
     extrapolated charge   50.07898, renormalised to   50.00000

     total cpu time spent up to now is    11791.3 secs

     per-process dynamical memory:   255.7 Mb

     Self-consistent Calculation

     iteration #  1     ecut=    40.00 Ry     beta=0.60
     Davidson diagonalization with overlap
     c_bands:  1 eigenvalues not converged
     c_bands:  1 eigenvalues not converged
     c_bands:  1 eigenvalues not converged
     c_bands:  1 eigenvalues not converged
     c_bands:  1 eigenvalues not converged
     ethr =  1.00E-06,  avg # of iterations =  8.5

     total cpu time spent up to now is    12000.9 secs

     total energy              =    -469.12242282 Ry
     Harris-Foulkes estimate   =    -468.99091524 Ry
     estimated scf accuracy    <       0.00123519 Ry

     iteration #  2     ecut=    40.00 Ry     beta=0.60
     Davidson diagonalization with overlap
     c_bands:  1 eigenvalues not converged
     ethr =  2.47E-06,  avg # of iterations =  4.7

     total cpu time spent up to now is    12149.6 secs

     total energy              =    -469.12293521 Ry
     Harris-Foulkes estimate   =    -469.12385692 Ry
     estimated scf accuracy    <       0.00246210 Ry

     iteration #  3     ecut=    40.00 Ry     beta=0.60
     Davidson diagonalization with overlap
     ethr =  2.47E-06,  avg # of iterations =  4.7

     total cpu time spent up to now is    12264.6 secs

     total energy              =    -469.12301884 Ry
     Harris-Foulkes estimate   =    -469.12356417 Ry
     estimated scf accuracy    <       0.00271064 Ry

     iteration #  4     ecut=    40.00 Ry     beta=0.60
     Davidson diagonalization with overlap
     ethr =  2.47E-06,  avg # of iterations =  4.0

     total cpu time spent up to now is    12362.5 secs

     total energy              =    -469.12329487 Ry
     Harris-Foulkes estimate   =    -469.12334313 Ry
     estimated scf accuracy    <       0.00027862 Ry

     iteration #  5     ecut=    40.00 Ry     beta=0.60
     Davidson diagonalization with overlap
     ethr =  5.57E-07,  avg # of iterations =  1.9

     total cpu time spent up to now is    12441.1 secs

     total energy              =    -469.12328795 Ry
     Harris-Foulkes estimate   =    -469.12331082 Ry
     estimated scf accuracy    <       0.00008550 Ry

     iteration #  6     ecut=    40.00 Ry     beta=0.60
     Davidson diagonalization with overlap
     ethr =  1.71E-07,  avg # of iterations =  4.2

     total cpu time spent up to now is    12543.8 secs

     total energy              =    -469.12330928 Ry
     Harris-Foulkes estimate   =    -469.12331223 Ry
     estimated scf accuracy    <       0.00003590 Ry

     iteration #  7     ecut=    40.00 Ry     beta=0.60
     Davidson diagonalization with overlap
     ethr =  7.18E-08,  avg # of iterations =  1.0

     total cpu time spent up to now is    12618.1 secs

     total energy              =    -469.12330818 Ry
     Harris-Foulkes estimate   =    -469.12331104 Ry
     estimated scf accuracy    <       0.00002284 Ry

     iteration #  8     ecut=    40.00 Ry     beta=0.60
     Davidson diagonalization with overlap
     ethr =  4.57E-08,  avg # of iterations =  1.6

     total cpu time spent up to now is    12693.1 secs

     total energy              =    -469.12330819 Ry
     Harris-Foulkes estimate   =    -469.12330910 Ry
     estimated scf accuracy    <       0.00000673 Ry

     iteration #  9     ecut=    40.00 Ry     beta=0.60
     Davidson diagonalization with overlap
     ethr =  1.35E-08,  avg # of iterations =  3.6

     total cpu time spent up to now is    12785.0 secs

     total energy              =    -469.12330859 Ry
     Harris-Foulkes estimate   =    -469.12330899 Ry
     estimated scf accuracy    <       0.00000155 Ry

     iteration # 10     ecut=    40.00 Ry     beta=0.60
     Davidson diagonalization with overlap
     ethr =  3.11E-09,  avg # of iterations =  3.9

     total cpu time spent up to now is    12886.0 secs

     total energy              =    -469.12330889 Ry
     Harris-Foulkes estimate   =    -469.12330896 Ry
     estimated scf accuracy    <       0.00000083 Ry

     iteration # 11     ecut=    40.00 Ry     beta=0.60
     Davidson diagonalization with overlap
     ethr =  1.66E-09,  avg # of iterations =  1.0

     total cpu time spent up to now is    12959.0 secs

     total energy              =    -469.12330883 Ry
     Harris-Foulkes estimate   =    -469.12330891 Ry
     estimated scf accuracy    <       0.00000043 Ry

     iteration # 12     ecut=    40.00 Ry     beta=0.60
     Davidson diagonalization with overlap
     ethr =  8.56E-10,  avg # of iterations =  3.3

     total cpu time spent up to now is    13049.6 secs

     total energy              =    -469.12330888 Ry
     Harris-Foulkes estimate   =    -469.12330889 Ry
     estimated scf accuracy    <       0.00000004 Ry

     iteration # 13     ecut=    40.00 Ry     beta=0.60
     Davidson diagonalization with overlap
     ethr =  7.55E-11,  avg # of iterations =  2.4

     total cpu time spent up to now is    13131.9 secs

     total energy              =    -469.12330888 Ry
     Harris-Foulkes estimate   =    -469.12330889 Ry
     estimated scf accuracy    <       0.00000001 Ry

     iteration # 14     ecut=    40.00 Ry     beta=0.60
     Davidson diagonalization with overlap
     ethr =  2.84E-11,  avg # of iterations =  2.6

     total cpu time spent up to now is    13214.0 secs

     total energy              =    -469.12330888 Ry
     Harris-Foulkes estimate   =    -469.12330888 Ry
     estimated scf accuracy    <          1.5E-09 Ry

     iteration # 15     ecut=    40.00 Ry     beta=0.60
     Davidson diagonalization with overlap
     ethr =  3.07E-12,  avg # of iterations =  4.4

     total cpu time spent up to now is    13320.5 secs

     total energy              =    -469.12330888 Ry
     Harris-Foulkes estimate   =    -469.12330888 Ry
     estimated scf accuracy    <          2.8E-10 Ry

     iteration # 16     ecut=    40.00 Ry     beta=0.60
     Davidson diagonalization with overlap
     ethr =  5.52E-13,  avg # of iterations =  1.7

     total cpu time spent up to now is    13396.2 secs

     End of self-consistent calculation

     Number of k-points >= 100: set verbosity='high' to print the bands.

     the Fermi energy is    15.6759 ev

!    total energy              =    -469.12330888 Ry
     Harris-Foulkes estimate   =    -469.12330889 Ry
     estimated scf accuracy    <          3.4E-11 Ry

     The total energy is the sum of the following terms:

     one-electron contribution =    -117.70826203 Ry
     hartree contribution      =      79.62911987 Ry
     xc contribution           =     -65.88669339 Ry
     ewald contribution        =    -365.15469544 Ry
     smearing contrib. (-TS)   =      -0.00277789 Ry

     convergence has been achieved in  16 iterations

     Forces acting on atoms (Ry/au):

     atom    1 type  2   force =    -0.00416304    0.00240353   -0.00438927
     atom    2 type  2   force =     0.00416358   -0.00240384    0.00438957
     atom    3 type  1   force =    -0.00571798    0.00330128    0.00027939
[...]
         2           Ti  tau(   2) = (   1.6154695   0.6558999  -2.3852418  )
         3           Nb  tau(   3) = (   2.8482407  -0.0558409   0.0085234  )
         4           Nb  tau(   4) = (   3.2906886  -1.8998801  -2.3942061  )

     number of k points=   595  Marzari-Vanderbilt smearing, width (Ry)=  0.0200

     Number of k-points >= 100: set verbosity='high' to print them.

     Dense  grid:    64929 G-vectors     FFT dimensions: (  72,  72,  72)

     Smooth grid:    16455 G-vectors     FFT dimensions: (  45,  45,  45)

     Estimated max dynamical RAM per process >     155.94Mb

     Estimated total allocated dynamical RAM >     623.76Mb

     Initial potential from superposition of free atoms

     starting charge   47.99445, renormalised to   50.00000
     Starting wfc are   46 randomized atomic wfcs

     total cpu time spent up to now is    55856.0 secs

     per-process dynamical memory:   239.1 Mb

     Self-consistent Calculation

     iteration #  1     ecut=    40.00 Ry     beta=0.60
     Davidson diagonalization with overlap
     c_bands:  2 eigenvalues not converged
     c_bands:  1 eigenvalues not converged
     c_bands:  1 eigenvalues not converged
     c_bands:  2 eigenvalues not converged
     c_bands:  1 eigenvalues not converged
     c_bands:  1 eigenvalues not converged
     c_bands:  1 eigenvalues not converged
     c_bands:  1 eigenvalues not converged
     c_bands:  1 eigenvalues not converged
     c_bands:  1 eigenvalues not converged
     c_bands:  1 eigenvalues not converged
     c_bands:  1 eigenvalues not converged
     c_bands:  1 eigenvalues not converged
     c_bands:  1 eigenvalues not converged
     c_bands:  1 eigenvalues not converged
     c_bands:  1 eigenvalues not converged
     c_bands:  2 eigenvalues not converged
     c_bands:  1 eigenvalues not converged
     c_bands:  1 eigenvalues not converged
     c_bands:  1 eigenvalues not converged
     c_bands:  1 eigenvalues not converged
     c_bands:  1 eigenvalues not converged
     c_bands:  1 eigenvalues not converged
     c_bands:  1 eigenvalues not converged
     c_bands:  1 eigenvalues not converged
     c_bands:  1 eigenvalues not converged
     c_bands:  1 eigenvalues not converged
     c_bands:  2 eigenvalues not converged
     c_bands:  1 eigenvalues not converged
     c_bands:  1 eigenvalues not converged
     c_bands:  1 eigenvalues not converged
     c_bands:  2 eigenvalues not converged
     c_bands:  1 eigenvalues not converged
     c_bands:  2 eigenvalues not converged
     c_bands:  2 eigenvalues not converged
     c_bands:  2 eigenvalues not converged
     c_bands:  1 eigenvalues not converged
     c_bands:  1 eigenvalues not converged
     c_bands:  1 eigenvalues not converged
     c_bands:  1 eigenvalues not converged
     c_bands:  1 eigenvalues not converged
     c_bands:  1 eigenvalues not converged
     c_bands:  1 eigenvalues not converged
     c_bands:  1 eigenvalues not converged
     c_bands:  1 eigenvalues not converged
     c_bands:  1 eigenvalues not converged
     c_bands:  1 eigenvalues not converged
     c_bands:  2 eigenvalues not converged
     c_bands:  1 eigenvalues not converged
     c_bands:  1 eigenvalues not converged
     c_bands:  1 eigenvalues not converged
     c_bands:  1 eigenvalues not converged
     c_bands:  1 eigenvalues not converged
     c_bands:  2 eigenvalues not converged
     c_bands:  1 eigenvalues not converged
     c_bands:  2 eigenvalues not converged
     c_bands:  1 eigenvalues not converged
     c_bands:  1 eigenvalues not converged
     c_bands:  1 eigenvalues not converged
     c_bands:  1 eigenvalues not converged
     c_bands:  1 eigenvalues not converged
     c_bands:  1 eigenvalues not converged
     c_bands:  1 eigenvalues not converged
     c_bands:  1 eigenvalues not converged
     c_bands:  1 eigenvalues not converged
     c_bands:  1 eigenvalues not converged
     c_bands:  2 eigenvalues not converged
     c_bands:  1 eigenvalues not converged
     c_bands:  1 eigenvalues not converged
     c_bands:  1 eigenvalues not converged
     c_bands:  1 eigenvalues not converged
     c_bands:  1 eigenvalues not converged
     c_bands:  1 eigenvalues not converged
     c_bands:  1 eigenvalues not converged
     c_bands:  1 eigenvalues not converged
     c_bands:  1 eigenvalues not converged
     c_bands:  1 eigenvalues not converged
     c_bands:  1 eigenvalues not converged
     c_bands:  1 eigenvalues not converged
     c_bands:  1 eigenvalues not converged
     c_bands:  1 eigenvalues not converged
     c_bands:  1 eigenvalues not converged
     c_bands:  1 eigenvalues not converged
     c_bands:  1 eigenvalues not converged
     c_bands:  1 eigenvalues not converged
     c_bands:  1 eigenvalues not converged
     c_bands:  1 eigenvalues not converged
     c_bands:  1 eigenvalues not converged
     c_bands:  2 eigenvalues not converged
     c_bands:  1 eigenvalues not converged
     c_bands:  2 eigenvalues not converged
     c_bands:  2 eigenvalues not converged
     c_bands:  1 eigenvalues not converged
     c_bands:  1 eigenvalues not converged
     c_bands:  1 eigenvalues not converged
     c_bands:  1 eigenvalues not converged
     c_bands:  1 eigenvalues not converged
     ethr =  1.00E-06,  avg # of iterations = 14.0

     total cpu time spent up to now is    56132.8 secs

     total energy              =    -459.16338872 Ry
     Harris-Foulkes estimate   =    -471.01497042 Ry
     estimated scf accuracy    <      14.95076501 Ry

     iteration #  2     ecut=    40.00 Ry     beta=0.60
     Davidson diagonalization with overlap
     ethr =  1.00E-02,  avg # of iterations =  6.1

     total cpu time spent up to now is    56292.9 secs

     total energy              =    -467.81641412 Ry
     Harris-Foulkes estimate   =    -485.62884177 Ry
     estimated scf accuracy    <      49.57423616 Ry

     iteration #  3     ecut=    40.00 Ry     beta=0.60
     Davidson diagonalization with overlap
     ethr =  1.00E-02,  avg # of iterations =  4.0

     total cpu time spent up to now is    56402.1 secs

     total energy              =    -469.97235617 Ry
     Harris-Foulkes estimate   =    -470.71928139 Ry
     estimated scf accuracy    <       9.79025673 Ry

     iteration #  4     ecut=    40.00 Ry     beta=0.60
     Davidson diagonalization with overlap
     ethr =  1.00E-02,  avg # of iterations =  1.1

     total cpu time spent up to now is    56473.6 secs

     total energy              =    -468.69370586 Ry
     Harris-Foulkes estimate   =    -470.02227382 Ry
     estimated scf accuracy    <       7.56229960 Ry

     iteration #  5     ecut=    40.00 Ry     beta=0.60
     Davidson diagonalization with overlap
     ethr =  1.00E-02,  avg # of iterations =  3.3

     total cpu time spent up to now is    56557.4 secs

     total energy              =    -469.08672272 Ry
     Harris-Foulkes estimate   =    -469.10384839 Ry
     estimated scf accuracy    <       0.87096186 Ry

     iteration #  6     ecut=    40.00 Ry     beta=0.60
     Davidson diagonalization with overlap
     ethr =  1.74E-03,  avg # of iterations =  4.7

     total cpu time spent up to now is    56658.0 secs

     total energy              =    -469.04712343 Ry
     Harris-Foulkes estimate   =    -469.17322326 Ry
     estimated scf accuracy    <       0.35758206 Ry

     iteration #  7     ecut=    40.00 Ry     beta=0.60
     Davidson diagonalization with overlap
     ethr =  7.15E-04,  avg # of iterations =  4.9

     total cpu time spent up to now is    56769.0 secs

     total energy              =    -469.08631415 Ry
     Harris-Foulkes estimate   =    -469.17122312 Ry
     estimated scf accuracy    <       0.49860991 Ry

     iteration #  8     ecut=    40.00 Ry     beta=0.60
     Davidson diagonalization with overlap
     ethr =  7.15E-04,  avg # of iterations =  3.2

     total cpu time spent up to now is    56851.8 secs

     total energy              =    -469.13287396 Ry
     Harris-Foulkes estimate   =    -469.13592596 Ry
     estimated scf accuracy    <       0.02541756 Ry

     iteration #  9     ecut=    40.00 Ry     beta=0.60
     Davidson diagonalization with overlap
     ethr =  5.08E-05,  avg # of iterations =  5.5

     total cpu time spent up to now is    56979.5 secs

     total energy              =    -469.15473946 Ry
     Harris-Foulkes estimate   =    -469.15423082 Ry
     estimated scf accuracy    <       0.16756994 Ry

     iteration # 10     ecut=    40.00 Ry     beta=0.60
     Davidson diagonalization with overlap
     ethr =  5.08E-05,  avg # of iterations =  1.0

     total cpu time spent up to now is    57050.8 secs

     total energy              =    -469.15041284 Ry
     Harris-Foulkes estimate   =    -469.15560358 Ry
     estimated scf accuracy    <       0.19856406 Ry

     iteration # 11     ecut=    40.00 Ry     beta=0.60
     Davidson diagonalization with overlap
     ethr =  5.08E-05,  avg # of iterations =  1.0

     total cpu time spent up to now is    57122.1 secs

     total energy              =    -469.13711604 Ry
     Harris-Foulkes estimate   =    -469.15097283 Ry
     estimated scf accuracy    <       0.17801755 Ry

     iteration # 12     ecut=    40.00 Ry     beta=0.60
     Davidson diagonalization with overlap
     ethr =  5.08E-05,  avg # of iterations =  3.0

     total cpu time spent up to now is    57202.9 secs

     total energy              =    -469.13630089 Ry
     Harris-Foulkes estimate   =    -469.13945140 Ry
     estimated scf accuracy    <       0.08065885 Ry

     iteration # 13     ecut=    40.00 Ry     beta=0.60
     Davidson diagonalization with overlap
     ethr =  5.08E-05,  avg # of iterations =  2.1

     total cpu time spent up to now is    57278.4 secs

     total energy              =    -469.13468130 Ry
     Harris-Foulkes estimate   =    -469.13718241 Ry
     estimated scf accuracy    <       0.04780712 Ry

     iteration # 14     ecut=    40.00 Ry     beta=0.60
     Davidson diagonalization with overlap
     ethr =  5.08E-05,  avg # of iterations =  1.3

     total cpu time spent up to now is    57350.5 secs

     total energy              =    -469.13180266 Ry
     Harris-Foulkes estimate   =    -469.13529638 Ry
     estimated scf accuracy    <       0.02348169 Ry

     iteration # 15     ecut=    40.00 Ry     beta=0.60
     Davidson diagonalization with overlap
     ethr =  4.70E-05,  avg # of iterations =  4.4

     total cpu time spent up to now is    57445.4 secs

     total energy              =    -469.13464885 Ry
     Harris-Foulkes estimate   =    -469.13473140 Ry
     estimated scf accuracy    <       0.00084363 Ry

     iteration # 16     ecut=    40.00 Ry     beta=0.60
     Davidson diagonalization with overlap
     c_bands:  1 eigenvalues not converged
     c_bands:  1 eigenvalues not converged
     c_bands:  1 eigenvalues not converged
     c_bands:  1 eigenvalues not converged
     c_bands:  1 eigenvalues not converged
     c_bands:  1 eigenvalues not converged
     c_bands:  2 eigenvalues not converged
     c_bands:  1 eigenvalues not converged
     ethr =  1.69E-06,  avg # of iterations =  6.5

     total cpu time spent up to now is    57559.4 secs

     total energy              =    -469.13477078 Ry
     Harris-Foulkes estimate   =    -469.13484833 Ry
     estimated scf accuracy    <       0.00052233 Ry

     iteration # 17     ecut=    40.00 Ry     beta=0.60
     Davidson diagonalization with overlap
     ethr =  1.04E-06,  avg # of iterations =  1.9

     total cpu time spent up to now is    57634.5 secs

     total energy              =    -469.13479971 Ry
     Harris-Foulkes estimate   =    -469.13480120 Ry
     estimated scf accuracy    <       0.00003645 Ry

     iteration # 18     ecut=    40.00 Ry     beta=0.60
     Davidson diagonalization with overlap
     ethr =  7.29E-08,  avg # of iterations =  4.4

     total cpu time spent up to now is    57738.8 secs

     total energy              =    -469.13481425 Ry
     Harris-Foulkes estimate   =    -469.13481456 Ry
     estimated scf accuracy    <       0.00000243 Ry

     iteration # 19     ecut=    40.00 Ry     beta=0.60
     Davidson diagonalization with overlap
     ethr =  4.86E-09,  avg # of iterations =  2.6

     total cpu time spent up to now is    57824.6 secs

     total energy              =    -469.13481445 Ry
     Harris-Foulkes estimate   =    -469.13481459 Ry
     estimated scf accuracy    <       0.00000204 Ry

     iteration # 20     ecut=    40.00 Ry     beta=0.60
     Davidson diagonalization with overlap
     ethr =  4.08E-09,  avg # of iterations =  1.1

     total cpu time spent up to now is    57896.6 secs

     total energy              =    -469.13481438 Ry
     Harris-Foulkes estimate   =    -469.13481454 Ry
     estimated scf accuracy    <       0.00000180 Ry

     iteration # 21     ecut=    40.00 Ry     beta=0.60
     Davidson diagonalization with overlap
     ethr =  3.59E-09,  avg # of iterations =  1.0

     total cpu time spent up to now is    57968.3 secs

     total energy              =    -469.13481433 Ry
     Harris-Foulkes estimate   =    -469.13481443 Ry
     estimated scf accuracy    <       0.00000074 Ry

     iteration # 22     ecut=    40.00 Ry     beta=0.60
     Davidson diagonalization with overlap
     ethr =  1.48E-09,  avg # of iterations =  3.1

     total cpu time spent up to now is    58051.8 secs

     total energy              =    -469.13481439 Ry
     Harris-Foulkes estimate   =    -469.13481439 Ry
     estimated scf accuracy    <       0.00000001 Ry

     iteration # 23     ecut=    40.00 Ry     beta=0.60
     Davidson diagonalization with overlap
     ethr =  2.67E-11,  avg # of iterations =  5.1

     total cpu time spent up to now is    58166.6 secs

     total energy              =    -469.13481440 Ry
     Harris-Foulkes estimate   =    -469.13481440 Ry
     estimated scf accuracy    <          8.1E-09 Ry

     iteration # 24     ecut=    40.00 Ry     beta=0.60
     Davidson diagonalization with overlap
     ethr =  1.62E-11,  avg # of iterations =  1.0

     total cpu time spent up to now is    58237.9 secs

     total energy              =    -469.13481440 Ry
     Harris-Foulkes estimate   =    -469.13481440 Ry
     estimated scf accuracy    <          1.9E-09 Ry

     iteration # 25     ecut=    40.00 Ry     beta=0.60
     Davidson diagonalization with overlap
     ethr =  3.86E-12,  avg # of iterations =  3.0

     total cpu time spent up to now is    58319.0 secs

     total energy              =    -469.13481440 Ry
     Harris-Foulkes estimate   =    -469.13481440 Ry
     estimated scf accuracy    <          4.4E-10 Ry

     iteration # 26     ecut=    40.00 Ry     beta=0.60
     Davidson diagonalization with overlap
     ethr =  8.77E-13,  avg # of iterations =  4.0

     total cpu time spent up to now is    58412.2 secs

     total energy              =    -469.13481440 Ry
     Harris-Foulkes estimate   =    -469.13481440 Ry
     estimated scf accuracy    <          7.3E-12 Ry

     iteration # 27     ecut=    40.00 Ry     beta=0.60
     Davidson diagonalization with overlap
     ethr =  1.00E-13,  avg # of iterations =  3.9

     total cpu time spent up to now is    58504.1 secs

     total energy              =    -469.13481440 Ry
     Harris-Foulkes estimate   =    -469.13481440 Ry
     estimated scf accuracy    <          2.7E-11 Ry

     iteration # 28     ecut=    40.00 Ry     beta=0.60
     Davidson diagonalization with overlap
     ethr =  1.00E-13,  avg # of iterations =  1.0

     total cpu time spent up to now is    58575.4 secs

     total energy              =    -469.13481440 Ry
     Harris-Foulkes estimate   =    -469.13481440 Ry
     estimated scf accuracy    <          5.5E-12 Ry

     iteration # 29     ecut=    40.00 Ry     beta=0.60
     Davidson diagonalization with overlap
     ethr =  1.00E-13,  avg # of iterations =  1.0

     total cpu time spent up to now is    58646.7 secs

     End of self-consistent calculation

     Number of k-points >= 100: set verbosity='high' to print the bands.

     the Fermi energy is    15.6740 ev

!    total energy              =    -469.13481440 Ry
     Harris-Foulkes estimate   =    -469.13481440 Ry
     estimated scf accuracy    <          1.4E-13 Ry

     The total energy is the sum of the following terms:

     one-electron contribution =    -116.98977113 Ry
     hartree contribution      =      79.45007074 Ry
     xc contribution           =     -65.91847218 Ry
     ewald contribution        =    -365.67632779 Ry
     smearing contrib. (-TS)   =      -0.00031403 Ry

     convergence has been achieved in  29 iterations

     Forces acting on atoms (Ry/au):

     atom    1 type  2   force =     0.00003276   -0.00001892   -0.00014649
     atom    2 type  2   force =    -0.00003271    0.00001888    0.00014652
     atom    3 type  1   force =     0.00000185   -0.00000107   -0.00005797
     atom    4 type  1   force =    -0.00000191    0.00000110    0.00005794

     Total force =     0.000229     Total SCF correction =     0.000000


     entering subroutine stress ...

          total   stress  (Ry/bohr**3)                   (kbar)     P=   -2.68
  -0.00001046  -0.00001238  -0.00000014         -1.54     -1.82     -0.02
  -0.00001238  -0.00002475   0.00000008         -1.82     -3.64      0.01
  -0.00000014   0.00000008  -0.00001947         -0.02      0.01     -2.86


     init_run     :     85.87s CPU     88.07s WALL (       2 calls)
     electrons    :  56523.99s CPU  57748.09s WALL (      36 calls)
     update_pot   :     65.80s CPU     66.23s WALL (      34 calls)
     forces       :    279.11s CPU    282.63s WALL (      36 calls)
     stress       :    464.93s CPU    470.11s WALL (      36 calls)

     Called by init_run:
     wfcinit      :     82.06s CPU     84.19s WALL (       2 calls)
     potinit      :      1.20s CPU      1.22s WALL (       2 calls)

     Called by electrons:
     c_bands      :  47915.50s CPU  48926.34s WALL (     572 calls)
     sum_band     :   8404.09s CPU   8597.12s WALL (     572 calls)
     v_of_rho     :     71.53s CPU     73.53s WALL (     596 calls)
     newd         :    127.27s CPU    145.96s WALL (     596 calls)
     mix_rho      :      9.55s CPU      9.96s WALL (     572 calls)

     Called by c_bands:
     init_us_2    :    445.48s CPU    451.94s WALL (  724710 calls)
     cegterg      :  46975.66s CPU  47973.47s WALL (  340340 calls)

     Called by sum_band:
     sum_band:bec :     27.39s CPU     27.89s WALL (  340340 calls)
     addusdens    :    118.18s CPU    143.60s WALL (     572 calls)

     Called by *egterg:
     h_psi        :  34560.14s CPU  35448.89s WALL ( 1468214 calls)
     s_psi        :   1850.83s CPU   1865.69s WALL ( 1468214 calls)
     g_psi        :     72.39s CPU     72.71s WALL ( 1126684 calls)
     cdiaghg      :   3545.31s CPU   3568.39s WALL ( 1439654 calls)

     Called by h_psi:
     h_psi:pot    :  34362.91s CPU  35248.87s WALL ( 1468214 calls)
     h_psi:calbec :   2818.65s CPU   2891.54s WALL ( 1468214 calls)
     vloc_psi     :  29692.97s CPU  30486.57s WALL ( 1468214 calls)
     add_vuspsi   :   1842.77s CPU   1863.53s WALL ( 1468214 calls)

     General routines
     calbec       :   3999.12s CPU   4097.05s WALL ( 1915654 calls)
     fft          :     58.88s CPU     62.92s WALL (   10374 calls)
     ffts         :      1.09s CPU      1.11s WALL (    1168 calls)
     fftw         :  24854.18s CPU  25484.27s WALL (63972302 calls)
     interpolate  :     10.18s CPU     10.61s WALL (    1168 calls)

     Parallel routines
     fft_scatter  :   3949.34s CPU   4070.98s WALL (63983844 calls)

     PWSCF        :    15h57m CPU       16h17m WALL


   This run was terminated on:   3: 9: 7   1May2018            

=------------------------------------------------------------------------------=
   JOB DONE.
=------------------------------------------------------------------------------=
