
     Program PWSCF v.6.3MaX starts on 13Jan2020 at 13: 9: 0 

     This program is part of the open-source Quantum ESPRESSO suite
     for quantum simulation of materials; please cite
         "P. Giannozzi et al., J. Phys.:Condens. Matter 21 395502 (2009);
         "P. Giannozzi et al., J. Phys.:Condens. Matter 29 465901 (2017);
          URL http://www.quantum-espresso.org", 
     in publications or presentations arising from this work. More details at
     http://www.quantum-espresso.org/quote

     Parallel version (MPI), running on     1 processors

     MPI processes distributed on     1 nodes
     Waiting for input...
     Reading input from standard input

     Current dimensions of program PWSCF are:
     Max number of different atomic species (ntypx) = 10
     Max number of k-points (npk) =  40000
     Max angular momentum in pseudopotentials (lmaxx) =  3
     Message from routine iosys:
     minimal I/O required, wf_collect reset to FALSE

     Subspace diagonalization in iterative solution of the eigenvalue problem:
     a serial algorithm will be used

 
     G-vector sticks info
     --------------------
     sticks:   dense  smooth     PW     G-vecs:    dense   smooth      PW
     Sum        1247     487    181                27835     6963    1601
 


     bravais-lattice index     =            0
     lattice parameter (alat)  =       1.8897  a.u.
     unit-cell volume          =     146.6684 (a.u.)^3
     number of atoms/cell      =            1
     number of atomic types    =            1
     number of electrons       =        13.00
     number of Kohn-Sham states=           11
     kinetic-energy cutoff     =      50.0000  Ry
     charge density cutoff     =     500.0000  Ry
     convergence threshold     =      1.0E-10
     mixing beta               =       0.6000
     number of iterations used =            8  plain     mixing
     Exchange-correlation      = SLA PW PBE PBE ( 1  4  3  4 0 0)
     nstep                     =           50


     celldm(1)=   1.889726  celldm(2)=   0.000000  celldm(3)=   0.000000
     celldm(4)=   0.000000  celldm(5)=   0.000000  celldm(6)=   0.000000

     crystal axes: (cart. coord. in units of alat)
               a(1) = (   1.758031  -1.758031   1.758031 )  
               a(2) = (   1.758031   1.758031  -1.758031 )  
               a(3) = (  -1.758031   1.758031   1.758031 )  

     reciprocal axes: (cart. coord. in units 2 pi/alat)
               b(1) = (  0.284409  0.000000  0.284409 )  
               b(2) = (  0.284409  0.284409  0.000000 )  
               b(3) = (  0.000000  0.284409  0.284409 )  


     PseudoPot. # 1 for Nb read from file:
     /home/u16/abhishekkt/fp/krishna/calculations/pseudopotentials/Nb.pbe-nsp-van.UPF
     MD5 check sum: c44c1a86bf31974e1e832c2ec821fd5f
     Pseudo is Ultrasoft + core correction, Zval = 13.0
     Generated by new atomic code, or converted to UPF format
     Using radial grid of  887 points,  6 beta functions with: 
                l(1) =   0
                l(2) =   0
                l(3) =   1
                l(4) =   1
                l(5) =   2
                l(6) =   2
     Q(r) pseudized with  6 coefficients,  rinner =    1.000   1.000   1.000
                                                       1.000   1.000

     atomic species   valence    mass     pseudopotential
        Nb            13.00    92.90638     Nb( 1.00)

     48 Sym. Ops., with inversion, found



   Cartesian axes

     site n.     atom                  positions (alat units)
         1           Nb  tau(   1) = (   1.7580316   1.7580316   1.7580316  )

     number of k points=   256  Marzari-Vanderbilt smearing, width (Ry)=  0.0200

     Number of k-points >= 100: set verbosity='high' to print them.

     Dense  grid:    27835 G-vectors     FFT dimensions: (  45,  45,  45)

     Smooth grid:     6963 G-vectors     FFT dimensions: (  25,  25,  25)

     Estimated max dynamical RAM per process >     142.15 MB

     Initial potential from superposition of free atoms

     starting charge   12.99727, renormalised to   13.00000
     Starting wfcs are   13 randomized atomic wfcs

     total cpu time spent up to now is        3.6 secs

     Self-consistent Calculation

     iteration #  1     ecut=    50.00 Ry     beta= 0.60
     Davidson diagonalization with overlap
     ethr =  1.00E-02,  avg # of iterations =  2.9

     Threshold (ethr) on eigenvalues was too large:
     Diagonalizing with lowered threshold

     Davidson diagonalization with overlap
     ethr =  9.70E-04,  avg # of iterations =  1.1

     total cpu time spent up to now is       11.6 secs

     total energy              =    -117.88369574 Ry
     Harris-Foulkes estimate   =    -117.95672740 Ry
     estimated scf accuracy    <       0.12893684 Ry

     iteration #  2     ecut=    50.00 Ry     beta= 0.60
     Davidson diagonalization with overlap
     ethr =  9.92E-04,  avg # of iterations =  2.0

     total cpu time spent up to now is       15.9 secs

     total energy              =    -117.91082785 Ry
     Harris-Foulkes estimate   =    -117.91318127 Ry
     estimated scf accuracy    <       0.00475637 Ry

     iteration #  3     ecut=    50.00 Ry     beta= 0.60
     Davidson diagonalization with overlap
     ethr =  3.66E-05,  avg # of iterations =  2.4

     total cpu time spent up to now is       20.6 secs

     total energy              =    -117.91171178 Ry
     Harris-Foulkes estimate   =    -117.91173552 Ry
     estimated scf accuracy    <       0.00042526 Ry

     iteration #  4     ecut=    50.00 Ry     beta= 0.60
     Davidson diagonalization with overlap
     ethr =  3.27E-06,  avg # of iterations =  1.6

     total cpu time spent up to now is       24.4 secs

     total energy              =    -117.91172824 Ry
     Harris-Foulkes estimate   =    -117.91172850 Ry
     estimated scf accuracy    <       0.00000228 Ry

     iteration #  5     ecut=    50.00 Ry     beta= 0.60
     Davidson diagonalization with overlap
     ethr =  1.75E-08,  avg # of iterations =  2.2

     total cpu time spent up to now is       28.7 secs

     total energy              =    -117.91172889 Ry
     Harris-Foulkes estimate   =    -117.91172902 Ry
     estimated scf accuracy    <       0.00000031 Ry

     iteration #  6     ecut=    50.00 Ry     beta= 0.60
     Davidson diagonalization with overlap
     ethr =  2.42E-09,  avg # of iterations =  2.0

     total cpu time spent up to now is       32.8 secs

     total energy              =    -117.91172894 Ry
     Harris-Foulkes estimate   =    -117.91172894 Ry
     estimated scf accuracy    <          2.1E-09 Ry

     iteration #  7     ecut=    50.00 Ry     beta= 0.60
     Davidson diagonalization with overlap
     ethr =  1.65E-11,  avg # of iterations =  2.3

     total cpu time spent up to now is       37.3 secs

     total energy              =    -117.91172894 Ry
     Harris-Foulkes estimate   =    -117.91172894 Ry
     estimated scf accuracy    <          4.2E-09 Ry

     iteration #  8     ecut=    50.00 Ry     beta= 0.60
     Davidson diagonalization with overlap
     ethr =  1.65E-11,  avg # of iterations =  2.1

     total cpu time spent up to now is       41.4 secs

     End of self-consistent calculation

     Number of k-points >= 100: set verbosity='high' to print the bands.

     the Fermi energy is    14.3898 ev

!    total energy              =    -117.91172894 Ry
     Harris-Foulkes estimate   =    -117.91172894 Ry
     estimated scf accuracy    <          7.7E-12 Ry

     The total energy is the sum of the following terms:

     one-electron contribution =     -24.37403916 Ry
     hartree contribution      =      17.27780502 Ry
     xc contribution           =     -18.25190172 Ry
     ewald contribution        =     -92.56379168 Ry
     smearing contrib. (-TS)   =       0.00019860 Ry

     convergence has been achieved in   8 iterations

     Forces acting on atoms (cartesian axes, Ry/au):

     atom    1 type  1   force =     0.00000000    0.00000000    0.00000000

     Total force =     0.000000     Total SCF correction =     0.000000


     Computing stress (Cartesian axis) and pressure

          total   stress  (Ry/bohr**3)                   (kbar)     P= -221.02
  -0.00150247  -0.00000000  -0.00000000       -221.02     -0.00     -0.00
  -0.00000000  -0.00150247  -0.00000000         -0.00   -221.02     -0.00
  -0.00000000  -0.00000000  -0.00150247         -0.00     -0.00   -221.02


     BFGS Geometry Optimization

     number of scf cycles    =   1
     number of bfgs steps    =   0

     enthalpy new            =    -117.9117289364 Ry

     new trust radius        =       0.0909794705 bohr
     new conv_thr            =            1.0E-10 Ry

     new unit-cell volume =    130.75405 a.u.^3 (    19.37575 Ang^3 )
     density =      7.96225 g/cm^3

CELL_PARAMETERS (alat=  1.88972599)
   1.691996856  -1.691996856   1.691996856
   1.691996856   1.691996856  -1.691996856
  -1.691996856   1.691996856   1.691996856

ATOMIC_POSITIONS (angstrom)
Nb       1.691996856   1.691996856   1.691996856


     NEW-OLD atomic charge density approx. for the potential
     extrapolated charge   11.41808, renormalised to   13.00000

     total cpu time spent up to now is       45.9 secs

     Self-consistent Calculation

     iteration #  1     ecut=    50.00 Ry     beta= 0.60
     Davidson diagonalization with overlap
     ethr =  1.00E-06,  avg # of iterations =  6.2

     total cpu time spent up to now is       54.0 secs

     total energy              =    -117.31852016 Ry
     Harris-Foulkes estimate   =    -119.59444163 Ry
     estimated scf accuracy    <       0.52132506 Ry

     iteration #  2     ecut=    50.00 Ry     beta= 0.60
     Davidson diagonalization with overlap
     ethr =  4.01E-03,  avg # of iterations =  3.1

     total cpu time spent up to now is       59.3 secs

     total energy              =    -117.93490490 Ry
     Harris-Foulkes estimate   =    -118.12208019 Ry
     estimated scf accuracy    <       0.43115247 Ry

     iteration #  3     ecut=    50.00 Ry     beta= 0.60
     Davidson diagonalization with overlap
     ethr =  3.32E-03,  avg # of iterations =  1.1

     total cpu time spent up to now is       63.0 secs

     total energy              =    -117.94275943 Ry
     Harris-Foulkes estimate   =    -117.96182050 Ry
     estimated scf accuracy    <       0.08494976 Ry

     iteration #  4     ecut=    50.00 Ry     beta= 0.60
     Davidson diagonalization with overlap
     ethr =  6.53E-04,  avg # of iterations =  1.9

     total cpu time spent up to now is       66.9 secs

     total energy              =    -117.92953878 Ry
     Harris-Foulkes estimate   =    -117.94669846 Ry
     estimated scf accuracy    <       0.03963813 Ry

     iteration #  5     ecut=    50.00 Ry     beta= 0.60
     Davidson diagonalization with overlap
     ethr =  3.05E-04,  avg # of iterations =  1.7

     total cpu time spent up to now is       70.8 secs

     total energy              =    -117.92865386 Ry
     Harris-Foulkes estimate   =    -117.93251880 Ry
     estimated scf accuracy    <       0.00679224 Ry

     iteration #  6     ecut=    50.00 Ry     beta= 0.60
     Davidson diagonalization with overlap
     ethr =  5.22E-05,  avg # of iterations =  2.2

     total cpu time spent up to now is       75.0 secs

     total energy              =    -117.92986106 Ry
     Harris-Foulkes estimate   =    -117.92992165 Ry
     estimated scf accuracy    <       0.00009939 Ry

     iteration #  7     ecut=    50.00 Ry     beta= 0.60
     Davidson diagonalization with overlap
     ethr =  7.65E-07,  avg # of iterations =  2.5

     total cpu time spent up to now is       79.7 secs

     total energy              =    -117.92988675 Ry
     Harris-Foulkes estimate   =    -117.92988661 Ry
     estimated scf accuracy    <       0.00000064 Ry

     iteration #  8     ecut=    50.00 Ry     beta= 0.60
     Davidson diagonalization with overlap
     ethr =  4.90E-09,  avg # of iterations =  2.0

     total cpu time spent up to now is       83.9 secs

     total energy              =    -117.92988631 Ry
     Harris-Foulkes estimate   =    -117.92988688 Ry
     estimated scf accuracy    <       0.00000088 Ry

     iteration #  9     ecut=    50.00 Ry     beta= 0.60
     Davidson diagonalization with overlap
     ethr =  4.90E-09,  avg # of iterations =  2.0

     total cpu time spent up to now is       88.2 secs

     total energy              =    -117.92988652 Ry
     Harris-Foulkes estimate   =    -117.92988652 Ry
     estimated scf accuracy    <       0.00000003 Ry

     iteration # 10     ecut=    50.00 Ry     beta= 0.60
     Davidson diagonalization with overlap
     ethr =  2.24E-10,  avg # of iterations =  1.6

     total cpu time spent up to now is       92.0 secs

     total energy              =    -117.92988652 Ry
     Harris-Foulkes estimate   =    -117.92988652 Ry
     estimated scf accuracy    <       0.00000004 Ry

     iteration # 11     ecut=    50.00 Ry     beta= 0.60
     Davidson diagonalization with overlap
     ethr =  2.24E-10,  avg # of iterations =  1.0

     total cpu time spent up to now is       95.7 secs

     total energy              =    -117.92988652 Ry
     Harris-Foulkes estimate   =    -117.92988652 Ry
     estimated scf accuracy    <       0.00000003 Ry

     iteration # 12     ecut=    50.00 Ry     beta= 0.60
     Davidson diagonalization with overlap
     ethr =  2.24E-10,  avg # of iterations =  1.0

     total cpu time spent up to now is       99.3 secs

     total energy              =    -117.92988652 Ry
     Harris-Foulkes estimate   =    -117.92988652 Ry
     estimated scf accuracy    <       0.00000002 Ry

     iteration # 13     ecut=    50.00 Ry     beta= 0.60
     Davidson diagonalization with overlap
     ethr =  1.77E-10,  avg # of iterations =  1.0

     total cpu time spent up to now is      103.0 secs

     total energy              =    -117.92988652 Ry
     Harris-Foulkes estimate   =    -117.92988652 Ry
     estimated scf accuracy    <       0.00000002 Ry

     iteration # 14     ecut=    50.00 Ry     beta= 0.60
     Davidson diagonalization with overlap
     ethr =  1.18E-10,  avg # of iterations =  1.0

     total cpu time spent up to now is      106.7 secs

     total energy              =    -117.92988651 Ry
     Harris-Foulkes estimate   =    -117.92988652 Ry
     estimated scf accuracy    <       0.00000003 Ry

     iteration # 15     ecut=    50.00 Ry     beta= 0.60
     Davidson diagonalization with overlap
     ethr =  1.18E-10,  avg # of iterations =  2.1

     total cpu time spent up to now is      111.0 secs

     total energy              =    -117.92988651 Ry
     Harris-Foulkes estimate   =    -117.92988652 Ry
     estimated scf accuracy    <          8.4E-10 Ry

     iteration # 16     ecut=    50.00 Ry     beta= 0.60
     Davidson diagonalization with overlap
     ethr =  6.43E-12,  avg # of iterations =  2.0

     total cpu time spent up to now is      115.0 secs

     End of self-consistent calculation

     Number of k-points >= 100: set verbosity='high' to print the bands.

     the Fermi energy is    16.5086 ev

!    total energy              =    -117.92988651 Ry
     Harris-Foulkes estimate   =    -117.92988651 Ry
     estimated scf accuracy    <          2.4E-12 Ry

     The total energy is the sum of the following terms:

     one-electron contribution =     -19.21466884 Ry
     hartree contribution      =      15.82599337 Ry
     xc contribution           =     -18.36509081 Ry
     ewald contribution        =     -96.17633799 Ry
     smearing contrib. (-TS)   =       0.00021777 Ry

     convergence has been achieved in  16 iterations

     Forces acting on atoms (cartesian axes, Ry/au):

     atom    1 type  1   force =     0.00000000    0.00000000    0.00000000

     Total force =     0.000000     Total SCF correction =     0.000000


     Computing stress (Cartesian axis) and pressure

          total   stress  (Ry/bohr**3)                   (kbar)     P= -102.27
  -0.00069522  -0.00000000   0.00000000       -102.27     -0.00      0.00
  -0.00000000  -0.00069522   0.00000000         -0.00   -102.27      0.00
   0.00000000   0.00000000  -0.00069522          0.00      0.00   -102.27


     number of scf cycles    =   2
     number of bfgs steps    =   1

     enthalpy old            =    -117.9117289364 Ry
     enthalpy new            =    -117.9298865150 Ry

     CASE: enthalpy_new < enthalpy_old

     new trust radius        =       0.0669512512 bohr
     new conv_thr            =            1.0E-12 Ry

     new unit-cell volume =    119.60337 a.u.^3 (    17.72339 Ang^3 )
     density =      8.70458 g/cm^3

CELL_PARAMETERS (alat=  1.88972599)
   1.642463166  -1.642463166   1.642463166
   1.642463166   1.642463166  -1.642463166
  -1.642463166   1.642463166   1.642463166

ATOMIC_POSITIONS (angstrom)
Nb       1.642463166   1.642463166   1.642463166


     NEW-OLD atomic charge density approx. for the potential
     extrapolated charge   11.78826, renormalised to   13.00000

     total cpu time spent up to now is      119.4 secs

     Self-consistent Calculation

     iteration #  1     ecut=    50.00 Ry     beta= 0.60
     Davidson diagonalization with overlap
     ethr =  1.00E-06,  avg # of iterations =  5.7

     total cpu time spent up to now is      127.3 secs

     total energy              =    -117.64650610 Ry
     Harris-Foulkes estimate   =    -118.95758039 Ry
     estimated scf accuracy    <       0.23240172 Ry

     iteration #  2     ecut=    50.00 Ry     beta= 0.60
     Davidson diagonalization with overlap
     ethr =  1.79E-03,  avg # of iterations =  3.2

     total cpu time spent up to now is      132.7 secs

     total energy              =    -117.93524522 Ry
     Harris-Foulkes estimate   =    -118.01632727 Ry
     estimated scf accuracy    <       0.18479778 Ry

     iteration #  3     ecut=    50.00 Ry     beta= 0.60
     Davidson diagonalization with overlap
     ethr =  1.42E-03,  avg # of iterations =  1.1

     total cpu time spent up to now is      136.4 secs

     total energy              =    -117.93689544 Ry
     Harris-Foulkes estimate   =    -117.94690876 Ry
     estimated scf accuracy    <       0.03623697 Ry

     iteration #  4     ecut=    50.00 Ry     beta= 0.60
     Davidson diagonalization with overlap
     ethr =  2.79E-04,  avg # of iterations =  2.0

     total cpu time spent up to now is      140.3 secs

     total energy              =    -117.93132313 Ry
     Harris-Foulkes estimate   =    -117.93887278 Ry
     estimated scf accuracy    <       0.01386603 Ry

     iteration #  5     ecut=    50.00 Ry     beta= 0.60
     Davidson diagonalization with overlap
     ethr =  1.07E-04,  avg # of iterations =  2.1

     total cpu time spent up to now is      144.4 secs

     total energy              =    -117.93255447 Ry
     Harris-Foulkes estimate   =    -117.93302944 Ry
     estimated scf accuracy    <       0.00073750 Ry

     iteration #  6     ecut=    50.00 Ry     beta= 0.60
     Davidson diagonalization with overlap
     ethr =  5.67E-06,  avg # of iterations =  2.6

     total cpu time spent up to now is      149.1 secs

     total energy              =    -117.93271872 Ry
     Harris-Foulkes estimate   =    -117.93271848 Ry
     estimated scf accuracy    <       0.00000066 Ry

     iteration #  7     ecut=    50.00 Ry     beta= 0.60
     Davidson diagonalization with overlap
     ethr =  5.08E-09,  avg # of iterations =  3.1

     total cpu time spent up to now is      154.1 secs

     total energy              =    -117.93271866 Ry
     Harris-Foulkes estimate   =    -117.93272030 Ry
     estimated scf accuracy    <       0.00000301 Ry

     iteration #  8     ecut=    50.00 Ry     beta= 0.60
     Davidson diagonalization with overlap
     ethr =  5.08E-09,  avg # of iterations =  2.9

     total cpu time spent up to now is      158.9 secs

     total energy              =    -117.93271918 Ry
     Harris-Foulkes estimate   =    -117.93271915 Ry
     estimated scf accuracy    <       0.00000005 Ry

     iteration #  9     ecut=    50.00 Ry     beta= 0.60
     Davidson diagonalization with overlap
     ethr =  4.15E-10,  avg # of iterations =  2.0

     total cpu time spent up to now is      163.2 secs

     total energy              =    -117.93271920 Ry
     Harris-Foulkes estimate   =    -117.93271920 Ry
     estimated scf accuracy    <       0.00000016 Ry

     iteration # 10     ecut=    50.00 Ry     beta= 0.60
     Davidson diagonalization with overlap
     ethr =  4.15E-10,  avg # of iterations =  1.0

     total cpu time spent up to now is      166.9 secs

     total energy              =    -117.93271911 Ry
     Harris-Foulkes estimate   =    -117.93271920 Ry
     estimated scf accuracy    <       0.00000019 Ry

     iteration # 11     ecut=    50.00 Ry     beta= 0.60
     Davidson diagonalization with overlap
     ethr =  4.15E-10,  avg # of iterations =  2.9

     total cpu time spent up to now is      171.6 secs

     total energy              =    -117.93271914 Ry
     Harris-Foulkes estimate   =    -117.93271915 Ry
     estimated scf accuracy    <          8.6E-09 Ry

     iteration # 12     ecut=    50.00 Ry     beta= 0.60
     Davidson diagonalization with overlap
     ethr =  6.60E-11,  avg # of iterations =  1.0

     total cpu time spent up to now is      175.2 secs

     total energy              =    -117.93271914 Ry
     Harris-Foulkes estimate   =    -117.93271914 Ry
     estimated scf accuracy    <          7.2E-10 Ry

     iteration # 13     ecut=    50.00 Ry     beta= 0.60
     Davidson diagonalization with overlap
     ethr =  5.56E-12,  avg # of iterations =  2.0

     total cpu time spent up to now is      179.3 secs

     total energy              =    -117.93271914 Ry
     Harris-Foulkes estimate   =    -117.93271914 Ry
     estimated scf accuracy    <          5.9E-12 Ry

     iteration # 14     ecut=    50.00 Ry     beta= 0.60
     Davidson diagonalization with overlap
     ethr =  1.00E-13,  avg # of iterations =  1.3

     total cpu time spent up to now is      183.0 secs

     total energy              =    -117.93271914 Ry
     Harris-Foulkes estimate   =    -117.93271914 Ry
     estimated scf accuracy    <          4.4E-12 Ry

     iteration # 15     ecut=    50.00 Ry     beta= 0.60
     Davidson diagonalization with overlap
     ethr =  1.00E-13,  avg # of iterations =  1.0

     total cpu time spent up to now is      186.7 secs

     End of self-consistent calculation

     Number of k-points >= 100: set verbosity='high' to print the bands.

     the Fermi energy is    18.3155 ev

!    total energy              =    -117.93271914 Ry
     Harris-Foulkes estimate   =    -117.93271914 Ry
     estimated scf accuracy    <          5.4E-13 Ry

     The total energy is the sum of the following terms:

     one-electron contribution =     -15.12372621 Ry
     hartree contribution      =      14.73160577 Ry
     xc contribution           =     -18.46409836 Ry
     ewald contribution        =     -99.07684073 Ry
     smearing contrib. (-TS)   =       0.00034038 Ry

     convergence has been achieved in  15 iterations

     Forces acting on atoms (cartesian axes, Ry/au):

     atom    1 type  1   force =     0.00000000    0.00000000    0.00000000

     Total force =     0.000000     Total SCF correction =     0.000000


     Computing stress (Cartesian axis) and pressure

          total   stress  (Ry/bohr**3)                   (kbar)     P=   37.61
   0.00025569  -0.00000000  -0.00000000         37.61     -0.00     -0.00
  -0.00000000   0.00025569  -0.00000000         -0.00     37.61     -0.00
  -0.00000000  -0.00000000   0.00025569         -0.00     -0.00     37.61


     number of scf cycles    =   3
     number of bfgs steps    =   2

     enthalpy old            =    -117.9298865150 Ry
     enthalpy new            =    -117.9327191440 Ry

     CASE: enthalpy_new < enthalpy_old

     new trust radius        =       0.0169771380 bohr
     new conv_thr            =            1.0E-12 Ry

     new unit-cell volume =    122.41006 a.u.^3 (    18.13930 Ang^3 )
     density =      8.50500 g/cm^3

CELL_PARAMETERS (alat=  1.88972599)
   1.655211647  -1.655211647   1.655211647
   1.655211647   1.655211647  -1.655211647
  -1.655211647   1.655211647   1.655211647

ATOMIC_POSITIONS (angstrom)
Nb       1.655211647   1.655211647   1.655211647


     NEW-OLD atomic charge density approx. for the potential
     extrapolated charge   13.29801, renormalised to   13.00000

     total cpu time spent up to now is      191.1 secs

     Self-consistent Calculation

     iteration #  1     ecut=    50.00 Ry     beta= 0.60
     Davidson diagonalization with overlap
     ethr =  1.00E-06,  avg # of iterations =  4.3

     total cpu time spent up to now is      198.0 secs

     total energy              =    -117.91874720 Ry
     Harris-Foulkes estimate   =    -117.67566443 Ry
     estimated scf accuracy    <       0.01001342 Ry

     iteration #  2     ecut=    50.00 Ry     beta= 0.60
     Davidson diagonalization with overlap
     ethr =  7.70E-05,  avg # of iterations =  3.1

     total cpu time spent up to now is      203.5 secs

     total energy              =    -117.93321624 Ry
     Harris-Foulkes estimate   =    -117.93761263 Ry
     estimated scf accuracy    <       0.01045114 Ry

     iteration #  3     ecut=    50.00 Ry     beta= 0.60
     Davidson diagonalization with overlap
     ethr =  7.70E-05,  avg # of iterations =  1.2

     total cpu time spent up to now is      207.2 secs

     total energy              =    -117.93286075 Ry
     Harris-Foulkes estimate   =    -117.93387758 Ry
     estimated scf accuracy    <       0.00211818 Ry

     iteration #  4     ecut=    50.00 Ry     beta= 0.60
     Davidson diagonalization with overlap
     ethr =  1.63E-05,  avg # of iterations =  2.2

     total cpu time spent up to now is      211.3 secs

     total energy              =    -117.93297136 Ry
     Harris-Foulkes estimate   =    -117.93312126 Ry
     estimated scf accuracy    <       0.00019250 Ry

     iteration #  5     ecut=    50.00 Ry     beta= 0.60
     Davidson diagonalization with overlap
     ethr =  1.48E-06,  avg # of iterations =  2.6

     total cpu time spent up to now is      215.9 secs

     total energy              =    -117.93303745 Ry
     Harris-Foulkes estimate   =    -117.93304999 Ry
     estimated scf accuracy    <       0.00003030 Ry

     iteration #  6     ecut=    50.00 Ry     beta= 0.60
     Davidson diagonalization with overlap
     ethr =  2.33E-07,  avg # of iterations =  1.5

     total cpu time spent up to now is      219.7 secs

     total energy              =    -117.93303545 Ry
     Harris-Foulkes estimate   =    -117.93303957 Ry
     estimated scf accuracy    <       0.00000585 Ry

     iteration #  7     ecut=    50.00 Ry     beta= 0.60
     Davidson diagonalization with overlap
     ethr =  4.50E-08,  avg # of iterations =  2.0

     total cpu time spent up to now is      224.0 secs

     total energy              =    -117.93303745 Ry
     Harris-Foulkes estimate   =    -117.93303759 Ry
     estimated scf accuracy    <       0.00000058 Ry

     iteration #  8     ecut=    50.00 Ry     beta= 0.60
     Davidson diagonalization with overlap
     ethr =  4.47E-09,  avg # of iterations =  1.0

     total cpu time spent up to now is      227.7 secs

     total energy              =    -117.93303729 Ry
     Harris-Foulkes estimate   =    -117.93303746 Ry
     estimated scf accuracy    <       0.00000029 Ry

     iteration #  9     ecut=    50.00 Ry     beta= 0.60
     Davidson diagonalization with overlap
     ethr =  2.24E-09,  avg # of iterations =  2.0

     total cpu time spent up to now is      231.8 secs

     total energy              =    -117.93303733 Ry
     Harris-Foulkes estimate   =    -117.93303734 Ry
     estimated scf accuracy    <          4.3E-09 Ry

     iteration # 10     ecut=    50.00 Ry     beta= 0.60
     Davidson diagonalization with overlap
     ethr =  3.27E-11,  avg # of iterations =  2.0

     total cpu time spent up to now is      236.3 secs

     total energy              =    -117.93303734 Ry
     Harris-Foulkes estimate   =    -117.93303734 Ry
     estimated scf accuracy    <          4.0E-11 Ry

     iteration # 11     ecut=    50.00 Ry     beta= 0.60
     Davidson diagonalization with overlap
     ethr =  3.06E-13,  avg # of iterations =  2.0

     total cpu time spent up to now is      240.4 secs

     total energy              =    -117.93303734 Ry
     Harris-Foulkes estimate   =    -117.93303734 Ry
     estimated scf accuracy    <          2.1E-11 Ry

     iteration # 12     ecut=    50.00 Ry     beta= 0.60
     Davidson diagonalization with overlap
     ethr =  1.61E-13,  avg # of iterations =  2.0

     total cpu time spent up to now is      244.5 secs

     total energy              =    -117.93303734 Ry
     Harris-Foulkes estimate   =    -117.93303734 Ry
     estimated scf accuracy    <          2.7E-12 Ry

     iteration # 13     ecut=    50.00 Ry     beta= 0.60
     Davidson diagonalization with overlap
     ethr =  1.00E-13,  avg # of iterations =  1.0

     total cpu time spent up to now is      248.1 secs

     total energy              =    -117.93303734 Ry
     Harris-Foulkes estimate   =    -117.93303734 Ry
     estimated scf accuracy    <          1.1E-12 Ry

     iteration # 14     ecut=    50.00 Ry     beta= 0.60
     Davidson diagonalization with overlap
     ethr =  1.00E-13,  avg # of iterations =  1.0

     total cpu time spent up to now is      251.8 secs

     End of self-consistent calculation

     Number of k-points >= 100: set verbosity='high' to print the bands.

     the Fermi energy is    17.8311 ev

!    total energy              =    -117.93303734 Ry
     Harris-Foulkes estimate   =    -117.93303734 Ry
     estimated scf accuracy    <          7.6E-13 Ry

     The total energy is the sum of the following terms:

     one-electron contribution =     -16.19604360 Ry
     hartree contribution      =      15.01385284 Ry
     xc contribution           =     -18.43740363 Ry
     ewald contribution        =     -98.31374849 Ry
     smearing contrib. (-TS)   =       0.00030555 Ry

     convergence has been achieved in  14 iterations

     Forces acting on atoms (cartesian axes, Ry/au):

     atom    1 type  1   force =     0.00000000    0.00000000    0.00000000

     Total force =     0.000000     Total SCF correction =     0.000000


     Computing stress (Cartesian axis) and pressure

          total   stress  (Ry/bohr**3)                   (kbar)     P=   -3.51
  -0.00002385   0.00000000   0.00000000         -3.51      0.00      0.00
   0.00000000  -0.00002385   0.00000000          0.00     -3.51      0.00
   0.00000000   0.00000000  -0.00002385          0.00      0.00     -3.51


     number of scf cycles    =   4
     number of bfgs steps    =   3

     enthalpy old            =    -117.9327191440 Ry
     enthalpy new            =    -117.9330373362 Ry

     CASE: enthalpy_new < enthalpy_old

     new trust radius        =       0.0014747630 bohr
     new conv_thr            =            1.0E-12 Ry

     new unit-cell volume =    122.16547 a.u.^3 (    18.10305 Ang^3 )
     density =      8.52202 g/cm^3

CELL_PARAMETERS (alat=  1.88972599)
   1.654108490  -1.654108490   1.654108490
   1.654108490   1.654108490  -1.654108490
  -1.654108490   1.654108490   1.654108490

ATOMIC_POSITIONS (angstrom)
Nb       1.654108490   1.654108490   1.654108490


     NEW-OLD atomic charge density approx. for the potential
     extrapolated charge   12.97398, renormalised to   13.00000

     total cpu time spent up to now is      256.2 secs

     Self-consistent Calculation

     iteration #  1     ecut=    50.00 Ry     beta= 0.60
     Davidson diagonalization with overlap
     ethr =  1.00E-06,  avg # of iterations =  2.1

     total cpu time spent up to now is      261.2 secs

     total energy              =    -117.93292694 Ry
     Harris-Foulkes estimate   =    -117.95550788 Ry
     estimated scf accuracy    <       0.00008222 Ry

     iteration #  2     ecut=    50.00 Ry     beta= 0.60
     Davidson diagonalization with overlap
     ethr =  6.32E-07,  avg # of iterations =  3.0

     total cpu time spent up to now is      266.5 secs

     total energy              =    -117.93304160 Ry
     Harris-Foulkes estimate   =    -117.93307598 Ry
     estimated scf accuracy    <       0.00008101 Ry

     iteration #  3     ecut=    50.00 Ry     beta= 0.60
     Davidson diagonalization with overlap
     ethr =  6.23E-07,  avg # of iterations =  1.1

     total cpu time spent up to now is      270.2 secs

     total energy              =    -117.93303971 Ry
     Harris-Foulkes estimate   =    -117.93304671 Ry
     estimated scf accuracy    <       0.00001637 Ry

     iteration #  4     ecut=    50.00 Ry     beta= 0.60
     Davidson diagonalization with overlap
     ethr =  1.26E-07,  avg # of iterations =  2.0

     total cpu time spent up to now is      274.2 secs

     total energy              =    -117.93303947 Ry
     Harris-Foulkes estimate   =    -117.93304139 Ry
     estimated scf accuracy    <       0.00000243 Ry

     iteration #  5     ecut=    50.00 Ry     beta= 0.60
     Davidson diagonalization with overlap
     ethr =  1.87E-08,  avg # of iterations =  2.3

     total cpu time spent up to now is      278.7 secs

     total energy              =    -117.93304036 Ry
     Harris-Foulkes estimate   =    -117.93304055 Ry
     estimated scf accuracy    <       0.00000054 Ry

     iteration #  6     ecut=    50.00 Ry     beta= 0.60
     Davidson diagonalization with overlap
     ethr =  4.14E-09,  avg # of iterations =  1.0

     total cpu time spent up to now is      282.4 secs

     total energy              =    -117.93304026 Ry
     Harris-Foulkes estimate   =    -117.93304039 Ry
     estimated scf accuracy    <       0.00000016 Ry

     iteration #  7     ecut=    50.00 Ry     beta= 0.60
     Davidson diagonalization with overlap
     ethr =  1.22E-09,  avg # of iterations =  2.7

     total cpu time spent up to now is      287.0 secs

     total energy              =    -117.93304031 Ry
     Harris-Foulkes estimate   =    -117.93304037 Ry
     estimated scf accuracy    <       0.00000011 Ry

     iteration #  8     ecut=    50.00 Ry     beta= 0.60
     Davidson diagonalization with overlap
     ethr =  8.23E-10,  avg # of iterations =  2.0

     total cpu time spent up to now is      291.1 secs

     total energy              =    -117.93304032 Ry
     Harris-Foulkes estimate   =    -117.93304032 Ry
     estimated scf accuracy    <          1.5E-09 Ry

     iteration #  9     ecut=    50.00 Ry     beta= 0.60
     Davidson diagonalization with overlap
     ethr =  1.18E-11,  avg # of iterations =  1.5

     total cpu time spent up to now is      294.8 secs

     total energy              =    -117.93304032 Ry
     Harris-Foulkes estimate   =    -117.93304032 Ry
     estimated scf accuracy    <          2.4E-09 Ry

     iteration # 10     ecut=    50.00 Ry     beta= 0.60
     Davidson diagonalization with overlap
     ethr =  1.18E-11,  avg # of iterations =  2.0

     total cpu time spent up to now is      298.8 secs

     total energy              =    -117.93304032 Ry
     Harris-Foulkes estimate   =    -117.93304032 Ry
     estimated scf accuracy    <          3.8E-10 Ry

     iteration # 11     ecut=    50.00 Ry     beta= 0.60
     Davidson diagonalization with overlap
     ethr =  2.91E-12,  avg # of iterations =  2.0

     total cpu time spent up to now is      303.1 secs

     total energy              =    -117.93304032 Ry
     Harris-Foulkes estimate   =    -117.93304032 Ry
     estimated scf accuracy    <          3.6E-12 Ry

     iteration # 12     ecut=    50.00 Ry     beta= 0.60
     Davidson diagonalization with overlap
     ethr =  1.00E-13,  avg # of iterations =  1.4

     total cpu time spent up to now is      306.8 secs

     total energy              =    -117.93304032 Ry
     Harris-Foulkes estimate   =    -117.93304032 Ry
     estimated scf accuracy    <          6.3E-12 Ry

     iteration # 13     ecut=    50.00 Ry     beta= 0.60
     Davidson diagonalization with overlap
     ethr =  1.00E-13,  avg # of iterations =  1.0

     total cpu time spent up to now is      310.5 secs

     total energy              =    -117.93304032 Ry
     Harris-Foulkes estimate   =    -117.93304032 Ry
     estimated scf accuracy    <          8.2E-12 Ry

     iteration # 14     ecut=    50.00 Ry     beta= 0.60
     Davidson diagonalization with overlap
     ethr =  1.00E-13,  avg # of iterations =  1.0

     total cpu time spent up to now is      314.1 secs

     total energy              =    -117.93304032 Ry
     Harris-Foulkes estimate   =    -117.93304032 Ry
     estimated scf accuracy    <          1.2E-11 Ry

     iteration # 15     ecut=    50.00 Ry     beta= 0.60
     Davidson diagonalization with overlap
     ethr =  1.00E-13,  avg # of iterations =  1.0

     total cpu time spent up to now is      317.8 secs

     total energy              =    -117.93304032 Ry
     Harris-Foulkes estimate   =    -117.93304032 Ry
     estimated scf accuracy    <          3.0E-11 Ry

     iteration # 16     ecut=    50.00 Ry     beta= 0.60
     Davidson diagonalization with overlap
     ethr =  1.00E-13,  avg # of iterations =  2.0

     total cpu time spent up to now is      321.9 secs

     End of self-consistent calculation

     Number of k-points >= 100: set verbosity='high' to print the bands.

     the Fermi energy is    17.8725 ev

!    total energy              =    -117.93304032 Ry
     Harris-Foulkes estimate   =    -117.93304032 Ry
     estimated scf accuracy    <          3.7E-13 Ry

     The total energy is the sum of the following terms:

     one-electron contribution =     -16.10379716 Ry
     hartree contribution      =      14.98944290 Ry
     xc contribution           =     -18.43967891 Ry
     ewald contribution        =     -98.37931582 Ry
     smearing contrib. (-TS)   =       0.00030866 Ry

     convergence has been achieved in  16 iterations

     Forces acting on atoms (cartesian axes, Ry/au):

     atom    1 type  1   force =     0.00000000    0.00000000    0.00000000

     Total force =     0.000000     Total SCF correction =     0.000000


     Computing stress (Cartesian axis) and pressure

          total   stress  (Ry/bohr**3)                   (kbar)     P=   -0.09
  -0.00000062   0.00000000   0.00000000         -0.09      0.00      0.00
   0.00000000  -0.00000062   0.00000000          0.00     -0.09      0.00
   0.00000000   0.00000000  -0.00000062          0.00      0.00     -0.09


     number of scf cycles    =   5
     number of bfgs steps    =   4

     enthalpy old            =    -117.9330373362 Ry
     enthalpy new            =    -117.9330403213 Ry

     CASE: enthalpy_new < enthalpy_old

     small trust_radius: resetting bfgs history

     new trust radius        =       0.0000344489 bohr
     new conv_thr            =            1.0E-12 Ry

     new unit-cell volume =    122.15976 a.u.^3 (    18.10221 Ang^3 )
     density =      8.52242 g/cm^3

CELL_PARAMETERS (alat=  1.88972599)
   1.654082713  -1.654082713   1.654082713
   1.654082713   1.654082713  -1.654082713
  -1.654082713   1.654082713   1.654082713

ATOMIC_POSITIONS (angstrom)
Nb       1.654082713   1.654082713   1.654082713


     NEW-OLD atomic charge density approx. for the potential
     extrapolated charge   12.99939, renormalised to   13.00000

     total cpu time spent up to now is      326.4 secs

     Self-consistent Calculation

     iteration #  1     ecut=    50.00 Ry     beta= 0.60
     Davidson diagonalization with overlap
     ethr =  1.00E-06,  avg # of iterations =  2.0

     Threshold (ethr) on eigenvalues was too large:
     Diagonalizing with lowered threshold

     Davidson diagonalization with overlap
     ethr =  3.44E-10,  avg # of iterations =  1.0

     total cpu time spent up to now is      334.9 secs

     total energy              =    -117.93304026 Ry
     Harris-Foulkes estimate   =    -117.93356472 Ry
     estimated scf accuracy    <       0.00000005 Ry

     iteration #  2     ecut=    50.00 Ry     beta= 0.60
     Davidson diagonalization with overlap
     ethr =  3.48E-10,  avg # of iterations =  3.0

     total cpu time spent up to now is      339.8 secs

     total energy              =    -117.93304032 Ry
     Harris-Foulkes estimate   =    -117.93304034 Ry
     estimated scf accuracy    <       0.00000004 Ry

     iteration #  3     ecut=    50.00 Ry     beta= 0.60
     Davidson diagonalization with overlap
     ethr =  3.44E-10,  avg # of iterations =  1.1

     total cpu time spent up to now is      343.4 secs

     total energy              =    -117.93304032 Ry
     Harris-Foulkes estimate   =    -117.93304033 Ry
     estimated scf accuracy    <          9.0E-09 Ry

     iteration #  4     ecut=    50.00 Ry     beta= 0.60
     Davidson diagonalization with overlap
     ethr =  6.95E-11,  avg # of iterations =  2.0

     total cpu time spent up to now is      347.4 secs

     total energy              =    -117.93304032 Ry
     Harris-Foulkes estimate   =    -117.93304032 Ry
     estimated scf accuracy    <          1.3E-09 Ry

     iteration #  5     ecut=    50.00 Ry     beta= 0.60
     Davidson diagonalization with overlap
     ethr =  9.89E-12,  avg # of iterations =  2.3

     total cpu time spent up to now is      351.9 secs

     total energy              =    -117.93304032 Ry
     Harris-Foulkes estimate   =    -117.93304032 Ry
     estimated scf accuracy    <          2.6E-10 Ry

     iteration #  6     ecut=    50.00 Ry     beta= 0.60
     Davidson diagonalization with overlap
     ethr =  1.97E-12,  avg # of iterations =  1.0

     total cpu time spent up to now is      355.6 secs

     total energy              =    -117.93304032 Ry
     Harris-Foulkes estimate   =    -117.93304032 Ry
     estimated scf accuracy    <          7.8E-11 Ry

     iteration #  7     ecut=    50.00 Ry     beta= 0.60
     Davidson diagonalization with overlap
     ethr =  6.02E-13,  avg # of iterations =  3.0

     total cpu time spent up to now is      360.4 secs

     total energy              =    -117.93304032 Ry
     Harris-Foulkes estimate   =    -117.93304032 Ry
     estimated scf accuracy    <          1.0E-10 Ry

     iteration #  8     ecut=    50.00 Ry     beta= 0.60
     Davidson diagonalization with overlap
     ethr =  6.02E-13,  avg # of iterations =  2.0

     total cpu time spent up to now is      364.6 secs

     End of self-consistent calculation

     Number of k-points >= 100: set verbosity='high' to print the bands.

     the Fermi energy is    17.8735 ev

!    total energy              =    -117.93304032 Ry
     Harris-Foulkes estimate   =    -117.93304032 Ry
     estimated scf accuracy    <          6.3E-13 Ry

     The total energy is the sum of the following terms:

     one-electron contribution =     -16.10163943 Ry
     hartree contribution      =      14.98887117 Ry
     xc contribution           =     -18.43973184 Ry
     ewald contribution        =     -98.38084896 Ry
     smearing contrib. (-TS)   =       0.00030874 Ry

     convergence has been achieved in   8 iterations

     Forces acting on atoms (cartesian axes, Ry/au):

     atom    1 type  1   force =     0.00000000    0.00000000    0.00000000

     Total force =     0.000000     Total SCF correction =     0.000000


     Computing stress (Cartesian axis) and pressure

          total   stress  (Ry/bohr**3)                   (kbar)     P=   -0.01
  -0.00000010  -0.00000000  -0.00000000         -0.01     -0.00     -0.00
  -0.00000000  -0.00000010   0.00000000         -0.00     -0.01      0.00
  -0.00000000   0.00000000  -0.00000010         -0.00      0.00     -0.01


     number of scf cycles    =   6
     number of bfgs steps    =   5

     enthalpy old            =    -117.9330403213 Ry
     enthalpy new            =    -117.9330403234 Ry

     CASE: enthalpy_new < enthalpy_old

     Message from routine bfgs:
     history already reset at previous step: stopping
     small trust_radius: resetting bfgs history

     new trust radius        =       0.0000056053 bohr
     new conv_thr            =            1.0E-12 Ry

     new unit-cell volume =    122.15883 a.u.^3 (    18.10207 Ang^3 )
     density =      8.52249 g/cm^3

CELL_PARAMETERS (alat=  1.88972599)
   1.654078519  -1.654078519   1.654078519
   1.654078519   1.654078519  -1.654078519
  -1.654078519   1.654078519   1.654078519

ATOMIC_POSITIONS (angstrom)
Nb       1.654078519   1.654078519   1.654078519


     NEW-OLD atomic charge density approx. for the potential
     extrapolated charge   12.99990, renormalised to   13.00000

     total cpu time spent up to now is      369.1 secs

     Self-consistent Calculation

     iteration #  1     ecut=    50.00 Ry     beta= 0.60
     Davidson diagonalization with overlap
     ethr =  1.00E-06,  avg # of iterations =  2.0

     Threshold (ethr) on eigenvalues was too large:
     Diagonalizing with lowered threshold

     Davidson diagonalization with overlap
     ethr =  9.43E-12,  avg # of iterations =  1.0

     total cpu time spent up to now is      377.1 secs

     total energy              =    -117.93304032 Ry
     Harris-Foulkes estimate   =    -117.93312565 Ry
     estimated scf accuracy    <          1.2E-09 Ry

     iteration #  2     ecut=    50.00 Ry     beta= 0.60
     Davidson diagonalization with overlap
     ethr =  9.55E-12,  avg # of iterations =  3.0

     total cpu time spent up to now is      381.9 secs

     total energy              =    -117.93304032 Ry
     Harris-Foulkes estimate   =    -117.93304032 Ry
     estimated scf accuracy    <          1.2E-09 Ry

     iteration #  3     ecut=    50.00 Ry     beta= 0.60
     Davidson diagonalization with overlap
     ethr =  9.14E-12,  avg # of iterations =  1.1

     total cpu time spent up to now is      385.6 secs

     total energy              =    -117.93304032 Ry
     Harris-Foulkes estimate   =    -117.93304032 Ry
     estimated scf accuracy    <          2.4E-10 Ry

     iteration #  4     ecut=    50.00 Ry     beta= 0.60
     Davidson diagonalization with overlap
     ethr =  1.81E-12,  avg # of iterations =  2.0

     total cpu time spent up to now is      389.7 secs

     total energy              =    -117.93304032 Ry
     Harris-Foulkes estimate   =    -117.93304032 Ry
     estimated scf accuracy    <          3.3E-11 Ry

     iteration #  5     ecut=    50.00 Ry     beta= 0.60
     Davidson diagonalization with overlap
     ethr =  2.56E-13,  avg # of iterations =  2.3

     total cpu time spent up to now is      394.2 secs

     total energy              =    -117.93304032 Ry
     Harris-Foulkes estimate   =    -117.93304032 Ry
     estimated scf accuracy    <          6.6E-12 Ry

     iteration #  6     ecut=    50.00 Ry     beta= 0.60
     Davidson diagonalization with overlap
     ethr =  1.00E-13,  avg # of iterations =  1.0

     total cpu time spent up to now is      397.9 secs

     total energy              =    -117.93304032 Ry
     Harris-Foulkes estimate   =    -117.93304032 Ry
     estimated scf accuracy    <          2.2E-12 Ry

     iteration #  7     ecut=    50.00 Ry     beta= 0.60
     Davidson diagonalization with overlap
     ethr =  1.00E-13,  avg # of iterations =  2.0

     total cpu time spent up to now is      401.9 secs

     total energy              =    -117.93304032 Ry
     Harris-Foulkes estimate   =    -117.93304032 Ry
     estimated scf accuracy    <          2.9E-12 Ry

     iteration #  8     ecut=    50.00 Ry     beta= 0.60
     Davidson diagonalization with overlap
     ethr =  1.00E-13,  avg # of iterations =  1.0

     total cpu time spent up to now is      405.6 secs

     End of self-consistent calculation

     Number of k-points >= 100: set verbosity='high' to print the bands.

     the Fermi energy is    17.8736 ev

!    total energy              =    -117.93304032 Ry
     Harris-Foulkes estimate   =    -117.93304032 Ry
     estimated scf accuracy    <          1.2E-13 Ry

     The total energy is the sum of the following terms:

     one-electron contribution =     -16.10128965 Ry
     hartree contribution      =      14.98877985 Ry
     xc contribution           =     -18.43974085 Ry
     ewald contribution        =     -98.38109842 Ry
     smearing contrib. (-TS)   =       0.00030875 Ry

     convergence has been achieved in   8 iterations

     Forces acting on atoms (cartesian axes, Ry/au):

     atom    1 type  1   force =     0.00000000    0.00000000    0.00000000

     Total force =     0.000000     Total SCF correction =     0.000000


     Computing stress (Cartesian axis) and pressure

          total   stress  (Ry/bohr**3)                   (kbar)     P=    0.00
   0.00000001   0.00000000   0.00000000          0.00      0.00      0.00
   0.00000000   0.00000001   0.00000000          0.00      0.00      0.00
   0.00000000   0.00000000   0.00000001          0.00      0.00      0.00


     bfgs converged in   7 scf cycles and   6 bfgs steps
     (criteria: energy <  1.0E-10 Ry, force <  1.0E-05Ry/Bohr, cell <  1.0E-03kbar)

     End of BFGS Geometry Optimization

     Final enthalpy =    -117.9330403234 Ry
Begin final coordinates
     new unit-cell volume =    122.15883 a.u.^3 (    18.10207 Ang^3 )
     density =      8.52249 g/cm^3

CELL_PARAMETERS (alat=  1.88972599)
   1.654078519  -1.654078519   1.654078519
   1.654078519   1.654078519  -1.654078519
  -1.654078519   1.654078519   1.654078519

ATOMIC_POSITIONS (angstrom)
Nb       1.654078519   1.654078519   1.654078519
End final coordinates



     A final scf calculation at the relaxed structure.
     The G-vectors are recalculated for the final unit cell
     Results may differ from those at the preceding step.
 
     G-vector sticks info
     --------------------
     sticks:   dense  smooth     PW     G-vecs:    dense   smooth      PW
     Sum        1105     437    173                23215     5775    1433
 


     bravais-lattice index     =            0
     lattice parameter (alat)  =       1.8897  a.u.
     unit-cell volume          =     122.1588 (a.u.)^3
     number of atoms/cell      =            1
     number of atomic types    =            1
     number of electrons       =        13.00
     number of Kohn-Sham states=           11
     kinetic-energy cutoff     =      50.0000  Ry
     charge density cutoff     =     500.0000  Ry
     convergence threshold     =      1.0E-12
     mixing beta               =       0.6000
     number of iterations used =            8  plain     mixing
     Exchange-correlation      = SLA PW PBE PBE ( 1  4  3  4 0 0)

     celldm(1)=   1.889726  celldm(2)=   0.000000  celldm(3)=   0.000000
     celldm(4)=   0.000000  celldm(5)=   0.000000  celldm(6)=   0.000000

     crystal axes: (cart. coord. in units of alat)
               a(1) = (   1.654079  -1.654079   1.654079 )  
               a(2) = (   1.654079   1.654079  -1.654079 )  
               a(3) = (  -1.654079   1.654079   1.654079 )  

     reciprocal axes: (cart. coord. in units 2 pi/alat)
               b(1) = (  0.302283  0.000000  0.302283 )  
               b(2) = (  0.302283  0.302283  0.000000 )  
               b(3) = (  0.000000  0.302283  0.302283 )  


     PseudoPot. # 1 for Nb read from file:
     /home/u16/abhishekkt/fp/krishna/calculations/pseudopotentials/Nb.pbe-nsp-van.UPF
     MD5 check sum: c44c1a86bf31974e1e832c2ec821fd5f
     Pseudo is Ultrasoft + core correction, Zval = 13.0
     Generated by new atomic code, or converted to UPF format
     Using radial grid of  887 points,  6 beta functions with: 
                l(1) =   0
                l(2) =   0
                l(3) =   1
                l(4) =   1
                l(5) =   2
                l(6) =   2
     Q(r) pseudized with  6 coefficients,  rinner =    1.000   1.000   1.000
                                                       1.000   1.000

     atomic species   valence    mass     pseudopotential
        Nb            13.00    92.90638     Nb( 1.00)

     48 Sym. Ops., with inversion, found



   Cartesian axes

     site n.     atom                  positions (alat units)
         1           Nb  tau(   1) = (   1.6540786   1.6540786   1.6540786  )

     number of k points=   256  Marzari-Vanderbilt smearing, width (Ry)=  0.0200

     Number of k-points >= 100: set verbosity='high' to print them.

     Dense  grid:    23215 G-vectors     FFT dimensions: (  40,  40,  40)

     Smooth grid:     5775 G-vectors     FFT dimensions: (  25,  25,  25)

     Estimated max dynamical RAM per process >     118.06 MB

     Initial potential from superposition of free atoms

     starting charge   12.99727, renormalised to   13.00000
     Starting wfcs are   13 randomized atomic wfcs

     total cpu time spent up to now is      411.1 secs

     Self-consistent Calculation

     iteration #  1     ecut=    50.00 Ry     beta= 0.60
     Davidson diagonalization with overlap
     ethr =  1.00E-06,  avg # of iterations =  9.7

     total cpu time spent up to now is      420.3 secs

     total energy              =    -117.91508711 Ry
     Harris-Foulkes estimate   =    -117.96571321 Ry
     estimated scf accuracy    <       0.09176946 Ry

     iteration #  2     ecut=    50.00 Ry     beta= 0.60
     Davidson diagonalization with overlap
     ethr =  7.06E-04,  avg # of iterations =  2.0

     total cpu time spent up to now is      424.4 secs

     total energy              =    -117.93263868 Ry
     Harris-Foulkes estimate   =    -117.93325197 Ry
     estimated scf accuracy    <       0.00228591 Ry

     iteration #  3     ecut=    50.00 Ry     beta= 0.60
     Davidson diagonalization with overlap
     ethr =  1.76E-05,  avg # of iterations =  2.5

     total cpu time spent up to now is      428.5 secs

     total energy              =    -117.93288929 Ry
     Harris-Foulkes estimate   =    -117.93288960 Ry
     estimated scf accuracy    <       0.00030303 Ry

     iteration #  4     ecut=    50.00 Ry     beta= 0.60
     Davidson diagonalization with overlap
     ethr =  2.33E-06,  avg # of iterations =  1.4

     total cpu time spent up to now is      432.1 secs

     total energy              =    -117.93289805 Ry
     Harris-Foulkes estimate   =    -117.93289789 Ry
     estimated scf accuracy    <       0.00000082 Ry

     iteration #  5     ecut=    50.00 Ry     beta= 0.60
     Davidson diagonalization with overlap
     ethr =  6.31E-09,  avg # of iterations =  2.7

     total cpu time spent up to now is      436.6 secs

     total energy              =    -117.93289852 Ry
     Harris-Foulkes estimate   =    -117.93289852 Ry
     estimated scf accuracy    <       0.00000001 Ry

     iteration #  6     ecut=    50.00 Ry     beta= 0.60
     Davidson diagonalization with overlap
     ethr =  9.30E-11,  avg # of iterations =  2.0

     total cpu time spent up to now is      440.5 secs

     total energy              =    -117.93289852 Ry
     Harris-Foulkes estimate   =    -117.93289852 Ry
     estimated scf accuracy    <          6.3E-10 Ry

     iteration #  7     ecut=    50.00 Ry     beta= 0.60
     Davidson diagonalization with overlap
     ethr =  4.82E-12,  avg # of iterations =  1.9

     total cpu time spent up to now is      444.2 secs

     total energy              =    -117.93289852 Ry
     Harris-Foulkes estimate   =    -117.93289852 Ry
     estimated scf accuracy    <          2.0E-11 Ry

     iteration #  8     ecut=    50.00 Ry     beta= 0.60
     Davidson diagonalization with overlap
     ethr =  1.56E-13,  avg # of iterations =  2.1

     total cpu time spent up to now is      448.3 secs

     End of self-consistent calculation

     Number of k-points >= 100: set verbosity='high' to print the bands.

     the Fermi energy is    17.8737 ev

!    total energy              =    -117.93289852 Ry
     Harris-Foulkes estimate   =    -117.93289852 Ry
     estimated scf accuracy    <          1.5E-13 Ry

     The total energy is the sum of the following terms:

     one-electron contribution =     -16.10126936 Ry
     hartree contribution      =      14.98876495 Ry
     xc contribution           =     -18.43960445 Ry
     ewald contribution        =     -98.38109842 Ry
     smearing contrib. (-TS)   =       0.00030876 Ry

     convergence has been achieved in   8 iterations

     Forces acting on atoms (cartesian axes, Ry/au):

     atom    1 type  1   force =     0.00000000    0.00000000    0.00000000

     Total force =     0.000000     Total SCF correction =     0.000000


     Computing stress (Cartesian axis) and pressure

          total   stress  (Ry/bohr**3)                   (kbar)     P=   -1.76
  -0.00001194  -0.00000000  -0.00000000         -1.76     -0.00     -0.00
  -0.00000000  -0.00001194  -0.00000000         -0.00     -1.76     -0.00
  -0.00000000  -0.00000000  -0.00001194         -0.00     -0.00     -1.76

 
     init_run     :      4.62s CPU      5.01s WALL (       2 calls)
     electrons    :    399.28s CPU    412.40s WALL (       8 calls)
     update_pot   :      5.18s CPU      5.20s WALL (       6 calls)
     forces       :      6.06s CPU      6.50s WALL (       8 calls)
     stress       :     18.20s CPU     19.38s WALL (       8 calls)

     Called by init_run:
     wfcinit      :      3.12s CPU      3.18s WALL (       2 calls)
     potinit      :      0.26s CPU      0.27s WALL (       2 calls)
     hinit0       :      1.15s CPU      1.16s WALL (       2 calls)

     Called by electrons:
     c_bands      :    324.63s CPU    328.84s WALL (      96 calls)
     sum_band     :     67.27s CPU     71.89s WALL (      96 calls)
     v_of_rho     :      3.69s CPU      3.72s WALL (     101 calls)
     newd         :      3.75s CPU      8.32s WALL (     101 calls)
     mix_rho      :      0.31s CPU      0.31s WALL (      96 calls)

     Called by c_bands:
     init_us_2    :     15.05s CPU     15.13s WALL (   53760 calls)
     cegterg      :    285.40s CPU    288.91s WALL (   24576 calls)

     Called by sum_band:
     sum_band:bec :      0.12s CPU      0.13s WALL (   24576 calls)
     addusdens    :      5.32s CPU      9.40s WALL (      96 calls)

     Called by *egterg:
     h_psi        :    242.99s CPU    245.78s WALL (   75712 calls)
     s_psi        :      4.26s CPU      4.28s WALL (   75712 calls)
     g_psi        :      2.75s CPU      2.79s WALL (   50624 calls)
     cdiaghg      :     15.01s CPU     14.97s WALL (   72896 calls)

     Called by h_psi:
     h_psi:pot    :    242.08s CPU    244.82s WALL (   75712 calls)
     h_psi:calbec :      4.67s CPU      4.82s WALL (   75712 calls)
     vloc_psi     :    232.86s CPU    235.33s WALL (   75712 calls)
     add_vuspsi   :      4.28s CPU      4.29s WALL (   75712 calls)

     General routines
     calbec       :      6.96s CPU      7.10s WALL (  110528 calls)
     fft          :      1.44s CPU      1.45s WALL (    1514 calls)
     ffts         :      0.03s CPU      0.03s WALL (     197 calls)
     fftw         :    254.16s CPU    255.56s WALL ( 1599128 calls)
     interpolate  :      0.12s CPU      0.13s WALL (     101 calls)
 
     Parallel routines
 
     PWSCF        :  7m13.79s CPU     7m30.26s WALL

 
   This run was terminated on:  13:16:30  13Jan2020            

=------------------------------------------------------------------------------=
   JOB DONE.
=------------------------------------------------------------------------------=
