
     Program PWSCF v.6.3MaX starts on 21Jan2020 at  7:34:17 

     This program is part of the open-source Quantum ESPRESSO suite
     for quantum simulation of materials; please cite
         "P. Giannozzi et al., J. Phys.:Condens. Matter 21 395502 (2009);
         "P. Giannozzi et al., J. Phys.:Condens. Matter 29 465901 (2017);
          URL http://www.quantum-espresso.org", 
     in publications or presentations arising from this work. More details at
     http://www.quantum-espresso.org/quote

     Parallel version (MPI), running on    12 processors

     MPI processes distributed on     1 nodes
     R & G space division:  proc/nbgrp/npool/nimage =      12
     Waiting for input...
     Reading input from standard input

     Current dimensions of program PWSCF are:
     Max number of different atomic species (ntypx) = 10
     Max number of k-points (npk) =  40000
     Max angular momentum in pseudopotentials (lmaxx) =  3
     Message from routine iosys:
     minimal I/O required, wf_collect reset to FALSE

     Subspace diagonalization in iterative solution of the eigenvalue problem:
     a serial algorithm will be used

     warning: symmetry operation #  2 not compatible with FFT grid. 
  -1   0   0
  -1   0   1
  -1   1   0
     warning: symmetry operation #  3 not compatible with FFT grid. 
   0   1  -1
   1   0  -1
   0   0  -1
     warning: symmetry operation #  4 not compatible with FFT grid. 
   0  -1   1
   0  -1   0
   1  -1   0
     warning: symmetry operation #  6 not compatible with FFT grid. 
   1   0   0
   1   0  -1
   1  -1   0
     warning: symmetry operation #  7 not compatible with FFT grid. 
   0  -1   1
  -1   0   1
   0   0   1
     warning: symmetry operation #  8 not compatible with FFT grid. 
   0   1  -1
   0   1   0
  -1   1   0
 
     Parallelization info
     --------------------
     sticks:   dense  smooth     PW     G-vecs:    dense   smooth      PW
     Min         273     109     37                 6938     1746     340
     Max         274     110     38                 6941     1747     341
     Sum        3287    1309    445                83279    20961    4089
 


     bravais-lattice index     =            0
     lattice parameter (alat)  =       1.8897  a.u.
     unit-cell volume          =     440.0051 (a.u.)^3
     number of atoms/cell      =            3
     number of atomic types    =            2
     number of electrons       =        38.00
     number of Kohn-Sham states=           23
     kinetic-energy cutoff     =      50.0000  Ry
     charge density cutoff     =     500.0000  Ry
     convergence threshold     =      1.0E-10
     mixing beta               =       0.6000
     number of iterations used =            8  plain     mixing
     Exchange-correlation      = SLA PW PBE PBE ( 1  4  3  4 0 0)
     nstep                     =           50


     celldm(1)=   1.889726  celldm(2)=   0.000000  celldm(3)=   0.000000
     celldm(4)=   0.000000  celldm(5)=   0.000000  celldm(6)=   0.000000

     crystal axes: (cart. coord. in units of alat)
               a(1) = (   0.000000   7.032126   3.516063 )  
               a(2) = (   1.758031   5.274095   5.274095 )  
               a(3) = (   1.758031   1.758031  -1.758031 )  

     reciprocal axes: (cart. coord. in units 2 pi/alat)
               b(1) = ( -0.284409  0.189606 -0.094803 )  
               b(2) = (  0.284409 -0.094803  0.189606 )  
               b(3) = (  0.284409  0.094803 -0.189606 )  


     PseudoPot. # 1 for Nb read from file:
     /home/u16/abhishekkt/fp/krishna/calculations/pseudopotentials/Nb.pbe-nsp-van.UPF
     MD5 check sum: c44c1a86bf31974e1e832c2ec821fd5f
     Pseudo is Ultrasoft + core correction, Zval = 13.0
     Generated by new atomic code, or converted to UPF format
     Using radial grid of  887 points,  6 beta functions with: 
                l(1) =   0
                l(2) =   0
                l(3) =   1
                l(4) =   1
                l(5) =   2
                l(6) =   2
     Q(r) pseudized with  6 coefficients,  rinner =    1.000   1.000   1.000
                                                       1.000   1.000

     PseudoPot. # 2 for Ti read from file:
     /home/u16/abhishekkt/fp/krishna/calculations/pseudopotentials/Ti.pbe-sp-van_ak.UPF
     MD5 check sum: 84d3ec9e8983e94242673103c800fb48
     Pseudo is Ultrasoft, Zval = 12.0
     Generated by new atomic code, or converted to UPF format
     Using radial grid of  851 points,  6 beta functions with: 
                l(1) =   0
                l(2) =   0
                l(3) =   1
                l(4) =   1
                l(5) =   2
                l(6) =   2
     Q(r) pseudized with  8 coefficients,  rinner =    1.000   1.000   1.000
                                                       1.000   1.000

     atomic species   valence    mass     pseudopotential
        Nb            13.00    92.90638     Nb( 1.00)
        Ti            12.00    47.86700     Ti( 1.00)

      2 Sym. Ops., with inversion, found ( 1 have fractional translation)



   Cartesian axes

     site n.     atom                  positions (alat units)
         1           Ti  tau(   1) = (   1.7580316   8.7901582   5.2740949  )
         2           Nb  tau(   2) = (   3.5160633  14.0642531   7.0321265  )
         3           Nb  tau(   3) = (   1.7580316   5.2740949   1.7580316  )

     number of k points=  1376  Marzari-Vanderbilt smearing, width (Ry)=  0.0200

     Number of k-points >= 100: set verbosity='high' to print them.

     Dense  grid:    83279 G-vectors     FFT dimensions: ( 108, 108,  45)

     Smooth grid:    20961 G-vectors     FFT dimensions: (  72,  72,  25)

     Estimated max dynamical RAM per process >     135.25 MB

     Estimated total dynamical RAM >       1.58 GB

     Initial potential from superposition of free atoms

     starting charge   36.99449, renormalised to   38.00000
     Starting wfcs are   36 randomized atomic wfcs

     total cpu time spent up to now is       54.1 secs

     Self-consistent Calculation

     iteration #  1     ecut=    50.00 Ry     beta= 0.60
     Davidson diagonalization with overlap
     ethr =  1.00E-02,  avg # of iterations =  3.7

     total cpu time spent up to now is      267.8 secs

     total energy              =    -308.43215814 Ry
     Harris-Foulkes estimate   =    -356.76054938 Ry
     estimated scf accuracy    <      59.40173971 Ry

     iteration #  2     ecut=    50.00 Ry     beta= 0.60
     Davidson diagonalization with overlap
     ethr =  1.00E-02,  avg # of iterations =  8.8

     total cpu time spent up to now is      608.5 secs

     total energy              =    -344.20791868 Ry
     Harris-Foulkes estimate   =    -443.67819286 Ry
     estimated scf accuracy    <     311.88017660 Ry

     iteration #  3     ecut=    50.00 Ry     beta= 0.60
     Davidson diagonalization with overlap
     ethr =  1.00E-02,  avg # of iterations =  7.7

     total cpu time spent up to now is      883.2 secs

     total energy              =    -354.96841469 Ry
     Harris-Foulkes estimate   =    -359.06299507 Ry
     estimated scf accuracy    <      23.58580240 Ry

     iteration #  4     ecut=    50.00 Ry     beta= 0.60
     Davidson diagonalization with overlap
     ethr =  1.00E-02,  avg # of iterations =  2.1

     total cpu time spent up to now is     1042.2 secs

     total energy              =    -353.89281973 Ry
     Harris-Foulkes estimate   =    -355.26755330 Ry
     estimated scf accuracy    <      13.84880929 Ry

     iteration #  5     ecut=    50.00 Ry     beta= 0.60
     Davidson diagonalization with overlap
     ethr =  1.00E-02,  avg # of iterations =  1.1

     total cpu time spent up to now is     1155.5 secs

     total energy              =    -352.42291097 Ry
     Harris-Foulkes estimate   =    -353.96403275 Ry
     estimated scf accuracy    <      10.17448919 Ry

     iteration #  6     ecut=    50.00 Ry     beta= 0.60
     Davidson diagonalization with overlap
     ethr =  1.00E-02,  avg # of iterations =  3.3

     total cpu time spent up to now is     1331.4 secs

     total energy              =    -352.68036388 Ry
     Harris-Foulkes estimate   =    -352.73018932 Ry
     estimated scf accuracy    <       2.98759887 Ry

     iteration #  7     ecut=    50.00 Ry     beta= 0.60
     Davidson diagonalization with overlap
     ethr =  7.86E-03,  avg # of iterations =  1.1

     total cpu time spent up to now is     1435.0 secs

     total energy              =    -352.53827539 Ry
     Harris-Foulkes estimate   =    -352.70763026 Ry
     estimated scf accuracy    <       2.45267743 Ry

     iteration #  8     ecut=    50.00 Ry     beta= 0.60
     Davidson diagonalization with overlap
     ethr =  6.45E-03,  avg # of iterations =  1.2

     total cpu time spent up to now is     1523.8 secs

     total energy              =    -352.45762133 Ry
     Harris-Foulkes estimate   =    -352.56832957 Ry
     estimated scf accuracy    <       1.50647802 Ry

     iteration #  9     ecut=    50.00 Ry     beta= 0.60
     Davidson diagonalization with overlap
     ethr =  3.96E-03,  avg # of iterations =  1.4

     total cpu time spent up to now is     1614.7 secs

     total energy              =    -352.16443939 Ry
     Harris-Foulkes estimate   =    -352.48053383 Ry
     estimated scf accuracy    <       1.14546655 Ry

     iteration # 10     ecut=    50.00 Ry     beta= 0.60
     Davidson diagonalization with overlap
     ethr =  3.01E-03,  avg # of iterations =  4.8

     total cpu time spent up to now is     1790.7 secs

     total energy              =    -353.17769117 Ry
     Harris-Foulkes estimate   =    -352.75224098 Ry
     estimated scf accuracy    <       9.46417828 Ry

     iteration # 11     ecut=    50.00 Ry     beta= 0.60
     Davidson diagonalization with overlap
     ethr =  3.01E-03,  avg # of iterations =  1.0

     total cpu time spent up to now is     1870.9 secs

     total energy              =    -353.28881764 Ry
     Harris-Foulkes estimate   =    -353.32678244 Ry
     estimated scf accuracy    <      26.48686815 Ry

     iteration # 12     ecut=    50.00 Ry     beta= 0.60
     Davidson diagonalization with overlap
     ethr =  3.01E-03,  avg # of iterations =  1.0

     total cpu time spent up to now is     1958.8 secs

     total energy              =    -353.34240063 Ry
     Harris-Foulkes estimate   =    -353.29990176 Ry
     estimated scf accuracy    <      26.06310573 Ry

     iteration # 13     ecut=    50.00 Ry     beta= 0.60
     Davidson diagonalization with overlap
     ethr =  3.01E-03,  avg # of iterations =  1.0

     total cpu time spent up to now is     2071.0 secs

     total energy              =    -353.22960777 Ry
     Harris-Foulkes estimate   =    -353.35172529 Ry
     estimated scf accuracy    <      28.27023803 Ry

     iteration # 14     ecut=    50.00 Ry     beta= 0.60
     Davidson diagonalization with overlap
     ethr =  3.01E-03,  avg # of iterations =  1.0

     total cpu time spent up to now is     2131.5 secs

     total energy              =    -352.34341345 Ry
     Harris-Foulkes estimate   =    -353.23748287 Ry
     estimated scf accuracy    <      26.18950232 Ry

     iteration # 15     ecut=    50.00 Ry     beta= 0.60
     Davidson diagonalization with overlap
     ethr =  3.01E-03,  avg # of iterations =  1.2

     total cpu time spent up to now is     2321.1 secs

     total energy              =    -352.40833687 Ry
     Harris-Foulkes estimate   =    -352.58060924 Ry
     estimated scf accuracy    <       5.61714778 Ry

     iteration # 16     ecut=    50.00 Ry     beta= 0.60
     Davidson diagonalization with overlap
     ethr =  3.01E-03,  avg # of iterations =  2.6

     total cpu time spent up to now is     2449.3 secs

     total energy              =    -352.37050967 Ry
     Harris-Foulkes estimate   =    -352.47709063 Ry
     estimated scf accuracy    <       1.49023030 Ry

     iteration # 17     ecut=    50.00 Ry     beta= 0.60
     Davidson diagonalization with overlap
     ethr =  3.01E-03,  avg # of iterations =  2.1

     total cpu time spent up to now is     2532.0 secs

     total energy              =    -352.43514559 Ry
     Harris-Foulkes estimate   =    -352.43538005 Ry
     estimated scf accuracy    <       0.01558547 Ry

     iteration # 18     ecut=    50.00 Ry     beta= 0.60
     Davidson diagonalization with overlap
     ethr =  4.10E-05,  avg # of iterations =  6.5

     total cpu time spent up to now is     2669.7 secs

     total energy              =    -352.45123235 Ry
     Harris-Foulkes estimate   =    -352.45116805 Ry
     estimated scf accuracy    <       0.00977378 Ry

     iteration # 19     ecut=    50.00 Ry     beta= 0.60
     Davidson diagonalization with overlap
     ethr =  2.57E-05,  avg # of iterations =  1.0

     total cpu time spent up to now is     2744.5 secs

     total energy              =    -352.45144502 Ry
     Harris-Foulkes estimate   =    -352.45129476 Ry
     estimated scf accuracy    <       0.01011884 Ry

     iteration # 20     ecut=    50.00 Ry     beta= 0.60
     Davidson diagonalization with overlap
     ethr =  2.57E-05,  avg # of iterations =  3.7

     total cpu time spent up to now is     2836.3 secs

     total energy              =    -352.44542281 Ry
     Harris-Foulkes estimate   =    -352.45306893 Ry
     estimated scf accuracy    <       0.05591246 Ry

     iteration # 21     ecut=    50.00 Ry     beta= 0.60
     Davidson diagonalization with overlap
     ethr =  2.57E-05,  avg # of iterations =  5.4

     total cpu time spent up to now is     2901.3 secs

     total energy              =    -352.44595567 Ry
     Harris-Foulkes estimate   =    -352.45250435 Ry
     estimated scf accuracy    <       0.01910589 Ry

     iteration # 22     ecut=    50.00 Ry     beta= 0.60
     Davidson diagonalization with overlap
     ethr =  2.57E-05,  avg # of iterations =  5.7

     total cpu time spent up to now is     2969.1 secs

     total energy              =    -352.44108212 Ry
     Harris-Foulkes estimate   =    -352.45790914 Ry
     estimated scf accuracy    <       0.21084245 Ry

     iteration # 23     ecut=    50.00 Ry     beta= 0.60
     Davidson diagonalization with overlap
     ethr =  2.57E-05,  avg # of iterations =  5.1

     total cpu time spent up to now is     3029.4 secs

     total energy              =    -352.44818072 Ry
     Harris-Foulkes estimate   =    -352.44961260 Ry
     estimated scf accuracy    <       0.00850237 Ry

     iteration # 24     ecut=    50.00 Ry     beta= 0.60
     Davidson diagonalization with overlap
     ethr =  2.24E-05,  avg # of iterations =  1.3

     total cpu time spent up to now is     3065.6 secs

     total energy              =    -352.44836572 Ry
     Harris-Foulkes estimate   =    -352.44845335 Ry
     estimated scf accuracy    <       0.00598539 Ry

     iteration # 25     ecut=    50.00 Ry     beta= 0.60
     Davidson diagonalization with overlap
     ethr =  1.58E-05,  avg # of iterations =  1.2

     total cpu time spent up to now is     3101.7 secs

     total energy              =    -352.44805224 Ry
     Harris-Foulkes estimate   =    -352.44853923 Ry
     estimated scf accuracy    <       0.00974631 Ry

     iteration # 26     ecut=    50.00 Ry     beta= 0.60
     Davidson diagonalization with overlap
     ethr =  1.58E-05,  avg # of iterations =  1.1

     total cpu time spent up to now is     3137.7 secs

     total energy              =    -352.44794226 Ry
     Harris-Foulkes estimate   =    -352.44820341 Ry
     estimated scf accuracy    <       0.00314256 Ry

     iteration # 27     ecut=    50.00 Ry     beta= 0.60
     Davidson diagonalization with overlap
     ethr =  8.27E-06,  avg # of iterations =  4.6

     total cpu time spent up to now is     3186.6 secs

     total energy              =    -352.44820776 Ry
     Harris-Foulkes estimate   =    -352.44824158 Ry
     estimated scf accuracy    <       0.00008835 Ry

     iteration # 28     ecut=    50.00 Ry     beta= 0.60
     Davidson diagonalization with overlap
     ethr =  2.32E-07,  avg # of iterations =  4.8

     total cpu time spent up to now is     3241.7 secs

     total energy              =    -352.44823166 Ry
     Harris-Foulkes estimate   =    -352.44823576 Ry
     estimated scf accuracy    <       0.00002306 Ry

     iteration # 29     ecut=    50.00 Ry     beta= 0.60
     Davidson diagonalization with overlap
     ethr =  6.07E-08,  avg # of iterations =  3.4

     total cpu time spent up to now is     3290.1 secs

     total energy              =    -352.44823450 Ry
     Harris-Foulkes estimate   =    -352.44823500 Ry
     estimated scf accuracy    <       0.00000733 Ry

     iteration # 30     ecut=    50.00 Ry     beta= 0.60
     Davidson diagonalization with overlap
     ethr =  1.93E-08,  avg # of iterations =  2.1

     total cpu time spent up to now is     3335.3 secs

     total energy              =    -352.44823464 Ry
     Harris-Foulkes estimate   =    -352.44823490 Ry
     estimated scf accuracy    <       0.00000179 Ry

     iteration # 31     ecut=    50.00 Ry     beta= 0.60
     Davidson diagonalization with overlap
     ethr =  4.72E-09,  avg # of iterations =  3.1

     total cpu time spent up to now is     3385.5 secs

     total energy              =    -352.44823471 Ry
     Harris-Foulkes estimate   =    -352.44823476 Ry
     estimated scf accuracy    <       0.00000029 Ry

     iteration # 32     ecut=    50.00 Ry     beta= 0.60
     Davidson diagonalization with overlap
     ethr =  7.53E-10,  avg # of iterations =  3.9

     total cpu time spent up to now is     3444.0 secs

     total energy              =    -352.44823475 Ry
     Harris-Foulkes estimate   =    -352.44823475 Ry
     estimated scf accuracy    <          1.4E-09 Ry

     iteration # 33     ecut=    50.00 Ry     beta= 0.60
     Davidson diagonalization with overlap
     ethr =  3.74E-12,  avg # of iterations =  5.2

     total cpu time spent up to now is     3528.1 secs

     total energy              =    -352.44823476 Ry
     Harris-Foulkes estimate   =    -352.44823476 Ry
     estimated scf accuracy    <          2.0E-09 Ry

     iteration # 34     ecut=    50.00 Ry     beta= 0.60
     Davidson diagonalization with overlap
     ethr =  3.74E-12,  avg # of iterations =  2.8

     total cpu time spent up to now is     3576.8 secs

     total energy              =    -352.44823476 Ry
     Harris-Foulkes estimate   =    -352.44823476 Ry
     estimated scf accuracy    <          1.2E-10 Ry

     iteration # 35     ecut=    50.00 Ry     beta= 0.60
     Davidson diagonalization with overlap
     ethr =  3.21E-13,  avg # of iterations =  4.6

     total cpu time spent up to now is     3645.4 secs

     total energy              =    -352.44823476 Ry
     Harris-Foulkes estimate   =    -352.44823476 Ry
     estimated scf accuracy    <          1.4E-10 Ry

     iteration # 36     ecut=    50.00 Ry     beta= 0.60
     Davidson diagonalization with overlap
     ethr =  3.21E-13,  avg # of iterations =  1.0

     total cpu time spent up to now is     3686.5 secs

     End of self-consistent calculation

     Number of k-points >= 100: set verbosity='high' to print the bands.

     the Fermi energy is    12.9120 ev

!    total energy              =    -352.44823476 Ry
     Harris-Foulkes estimate   =    -352.44823476 Ry
     estimated scf accuracy    <          1.2E-11 Ry

     The total energy is the sum of the following terms:

     one-electron contribution =    -100.04028532 Ry
     hartree contribution      =      62.14211974 Ry
     xc contribution           =     -50.87194778 Ry
     ewald contribution        =    -263.67847506 Ry
     smearing contrib. (-TS)   =       0.00035367 Ry

     convergence has been achieved in  36 iterations

     Forces acting on atoms (cartesian axes, Ry/au):

     atom    1 type  2   force =     0.00000000    0.00000000    0.00000000
     atom    2 type  1   force =     0.00000000   -0.00745375   -0.00745374
     atom    3 type  1   force =    -0.00000000    0.00745375    0.00745374

     Total force =     0.014907     Total SCF correction =     0.000006


     Computing stress (Cartesian axis) and pressure

          total   stress  (Ry/bohr**3)                   (kbar)     P= -207.57
  -0.00137025   0.00000000  -0.00000000       -201.57      0.00     -0.00
   0.00000000  -0.00143141   0.00004261          0.00   -210.57      6.27
  -0.00000000   0.00004261  -0.00143141         -0.00      6.27   -210.57


     BFGS Geometry Optimization

     number of scf cycles    =   1
     number of bfgs steps    =   0

     enthalpy new            =    -352.4482347569 Ry

     new trust radius        =       0.1501954411 bohr
     new conv_thr            =            1.0E-10 Ry

     new unit-cell volume =    395.06314 a.u.^3 (    58.54232 Ang^3 )
     density =      6.62827 g/cm^3

CELL_PARAMETERS (alat=  1.88972599)
  -0.000000002   6.784224181   3.397730286
   1.697807879   5.090977233   5.090977233
   1.697807949   1.693246970  -1.693246993

ATOMIC_POSITIONS (angstrom)
Ti       1.697807901   8.481216599   5.094722681
Nb       3.395615826  13.564640978   6.791653126
Nb       1.697807924   5.091039190   1.704545243


     NEW-OLD atomic charge density approx. for the potential
     extrapolated charge   33.79155, renormalised to   38.00000

     total cpu time spent up to now is     3694.5 secs

     Self-consistent Calculation

     iteration #  1     ecut=    50.00 Ry     beta= 0.60
     Davidson diagonalization with overlap
     c_bands:  1 eigenvalues not converged
     c_bands:  1 eigenvalues not converged
     c_bands:  1 eigenvalues not converged
     c_bands:  1 eigenvalues not converged
     c_bands:  1 eigenvalues not converged
     c_bands:  1 eigenvalues not converged
     c_bands:  1 eigenvalues not converged
     c_bands:  1 eigenvalues not converged
     c_bands:  1 eigenvalues not converged
     c_bands:  1 eigenvalues not converged
     c_bands:  1 eigenvalues not converged
     c_bands:  1 eigenvalues not converged
     c_bands:  1 eigenvalues not converged
     c_bands:  1 eigenvalues not converged
     c_bands:  1 eigenvalues not converged
     c_bands:  1 eigenvalues not converged
     c_bands:  1 eigenvalues not converged
     c_bands:  1 eigenvalues not converged
     c_bands:  1 eigenvalues not converged
     c_bands:  1 eigenvalues not converged
     c_bands:  1 eigenvalues not converged
     c_bands:  1 eigenvalues not converged
     c_bands:  1 eigenvalues not converged
     c_bands:  1 eigenvalues not converged
     c_bands:  1 eigenvalues not converged
     c_bands:  1 eigenvalues not converged
     c_bands:  1 eigenvalues not converged
     c_bands:  1 eigenvalues not converged
     c_bands:  1 eigenvalues not converged
     c_bands:  1 eigenvalues not converged
     c_bands:  1 eigenvalues not converged
     c_bands:  1 eigenvalues not converged
     c_bands:  1 eigenvalues not converged
     c_bands:  1 eigenvalues not converged
     c_bands:  1 eigenvalues not converged
     c_bands:  1 eigenvalues not converged
     c_bands:  1 eigenvalues not converged
     c_bands:  1 eigenvalues not converged
     c_bands:  1 eigenvalues not converged
     c_bands:  1 eigenvalues not converged
     c_bands:  1 eigenvalues not converged
     c_bands:  1 eigenvalues not converged
     c_bands:  1 eigenvalues not converged
     c_bands:  1 eigenvalues not converged
     c_bands:  1 eigenvalues not converged
     c_bands:  1 eigenvalues not converged
     c_bands:  1 eigenvalues not converged
     c_bands:  1 eigenvalues not converged
     c_bands:  1 eigenvalues not converged
     c_bands:  1 eigenvalues not converged
     c_bands:  1 eigenvalues not converged
     c_bands:  1 eigenvalues not converged
     c_bands:  1 eigenvalues not converged
     c_bands:  1 eigenvalues not converged
     c_bands:  1 eigenvalues not converged
     c_bands:  1 eigenvalues not converged
     c_bands:  1 eigenvalues not converged
     c_bands:  1 eigenvalues not converged
     c_bands:  1 eigenvalues not converged
     c_bands:  1 eigenvalues not converged
     c_bands:  1 eigenvalues not converged
     c_bands:  1 eigenvalues not converged
     c_bands:  1 eigenvalues not converged
     c_bands:  1 eigenvalues not converged
     c_bands:  1 eigenvalues not converged
     c_bands:  1 eigenvalues not converged
     c_bands:  1 eigenvalues not converged
     c_bands:  1 eigenvalues not converged
     c_bands:  1 eigenvalues not converged
     c_bands:  1 eigenvalues not converged
     c_bands:  1 eigenvalues not converged
     c_bands:  1 eigenvalues not converged
     c_bands:  1 eigenvalues not converged
     c_bands:  1 eigenvalues not converged
     c_bands:  1 eigenvalues not converged
     c_bands:  1 eigenvalues not converged
     c_bands:  1 eigenvalues not converged
     c_bands:  1 eigenvalues not converged
     ethr =  1.00E-06,  avg # of iterations = 14.0

     total cpu time spent up to now is     3872.1 secs

     total energy              =    -342.96566629 Ry
     Harris-Foulkes estimate   =    -359.83704004 Ry
     estimated scf accuracy    <      10.16298853 Ry

     iteration #  2     ecut=    50.00 Ry     beta= 0.60
     Davidson diagonalization with overlap
     ethr =  1.00E-02,  avg # of iterations =  6.5

     total cpu time spent up to now is     3966.7 secs

     total energy              =    -339.38057727 Ry
     Harris-Foulkes estimate   =    -368.02882261 Ry
     estimated scf accuracy    <     128.74851338 Ry

     iteration #  3     ecut=    50.00 Ry     beta= 0.60
     Davidson diagonalization with overlap
     ethr =  1.00E-02,  avg # of iterations =  4.6

     total cpu time spent up to now is     4045.0 secs

     total energy              =    -352.92050788 Ry
     Harris-Foulkes estimate   =    -354.35413088 Ry
     estimated scf accuracy    <       4.74839408 Ry

     iteration #  4     ecut=    50.00 Ry     beta= 0.60
     Davidson diagonalization with overlap
     ethr =  1.00E-02,  avg # of iterations =  2.0

     total cpu time spent up to now is     4092.3 secs

     total energy              =    -352.78534708 Ry
     Harris-Foulkes estimate   =    -353.35963001 Ry
     estimated scf accuracy    <       4.43593411 Ry

     iteration #  5     ecut=    50.00 Ry     beta= 0.60
     Davidson diagonalization with overlap
     ethr =  1.00E-02,  avg # of iterations =  1.0

     total cpu time spent up to now is     4133.1 secs

     total energy              =    -352.49782827 Ry
     Harris-Foulkes estimate   =    -352.85895736 Ry
     estimated scf accuracy    <       2.37602609 Ry

     iteration #  6     ecut=    50.00 Ry     beta= 0.60
     Davidson diagonalization with overlap
     ethr =  6.25E-03,  avg # of iterations =  1.8

     total cpu time spent up to now is     4176.7 secs

     total energy              =    -352.61300562 Ry
     Harris-Foulkes estimate   =    -352.56986152 Ry
     estimated scf accuracy    <       0.67921551 Ry

     iteration #  7     ecut=    50.00 Ry     beta= 0.60
     Davidson diagonalization with overlap
     ethr =  1.79E-03,  avg # of iterations =  1.9

     total cpu time spent up to now is     4221.0 secs

     total energy              =    -352.52832585 Ry
     Harris-Foulkes estimate   =    -352.63466339 Ry
     estimated scf accuracy    <       1.07417847 Ry

     iteration #  8     ecut=    50.00 Ry     beta= 0.60
     Davidson diagonalization with overlap
     ethr =  1.79E-03,  avg # of iterations =  1.2

     total cpu time spent up to now is     4262.6 secs

     total energy              =    -352.49729035 Ry
     Harris-Foulkes estimate   =    -352.54017109 Ry
     estimated scf accuracy    <       0.57510083 Ry

     iteration #  9     ecut=    50.00 Ry     beta= 0.60
     Davidson diagonalization with overlap
     ethr =  1.51E-03,  avg # of iterations =  2.4

     total cpu time spent up to now is     4309.0 secs

     total energy              =    -352.50778344 Ry
     Harris-Foulkes estimate   =    -352.51322361 Ry
     estimated scf accuracy    <       0.22630386 Ry

     iteration # 10     ecut=    50.00 Ry     beta= 0.60
     Davidson diagonalization with overlap
     ethr =  5.96E-04,  avg # of iterations =  3.3

     total cpu time spent up to now is     4359.5 secs

     total energy              =    -352.45385729 Ry
     Harris-Foulkes estimate   =    -352.51455645 Ry
     estimated scf accuracy    <       0.13558934 Ry

     iteration # 11     ecut=    50.00 Ry     beta= 0.60
     Davidson diagonalization with overlap
     ethr =  3.57E-04,  avg # of iterations =  5.2

     total cpu time spent up to now is     4432.5 secs

     total energy              =    -352.52543514 Ry
     Harris-Foulkes estimate   =    -352.53805213 Ry
     estimated scf accuracy    <       0.92574168 Ry

     iteration # 12     ecut=    50.00 Ry     beta= 0.60
     Davidson diagonalization with overlap
     ethr =  3.57E-04,  avg # of iterations =  1.0

     total cpu time spent up to now is     4468.8 secs

     total energy              =    -352.49906628 Ry
     Harris-Foulkes estimate   =    -352.52638324 Ry
     estimated scf accuracy    <       0.66741746 Ry

     iteration # 13     ecut=    50.00 Ry     beta= 0.60
     Davidson diagonalization with overlap
     ethr =  3.57E-04,  avg # of iterations =  1.1

     total cpu time spent up to now is     4505.4 secs

     total energy              =    -352.47045841 Ry
     Harris-Foulkes estimate   =    -352.50427679 Ry
     estimated scf accuracy    <       0.27340840 Ry

     iteration # 14     ecut=    50.00 Ry     beta= 0.60
     Davidson diagonalization with overlap
     ethr =  3.57E-04,  avg # of iterations =  4.5

     total cpu time spent up to now is     4557.1 secs

     total energy              =    -352.50126390 Ry
     Harris-Foulkes estimate   =    -352.50564530 Ry
     estimated scf accuracy    <       0.09458182 Ry

     iteration # 15     ecut=    50.00 Ry     beta= 0.60
     Davidson diagonalization with overlap
     ethr =  2.49E-04,  avg # of iterations =  1.0

     total cpu time spent up to now is     4593.5 secs

     total energy              =    -352.50263133 Ry
     Harris-Foulkes estimate   =    -352.50196513 Ry
     estimated scf accuracy    <       0.05399024 Ry

     iteration # 16     ecut=    50.00 Ry     beta= 0.60
     Davidson diagonalization with overlap
     ethr =  1.42E-04,  avg # of iterations =  1.0

     total cpu time spent up to now is     4630.0 secs

     total energy              =    -352.49856066 Ry
     Harris-Foulkes estimate   =    -352.50284080 Ry
     estimated scf accuracy    <       0.07137760 Ry

     iteration # 17     ecut=    50.00 Ry     beta= 0.60
     Davidson diagonalization with overlap
     ethr =  1.42E-04,  avg # of iterations =  1.0

     total cpu time spent up to now is     4666.5 secs

     total energy              =    -352.49833313 Ry
     Harris-Foulkes estimate   =    -352.49953152 Ry
     estimated scf accuracy    <       0.01991639 Ry

     iteration # 18     ecut=    50.00 Ry     beta= 0.60
     Davidson diagonalization with overlap
     ethr =  5.24E-05,  avg # of iterations =  3.7

     total cpu time spent up to now is     4711.6 secs

     total energy              =    -352.49934994 Ry
     Harris-Foulkes estimate   =    -352.49940409 Ry
     estimated scf accuracy    <       0.00099344 Ry

     iteration # 19     ecut=    50.00 Ry     beta= 0.60
     Davidson diagonalization with overlap
     ethr =  2.61E-06,  avg # of iterations =  6.5

     total cpu time spent up to now is     4773.3 secs

     total energy              =    -352.49951558 Ry
     Harris-Foulkes estimate   =    -352.49951646 Ry
     estimated scf accuracy    <       0.00001755 Ry

     iteration # 20     ecut=    50.00 Ry     beta= 0.60
     Davidson diagonalization with overlap
     ethr =  4.62E-08,  avg # of iterations =  3.8

     total cpu time spent up to now is     4823.7 secs

     total energy              =    -352.49952566 Ry
     Harris-Foulkes estimate   =    -352.49952530 Ry
     estimated scf accuracy    <       0.00018293 Ry

     iteration # 21     ecut=    50.00 Ry     beta= 0.60
     Davidson diagonalization with overlap
     ethr =  4.62E-08,  avg # of iterations =  1.0

     total cpu time spent up to now is     4860.1 secs

     total energy              =    -352.49952033 Ry
     Harris-Foulkes estimate   =    -352.49952622 Ry
     estimated scf accuracy    <       0.00019485 Ry

     iteration # 22     ecut=    50.00 Ry     beta= 0.60
     Davidson diagonalization with overlap
     ethr =  4.62E-08,  avg # of iterations =  3.1

     total cpu time spent up to now is     4905.4 secs

     total energy              =    -352.49951246 Ry
     Harris-Foulkes estimate   =    -352.49952327 Ry
     estimated scf accuracy    <       0.00008382 Ry

     iteration # 23     ecut=    50.00 Ry     beta= 0.60
     Davidson diagonalization with overlap
     ethr =  4.62E-08,  avg # of iterations =  3.0

     total cpu time spent up to now is     4967.1 secs

     total energy              =    -352.49951391 Ry
     Harris-Foulkes estimate   =    -352.49951563 Ry
     estimated scf accuracy    <       0.00000985 Ry

     iteration # 24     ecut=    50.00 Ry     beta= 0.60
     Davidson diagonalization with overlap
     ethr =  2.59E-08,  avg # of iterations =  3.2

     total cpu time spent up to now is     5042.6 secs

     total energy              =    -352.49951496 Ry
     Harris-Foulkes estimate   =    -352.49951570 Ry
     estimated scf accuracy    <       0.00000975 Ry

     iteration # 25     ecut=    50.00 Ry     beta= 0.60
     Davidson diagonalization with overlap
     ethr =  2.57E-08,  avg # of iterations =  1.0

     total cpu time spent up to now is     5096.4 secs

     total energy              =    -352.49951512 Ry
     Harris-Foulkes estimate   =    -352.49951523 Ry
     estimated scf accuracy    <       0.00000113 Ry

     iteration # 26     ecut=    50.00 Ry     beta= 0.60
     Davidson diagonalization with overlap
     ethr =  2.97E-09,  avg # of iterations =  3.5

     total cpu time spent up to now is     5176.2 secs

     total energy              =    -352.49951523 Ry
     Harris-Foulkes estimate   =    -352.49951526 Ry
     estimated scf accuracy    <       0.00000015 Ry

     iteration # 27     ecut=    50.00 Ry     beta= 0.60
     Davidson diagonalization with overlap
     ethr =  3.85E-10,  avg # of iterations =  2.6

     total cpu time spent up to now is     5248.9 secs

     total energy              =    -352.49951525 Ry
     Harris-Foulkes estimate   =    -352.49951525 Ry
     estimated scf accuracy    <       0.00000002 Ry

     iteration # 28     ecut=    50.00 Ry     beta= 0.60
     Davidson diagonalization with overlap
     ethr =  4.22E-11,  avg # of iterations =  3.3

     total cpu time spent up to now is     5357.5 secs

     total energy              =    -352.49951525 Ry
     Harris-Foulkes estimate   =    -352.49951525 Ry
     estimated scf accuracy    <       0.00000001 Ry

     iteration # 29     ecut=    50.00 Ry     beta= 0.60
     Davidson diagonalization with overlap
     ethr =  3.29E-11,  avg # of iterations =  1.0

     total cpu time spent up to now is     5445.8 secs

     total energy              =    -352.49951525 Ry
     Harris-Foulkes estimate   =    -352.49951525 Ry
     estimated scf accuracy    <          1.6E-09 Ry

     iteration # 30     ecut=    50.00 Ry     beta= 0.60
     Davidson diagonalization with overlap
     ethr =  4.30E-12,  avg # of iterations =  3.6

     total cpu time spent up to now is     5551.7 secs

     End of self-consistent calculation

     Number of k-points >= 100: set verbosity='high' to print the bands.

     the Fermi energy is    14.7110 ev

!    total energy              =    -352.49951525 Ry
     Harris-Foulkes estimate   =    -352.49951525 Ry
     estimated scf accuracy    <          3.5E-11 Ry

     The total energy is the sum of the following terms:

     one-electron contribution =     -86.04180367 Ry
     hartree contribution      =      57.97015013 Ry
     xc contribution           =     -51.14805947 Ry
     ewald contribution        =    -273.28013523 Ry
     smearing contrib. (-TS)   =       0.00033299 Ry

     convergence has been achieved in  30 iterations

     Forces acting on atoms (cartesian axes, Ry/au):

     atom    1 type  2   force =     0.00000000    0.00000000    0.00000000
     atom    2 type  1   force =    -0.00000002   -0.00248239   -0.00248240
     atom    3 type  1   force =     0.00000002    0.00248239    0.00248240

     Total force =     0.004965     Total SCF correction =     0.000031


     Computing stress (Cartesian axis) and pressure

          total   stress  (Ry/bohr**3)                   (kbar)     P= -117.67
  -0.00075593   0.00000000  -0.00000000       -111.20      0.00     -0.00
   0.00000000  -0.00082189   0.00003765          0.00   -120.90      5.54
  -0.00000000   0.00003765  -0.00082188         -0.00      5.54   -120.90


     number of scf cycles    =   2
     number of bfgs steps    =   1

     enthalpy old            =    -352.4482347569 Ry
     enthalpy new            =    -352.4995152519 Ry

     CASE: enthalpy_new < enthalpy_old

     new trust radius        =       0.1672993645 bohr
     new conv_thr            =            1.0E-10 Ry

     new unit-cell volume =    348.57295 a.u.^3 (    51.65318 Ang^3 )
     density =      7.51230 g/cm^3

CELL_PARAMETERS (alat=  1.88972599)
  -0.000000145   6.505890922   3.268587834
   1.632374908   4.887239237   4.887239587
   1.632376022   1.618651958  -1.618652447

ATOMIC_POSITIONS (angstrom)
Ti       1.632375183   8.134970759   4.897667465
Nb       3.264750771  13.005636157   6.531029013
Nb       1.632375616   4.882957319   1.645653471


     NEW-OLD atomic charge density approx. for the potential
     extrapolated charge   33.06594, renormalised to   38.00000

     total cpu time spent up to now is     5571.8 secs

     Self-consistent Calculation

     iteration #  1     ecut=    50.00 Ry     beta= 0.60
     Davidson diagonalization with overlap
     c_bands:  1 eigenvalues not converged
     c_bands:  1 eigenvalues not converged
     c_bands:  1 eigenvalues not converged
     c_bands:  1 eigenvalues not converged
     c_bands:  1 eigenvalues not converged
     c_bands:  1 eigenvalues not converged
     c_bands:  1 eigenvalues not converged
     c_bands:  1 eigenvalues not converged
     c_bands:  1 eigenvalues not converged
     c_bands:  1 eigenvalues not converged
     c_bands:  1 eigenvalues not converged
     c_bands:  1 eigenvalues not converged
     c_bands:  1 eigenvalues not converged
     c_bands:  2 eigenvalues not converged
     c_bands:  1 eigenvalues not converged
     c_bands:  1 eigenvalues not converged
     c_bands:  1 eigenvalues not converged
     c_bands:  1 eigenvalues not converged
     c_bands:  1 eigenvalues not converged
     c_bands:  1 eigenvalues not converged
     c_bands:  1 eigenvalues not converged
     c_bands:  1 eigenvalues not converged
     c_bands:  1 eigenvalues not converged
     c_bands:  1 eigenvalues not converged
     c_bands:  1 eigenvalues not converged
     c_bands:  1 eigenvalues not converged
     c_bands:  1 eigenvalues not converged
     c_bands:  1 eigenvalues not converged
     c_bands:  1 eigenvalues not converged
     c_bands:  1 eigenvalues not converged
     c_bands:  1 eigenvalues not converged
     c_bands:  1 eigenvalues not converged
     c_bands:  1 eigenvalues not converged
     c_bands:  1 eigenvalues not converged
     c_bands:  1 eigenvalues not converged
     c_bands:  1 eigenvalues not converged
     c_bands:  1 eigenvalues not converged
     c_bands:  1 eigenvalues not converged
     c_bands:  1 eigenvalues not converged
     c_bands:  1 eigenvalues not converged
     c_bands:  1 eigenvalues not converged
     c_bands:  1 eigenvalues not converged
     c_bands:  1 eigenvalues not converged
     c_bands:  1 eigenvalues not converged
     c_bands:  1 eigenvalues not converged
     c_bands:  1 eigenvalues not converged
     c_bands:  1 eigenvalues not converged
     c_bands:  1 eigenvalues not converged
     c_bands:  1 eigenvalues not converged
     c_bands:  1 eigenvalues not converged
     c_bands:  1 eigenvalues not converged
     c_bands:  1 eigenvalues not converged
     c_bands:  1 eigenvalues not converged
     c_bands:  1 eigenvalues not converged
     c_bands:  1 eigenvalues not converged
     c_bands:  1 eigenvalues not converged
     c_bands:  1 eigenvalues not converged
     c_bands:  1 eigenvalues not converged
     c_bands:  1 eigenvalues not converged
     c_bands:  1 eigenvalues not converged
     c_bands:  1 eigenvalues not converged
     c_bands:  1 eigenvalues not converged
     c_bands:  1 eigenvalues not converged
     c_bands:  2 eigenvalues not converged
     c_bands:  2 eigenvalues not converged
     c_bands:  2 eigenvalues not converged
     c_bands:  1 eigenvalues not converged
     c_bands:  1 eigenvalues not converged
     c_bands:  1 eigenvalues not converged
     c_bands:  1 eigenvalues not converged
     c_bands:  1 eigenvalues not converged
     c_bands:  1 eigenvalues not converged
     c_bands:  1 eigenvalues not converged
     c_bands:  1 eigenvalues not converged
     c_bands:  1 eigenvalues not converged
     c_bands:  1 eigenvalues not converged
     c_bands:  1 eigenvalues not converged
     c_bands:  1 eigenvalues not converged
     c_bands:  1 eigenvalues not converged
     c_bands:  1 eigenvalues not converged
     c_bands:  1 eigenvalues not converged
     c_bands:  1 eigenvalues not converged
     c_bands:  1 eigenvalues not converged
     c_bands:  1 eigenvalues not converged
     c_bands:  1 eigenvalues not converged
     c_bands:  1 eigenvalues not converged
     c_bands:  1 eigenvalues not converged
     c_bands:  1 eigenvalues not converged
     c_bands:  1 eigenvalues not converged
     c_bands:  1 eigenvalues not converged
     c_bands:  1 eigenvalues not converged
     c_bands:  1 eigenvalues not converged
     c_bands:  1 eigenvalues not converged
     c_bands:  1 eigenvalues not converged
     c_bands:  1 eigenvalues not converged
     c_bands:  1 eigenvalues not converged
     c_bands:  1 eigenvalues not converged
     ethr =  1.00E-06,  avg # of iterations = 13.8

     total cpu time spent up to now is     5937.2 secs

     total energy              =    -344.03601887 Ry
     Harris-Foulkes estimate   =    -359.73245582 Ry
     estimated scf accuracy    <       8.74869486 Ry

     iteration #  2     ecut=    50.00 Ry     beta= 0.60
     Davidson diagonalization with overlap
     ethr =  1.00E-02,  avg # of iterations =  5.8

     total cpu time spent up to now is     6134.2 secs

     total energy              =    -343.94220863 Ry
     Harris-Foulkes estimate   =    -363.98751465 Ry
     estimated scf accuracy    <      80.78215802 Ry

     iteration #  3     ecut=    50.00 Ry     beta= 0.60
     Davidson diagonalization with overlap
     ethr =  1.00E-02,  avg # of iterations =  4.2

     total cpu time spent up to now is     6304.3 secs

     total energy              =    -352.79206724 Ry
     Harris-Foulkes estimate   =    -354.17454854 Ry
     estimated scf accuracy    <       4.33969391 Ry

     iteration #  4     ecut=    50.00 Ry     beta= 0.60
     Davidson diagonalization with overlap
     ethr =  1.00E-02,  avg # of iterations =  2.0

     total cpu time spent up to now is     6389.8 secs

     total energy              =    -352.62352171 Ry
     Harris-Foulkes estimate   =    -353.29048375 Ry
     estimated scf accuracy    <       4.12441002 Ry

     iteration #  5     ecut=    50.00 Ry     beta= 0.60
     Davidson diagonalization with overlap
     ethr =  1.00E-02,  avg # of iterations =  1.0

     total cpu time spent up to now is     6479.1 secs

     total energy              =    -352.50138314 Ry
     Harris-Foulkes estimate   =    -352.72686367 Ry
     estimated scf accuracy    <       1.55232773 Ry

     iteration #  6     ecut=    50.00 Ry     beta= 0.60
     Davidson diagonalization with overlap
     ethr =  4.09E-03,  avg # of iterations =  2.6

     total cpu time spent up to now is     6576.1 secs

     total energy              =    -352.61837962 Ry
     Harris-Foulkes estimate   =    -352.58185327 Ry
     estimated scf accuracy    <       0.28072813 Ry

     iteration #  7     ecut=    50.00 Ry     beta= 0.60
     Davidson diagonalization with overlap
     ethr =  7.39E-04,  avg # of iterations =  2.6

     total cpu time spent up to now is     6661.7 secs

     total energy              =    -352.55633742 Ry
     Harris-Foulkes estimate   =    -352.65580379 Ry
     estimated scf accuracy    <       0.90638765 Ry

     iteration #  8     ecut=    50.00 Ry     beta= 0.60
     Davidson diagonalization with overlap
     ethr =  7.39E-04,  avg # of iterations =  1.3

     total cpu time spent up to now is     6754.2 secs

     total energy              =    -352.51068195 Ry
     Harris-Foulkes estimate   =    -352.56538167 Ry
     estimated scf accuracy    <       0.46287779 Ry

     iteration #  9     ecut=    50.00 Ry     beta= 0.60
     Davidson diagonalization with overlap
     ethr =  7.39E-04,  avg # of iterations =  2.6

     total cpu time spent up to now is     6873.2 secs

     total energy              =    -352.52413508 Ry
     Harris-Foulkes estimate   =    -352.52572808 Ry
     estimated scf accuracy    <       0.12031808 Ry

     iteration # 10     ecut=    50.00 Ry     beta= 0.60
     Davidson diagonalization with overlap
     ethr =  3.17E-04,  avg # of iterations =  2.4

     total cpu time spent up to now is     6973.5 secs

     total energy              =    -352.49636575 Ry
     Harris-Foulkes estimate   =    -352.52592291 Ry
     estimated scf accuracy    <       0.09084857 Ry

     iteration # 11     ecut=    50.00 Ry     beta= 0.60
     Davidson diagonalization with overlap
     ethr =  2.39E-04,  avg # of iterations =  5.4

     total cpu time spent up to now is     7124.0 secs

     total energy              =    -352.51227123 Ry
     Harris-Foulkes estimate   =    -352.51403697 Ry
     estimated scf accuracy    <       0.02971845 Ry

     iteration # 12     ecut=    50.00 Ry     beta= 0.60
     Davidson diagonalization with overlap
     ethr =  7.82E-05,  avg # of iterations =  1.8

     total cpu time spent up to now is     7216.8 secs

     total energy              =    -352.51286623 Ry
     Harris-Foulkes estimate   =    -352.51290158 Ry
     estimated scf accuracy    <       0.00689974 Ry

     iteration # 13     ecut=    50.00 Ry     beta= 0.60
     Davidson diagonalization with overlap
     ethr =  1.82E-05,  avg # of iterations =  2.7

     total cpu time spent up to now is     7329.1 secs

     total energy              =    -352.51267744 Ry
     Harris-Foulkes estimate   =    -352.51297706 Ry
     estimated scf accuracy    <       0.00665131 Ry

     iteration # 14     ecut=    50.00 Ry     beta= 0.60
     Davidson diagonalization with overlap
     ethr =  1.75E-05,  avg # of iterations =  1.2

     total cpu time spent up to now is     7421.3 secs

     total energy              =    -352.51280299 Ry
     Harris-Foulkes estimate   =    -352.51277845 Ry
     estimated scf accuracy    <       0.00191064 Ry

     iteration # 15     ecut=    50.00 Ry     beta= 0.60
     Davidson diagonalization with overlap
     ethr =  5.03E-06,  avg # of iterations =  2.9

     total cpu time spent up to now is     7538.8 secs

     total energy              =    -352.51283756 Ry
     Harris-Foulkes estimate   =    -352.51283617 Ry
     estimated scf accuracy    <       0.00179649 Ry

     iteration # 16     ecut=    50.00 Ry     beta= 0.60
     Davidson diagonalization with overlap
     ethr =  4.73E-06,  avg # of iterations =  1.0

     total cpu time spent up to now is     7638.9 secs

     total energy              =    -352.51269303 Ry
     Harris-Foulkes estimate   =    -352.51284496 Ry
     estimated scf accuracy    <       0.00170746 Ry

     iteration # 17     ecut=    50.00 Ry     beta= 0.60
     Davidson diagonalization with overlap
     ethr =  4.49E-06,  avg # of iterations =  2.9

     total cpu time spent up to now is     7738.5 secs

     total energy              =    -352.51276378 Ry
     Harris-Foulkes estimate   =    -352.51277365 Ry
     estimated scf accuracy    <       0.00004720 Ry

     iteration # 18     ecut=    50.00 Ry     beta= 0.60
     Davidson diagonalization with overlap
     ethr =  1.24E-07,  avg # of iterations =  4.8

     total cpu time spent up to now is     7864.5 secs

     total energy              =    -352.51279486 Ry
     Harris-Foulkes estimate   =    -352.51279500 Ry
     estimated scf accuracy    <       0.00024120 Ry

     iteration # 19     ecut=    50.00 Ry     beta= 0.60
     Davidson diagonalization with overlap
     ethr =  1.24E-07,  avg # of iterations =  1.0

     total cpu time spent up to now is     7921.9 secs

     total energy              =    -352.51279462 Ry
     Harris-Foulkes estimate   =    -352.51279505 Ry
     estimated scf accuracy    <       0.00025492 Ry

     iteration # 20     ecut=    50.00 Ry     beta= 0.60
     Davidson diagonalization with overlap
     ethr =  1.24E-07,  avg # of iterations =  1.0

     total cpu time spent up to now is     7990.1 secs

     total energy              =    -352.51279659 Ry
     Harris-Foulkes estimate   =    -352.51279471 Ry
     estimated scf accuracy    <       0.00025536 Ry

     iteration # 21     ecut=    50.00 Ry     beta= 0.60
     Davidson diagonalization with overlap
     ethr =  1.24E-07,  avg # of iterations =  1.0

     total cpu time spent up to now is     8061.3 secs

     total energy              =    -352.51279494 Ry
     Harris-Foulkes estimate   =    -352.51279669 Ry
     estimated scf accuracy    <       0.00027450 Ry

     iteration # 22     ecut=    50.00 Ry     beta= 0.60
     Davidson diagonalization with overlap
     ethr =  1.24E-07,  avg # of iterations =  1.0

     total cpu time spent up to now is     8128.1 secs

     total energy              =    -352.51277764 Ry
     Harris-Foulkes estimate   =    -352.51279498 Ry
     estimated scf accuracy    <       0.00025706 Ry

     iteration # 23     ecut=    50.00 Ry     beta= 0.60
     Davidson diagonalization with overlap
     ethr =  1.24E-07,  avg # of iterations =  2.0

     total cpu time spent up to now is     8176.7 secs

     total energy              =    -352.51277501 Ry
     Harris-Foulkes estimate   =    -352.51278173 Ry
     estimated scf accuracy    <       0.00006401 Ry

     iteration # 24     ecut=    50.00 Ry     beta= 0.60
     Davidson diagonalization with overlap
     ethr =  1.24E-07,  avg # of iterations =  2.9

     total cpu time spent up to now is     8218.8 secs

     total energy              =    -352.51278016 Ry
     Harris-Foulkes estimate   =    -352.51278056 Ry
     estimated scf accuracy    <       0.00000275 Ry

     iteration # 25     ecut=    50.00 Ry     beta= 0.60
     Davidson diagonalization with overlap
     ethr =  7.23E-09,  avg # of iterations =  3.0

     total cpu time spent up to now is     8262.1 secs

     total energy              =    -352.51278053 Ry
     Harris-Foulkes estimate   =    -352.51278054 Ry
     estimated scf accuracy    <       0.00000002 Ry

     iteration # 26     ecut=    50.00 Ry     beta= 0.60
     Davidson diagonalization with overlap
     ethr =  5.47E-11,  avg # of iterations =  5.0

     total cpu time spent up to now is     8326.0 secs

     total energy              =    -352.51278056 Ry
     Harris-Foulkes estimate   =    -352.51278056 Ry
     estimated scf accuracy    <          2.5E-09 Ry

     iteration # 27     ecut=    50.00 Ry     beta= 0.60
     Davidson diagonalization with overlap
     ethr =  6.62E-12,  avg # of iterations =  3.8

     total cpu time spent up to now is     8374.7 secs

     total energy              =    -352.51278056 Ry
     Harris-Foulkes estimate   =    -352.51278056 Ry
     estimated scf accuracy    <          2.5E-09 Ry

     iteration # 28     ecut=    50.00 Ry     beta= 0.60
     Davidson diagonalization with overlap
     ethr =  6.50E-12,  avg # of iterations =  3.2

     total cpu time spent up to now is     8416.8 secs

     total energy              =    -352.51278056 Ry
     Harris-Foulkes estimate   =    -352.51278056 Ry
     estimated scf accuracy    <          7.1E-10 Ry

     iteration # 29     ecut=    50.00 Ry     beta= 0.60
     Davidson diagonalization with overlap
     ethr =  1.88E-12,  avg # of iterations =  2.9

     total cpu time spent up to now is     8458.1 secs

     End of self-consistent calculation

     Number of k-points >= 100: set verbosity='high' to print the bands.

     the Fermi energy is    17.0473 ev

!    total energy              =    -352.51278056 Ry
     Harris-Foulkes estimate   =    -352.51278056 Ry
     estimated scf accuracy    <          1.5E-11 Ry

     The total energy is the sum of the following terms:

     one-electron contribution =     -69.35094445 Ry
     hartree contribution      =      53.24961302 Ry
     xc contribution           =     -51.51872009 Ry
     ewald contribution        =    -284.89267396 Ry
     smearing contrib. (-TS)   =      -0.00005509 Ry

     convergence has been achieved in  29 iterations

     Forces acting on atoms (cartesian axes, Ry/au):

     atom    1 type  2   force =     0.00000000    0.00000000    0.00000000
     atom    2 type  1   force =    -0.00000001    0.00672323    0.00672331
     atom    3 type  1   force =     0.00000001   -0.00672323   -0.00672331

     Total force =     0.013447     Total SCF correction =     0.000011


     Computing stress (Cartesian axis) and pressure

          total   stress  (Ry/bohr**3)                   (kbar)     P=   50.69
   0.00037307  -0.00000000   0.00000000         54.88     -0.00      0.00
  -0.00000000   0.00033032   0.00002152         -0.00     48.59      3.17
   0.00000000   0.00002152   0.00033032          0.00      3.17     48.59


     number of scf cycles    =   3
     number of bfgs steps    =   2

     enthalpy old            =    -352.4995152519 Ry
     enthalpy new            =    -352.5127805627 Ry

     CASE: enthalpy_new < enthalpy_old

     new trust radius        =       0.0450188963 bohr
     new conv_thr            =            1.0E-10 Ry

     new unit-cell volume =    361.27222 a.u.^3 (    53.53502 Ang^3 )
     density =      7.24823 g/cm^3

CELL_PARAMETERS (alat=  1.88972599)
  -0.000000112   6.583764166   3.307697781
   1.652055695   4.945730862   4.945731140
   1.652056445   1.638033479  -1.638033822

ATOMIC_POSITIONS (angstrom)
Ti       1.652055870   8.232341178   4.956274673
Nb       3.304112012  13.163894149   6.611760770
Nb       1.652056173   4.938821687   1.662754754


     NEW-OLD atomic charge density approx. for the potential
     extrapolated charge   39.30041, renormalised to   38.00000

     total cpu time spent up to now is     8465.4 secs

     Self-consistent Calculation

     iteration #  1     ecut=    50.00 Ry     beta= 0.60
     Davidson diagonalization with overlap
     c_bands:  1 eigenvalues not converged
     c_bands:  1 eigenvalues not converged
     c_bands:  1 eigenvalues not converged
     ethr =  1.00E-06,  avg # of iterations = 10.8

     total cpu time spent up to now is     8570.9 secs

     total energy              =    -352.34967392 Ry
     Harris-Foulkes estimate   =    -350.73658417 Ry
     estimated scf accuracy    <       0.13095348 Ry

     iteration #  2     ecut=    50.00 Ry     beta= 0.60
     Davidson diagonalization with overlap
     ethr =  3.45E-04,  avg # of iterations =  3.7

     total cpu time spent up to now is     8636.2 secs

     total energy              =    -352.45421628 Ry
     Harris-Foulkes estimate   =    -352.61369902 Ry
     estimated scf accuracy    <       0.49698843 Ry

     iteration #  3     ecut=    50.00 Ry     beta= 0.60
     Davidson diagonalization with overlap
     ethr =  3.45E-04,  avg # of iterations =  4.9

     total cpu time spent up to now is     8697.2 secs

     total energy              =    -352.43508576 Ry
     Harris-Foulkes estimate   =    -352.65145320 Ry
     estimated scf accuracy    <       3.04213905 Ry

     iteration #  4     ecut=    50.00 Ry     beta= 0.60
     Davidson diagonalization with overlap
     ethr =  3.45E-04,  avg # of iterations =  4.6

     total cpu time spent up to now is     8749.3 secs

     total energy              =    -352.52058072 Ry
     Harris-Foulkes estimate   =    -352.52711647 Ry
     estimated scf accuracy    <       0.06251683 Ry

     iteration #  5     ecut=    50.00 Ry     beta= 0.60
     Davidson diagonalization with overlap
     ethr =  1.65E-04,  avg # of iterations =  1.4

     total cpu time spent up to now is     8785.5 secs

     total energy              =    -352.51492109 Ry
     Harris-Foulkes estimate   =    -352.52145215 Ry
     estimated scf accuracy    <       0.04135839 Ry

     iteration #  6     ecut=    50.00 Ry     beta= 0.60
     Davidson diagonalization with overlap
     ethr =  1.09E-04,  avg # of iterations =  1.3

     total cpu time spent up to now is     8829.2 secs

     total energy              =    -352.51469830 Ry
     Harris-Foulkes estimate   =    -352.51604918 Ry
     estimated scf accuracy    <       0.01413441 Ry

     iteration #  7     ecut=    50.00 Ry     beta= 0.60
     Davidson diagonalization with overlap
     ethr =  3.72E-05,  avg # of iterations =  3.4

     total cpu time spent up to now is     8887.3 secs

     total energy              =    -352.51483969 Ry
     Harris-Foulkes estimate   =    -352.51525489 Ry
     estimated scf accuracy    <       0.00570058 Ry

     iteration #  8     ecut=    50.00 Ry     beta= 0.60
     Davidson diagonalization with overlap
     ethr =  1.50E-05,  avg # of iterations =  3.5

     total cpu time spent up to now is     8945.2 secs

     total energy              =    -352.51471638 Ry
     Harris-Foulkes estimate   =    -352.51501016 Ry
     estimated scf accuracy    <       0.00270692 Ry

     iteration #  9     ecut=    50.00 Ry     beta= 0.60
     Davidson diagonalization with overlap
     ethr =  7.12E-06,  avg # of iterations =  3.9

     total cpu time spent up to now is     9006.5 secs

     total energy              =    -352.51465552 Ry
     Harris-Foulkes estimate   =    -352.51483400 Ry
     estimated scf accuracy    <       0.00092919 Ry

     iteration # 10     ecut=    50.00 Ry     beta= 0.60
     Davidson diagonalization with overlap
     ethr =  2.45E-06,  avg # of iterations =  4.5

     total cpu time spent up to now is     9073.1 secs

     total energy              =    -352.51473056 Ry
     Harris-Foulkes estimate   =    -352.51473508 Ry
     estimated scf accuracy    <       0.00005224 Ry

     iteration # 11     ecut=    50.00 Ry     beta= 0.60
     Davidson diagonalization with overlap
     ethr =  1.37E-07,  avg # of iterations =  3.8

     total cpu time spent up to now is     9141.1 secs

     total energy              =    -352.51474083 Ry
     Harris-Foulkes estimate   =    -352.51474147 Ry
     estimated scf accuracy    <       0.00000519 Ry

     iteration # 12     ecut=    50.00 Ry     beta= 0.60
     Davidson diagonalization with overlap
     ethr =  1.37E-08,  avg # of iterations =  3.2

     total cpu time spent up to now is     9202.2 secs

     total energy              =    -352.51474146 Ry
     Harris-Foulkes estimate   =    -352.51474149 Ry
     estimated scf accuracy    <       0.00000087 Ry

     iteration # 13     ecut=    50.00 Ry     beta= 0.60
     Davidson diagonalization with overlap
     ethr =  2.29E-09,  avg # of iterations =  2.7

     total cpu time spent up to now is     9257.8 secs

     total energy              =    -352.51474146 Ry
     Harris-Foulkes estimate   =    -352.51474151 Ry
     estimated scf accuracy    <       0.00000031 Ry

     iteration # 14     ecut=    50.00 Ry     beta= 0.60
     Davidson diagonalization with overlap
     ethr =  8.23E-10,  avg # of iterations =  3.2

     total cpu time spent up to now is     9316.8 secs

     total energy              =    -352.51474149 Ry
     Harris-Foulkes estimate   =    -352.51474150 Ry
     estimated scf accuracy    <       0.00000001 Ry

     iteration # 15     ecut=    50.00 Ry     beta= 0.60
     Davidson diagonalization with overlap
     ethr =  2.88E-11,  avg # of iterations =  4.5

     total cpu time spent up to now is     9398.0 secs

     total energy              =    -352.51474150 Ry
     Harris-Foulkes estimate   =    -352.51474150 Ry
     estimated scf accuracy    <          9.2E-09 Ry

     iteration # 16     ecut=    50.00 Ry     beta= 0.60
     Davidson diagonalization with overlap
     ethr =  2.41E-11,  avg # of iterations =  1.0

     total cpu time spent up to now is     9446.8 secs

     total energy              =    -352.51474150 Ry
     Harris-Foulkes estimate   =    -352.51474150 Ry
     estimated scf accuracy    <          2.5E-09 Ry

     iteration # 17     ecut=    50.00 Ry     beta= 0.60
     Davidson diagonalization with overlap
     ethr =  6.65E-12,  avg # of iterations =  3.6

     total cpu time spent up to now is     9508.5 secs

     total energy              =    -352.51474150 Ry
     Harris-Foulkes estimate   =    -352.51474150 Ry
     estimated scf accuracy    <          7.4E-10 Ry

     iteration # 18     ecut=    50.00 Ry     beta= 0.60
     Davidson diagonalization with overlap
     ethr =  1.96E-12,  avg # of iterations =  2.7

     total cpu time spent up to now is     9564.2 secs

     total energy              =    -352.51474150 Ry
     Harris-Foulkes estimate   =    -352.51474150 Ry
     estimated scf accuracy    <          2.1E-10 Ry

     iteration # 19     ecut=    50.00 Ry     beta= 0.60
     Davidson diagonalization with overlap
     ethr =  5.61E-13,  avg # of iterations =  1.9

     total cpu time spent up to now is     9614.9 secs

     End of self-consistent calculation

     Number of k-points >= 100: set verbosity='high' to print the bands.

     the Fermi energy is    16.3505 ev

!    total energy              =    -352.51474150 Ry
     Harris-Foulkes estimate   =    -352.51474150 Ry
     estimated scf accuracy    <          8.3E-11 Ry

     The total energy is the sum of the following terms:

     one-electron contribution =     -74.12298022 Ry
     hartree contribution      =      54.56145397 Ry
     xc contribution           =     -51.40661286 Ry
     ewald contribution        =    -281.54667617 Ry
     smearing contrib. (-TS)   =       0.00007378 Ry

     convergence has been achieved in  19 iterations

     Forces acting on atoms (cartesian axes, Ry/au):

     atom    1 type  2   force =     0.00000000    0.00000000    0.00000000
     atom    2 type  1   force =    -0.00000002    0.00318487    0.00318492
     atom    3 type  1   force =     0.00000002   -0.00318487   -0.00318492

     Total force =     0.006370     Total SCF correction =     0.000035


     Computing stress (Cartesian axis) and pressure

          total   stress  (Ry/bohr**3)                   (kbar)     P=   -5.92
  -0.00000863  -0.00000000   0.00000000         -1.27     -0.00      0.00
  -0.00000000  -0.00005600   0.00002826         -0.00     -8.24      4.16
   0.00000000   0.00002826  -0.00005600          0.00      4.16     -8.24


     number of scf cycles    =   4
     number of bfgs steps    =   3

     enthalpy old            =    -352.5127805627 Ry
     enthalpy new            =    -352.5147414999 Ry

     CASE: enthalpy_new < enthalpy_old

     new trust radius        =       0.0064485738 bohr
     new conv_thr            =            1.0E-10 Ry

     new unit-cell volume =    359.98272 a.u.^3 (    53.34393 Ang^3 )
     density =      7.27420 g/cm^3

CELL_PARAMETERS (alat=  1.88972599)
  -0.000000118   6.575675724   3.306896282
   1.651312746   4.941285882   4.941286185
   1.651313481   1.634390008  -1.634390355

ATOMIC_POSITIONS (angstrom)
Ti       1.651312912   8.222771073   4.953991526
Nb       3.302626087  13.149154170   6.611594722
Nb       1.651313219   4.930777986   1.661997976


     NEW-OLD atomic charge density approx. for the potential
     extrapolated charge   37.86748, renormalised to   38.00000

     total cpu time spent up to now is     9623.8 secs

     Self-consistent Calculation

     iteration #  1     ecut=    50.00 Ry     beta= 0.60
     Davidson diagonalization with overlap
     ethr =  1.00E-06,  avg # of iterations =  4.1

     total cpu time spent up to now is     9722.5 secs

     total energy              =    -352.51271550 Ry
     Harris-Foulkes estimate   =    -352.69783323 Ry
     estimated scf accuracy    <       0.00171964 Ry

     iteration #  2     ecut=    50.00 Ry     beta= 0.60
     Davidson diagonalization with overlap
     ethr =  4.53E-06,  avg # of iterations =  6.8

     total cpu time spent up to now is     9832.9 secs

     total energy              =    -352.51230005 Ry
     Harris-Foulkes estimate   =    -352.51742235 Ry
     estimated scf accuracy    <       0.03512496 Ry

     iteration #  3     ecut=    50.00 Ry     beta= 0.60
     Davidson diagonalization with overlap
     ethr =  4.53E-06,  avg # of iterations =  5.2

     total cpu time spent up to now is     9921.4 secs

     total energy              =    -352.51396022 Ry
     Harris-Foulkes estimate   =    -352.51611874 Ry
     estimated scf accuracy    <       0.01576131 Ry

     iteration #  4     ecut=    50.00 Ry     beta= 0.60
     Davidson diagonalization with overlap
     ethr =  4.53E-06,  avg # of iterations =  4.4

     total cpu time spent up to now is     9995.6 secs

     total energy              =    -352.51488956 Ry
     Harris-Foulkes estimate   =    -352.51499737 Ry
     estimated scf accuracy    <       0.00106203 Ry

     iteration #  5     ecut=    50.00 Ry     beta= 0.60
     Davidson diagonalization with overlap
     ethr =  2.79E-06,  avg # of iterations =  1.0

     total cpu time spent up to now is    10044.0 secs

     total energy              =    -352.51480919 Ry
     Harris-Foulkes estimate   =    -352.51490663 Ry
     estimated scf accuracy    <       0.00053421 Ry

     iteration #  6     ecut=    50.00 Ry     beta= 0.60
     Davidson diagonalization with overlap
     ethr =  1.41E-06,  avg # of iterations =  1.9

     total cpu time spent up to now is    10095.5 secs

     total energy              =    -352.51481793 Ry
     Harris-Foulkes estimate   =    -352.51483397 Ry
     estimated scf accuracy    <       0.00009066 Ry

     iteration #  7     ecut=    50.00 Ry     beta= 0.60
     Davidson diagonalization with overlap
     ethr =  2.39E-07,  avg # of iterations =  3.7

     total cpu time spent up to now is    10160.0 secs

     total energy              =    -352.51483055 Ry
     Harris-Foulkes estimate   =    -352.51483096 Ry
     estimated scf accuracy    <       0.00000209 Ry

     iteration #  8     ecut=    50.00 Ry     beta= 0.60
     Davidson diagonalization with overlap
     ethr =  5.50E-09,  avg # of iterations =  4.1

     total cpu time spent up to now is    10232.7 secs

     total energy              =    -352.51483050 Ry
     Harris-Foulkes estimate   =    -352.51483128 Ry
     estimated scf accuracy    <       0.00000102 Ry

     iteration #  9     ecut=    50.00 Ry     beta= 0.60
     Davidson diagonalization with overlap
     ethr =  2.68E-09,  avg # of iterations =  4.1

     total cpu time spent up to now is    10318.7 secs

     total energy              =    -352.51483089 Ry
     Harris-Foulkes estimate   =    -352.51483120 Ry
     estimated scf accuracy    <       0.00000251 Ry

     iteration # 10     ecut=    50.00 Ry     beta= 0.60
     Davidson diagonalization with overlap
     ethr =  2.68E-09,  avg # of iterations =  2.0

     total cpu time spent up to now is    10369.9 secs

     total energy              =    -352.51483085 Ry
     Harris-Foulkes estimate   =    -352.51483095 Ry
     estimated scf accuracy    <       0.00000060 Ry

     iteration # 11     ecut=    50.00 Ry     beta= 0.60
     Davidson diagonalization with overlap
     ethr =  1.59E-09,  avg # of iterations =  2.9

     total cpu time spent up to now is    10413.0 secs

     total energy              =    -352.51483092 Ry
     Harris-Foulkes estimate   =    -352.51483092 Ry
     estimated scf accuracy    <          2.8E-09 Ry

     iteration # 12     ecut=    50.00 Ry     beta= 0.60
     Davidson diagonalization with overlap
     ethr =  7.38E-12,  avg # of iterations =  5.2

     total cpu time spent up to now is    10477.5 secs

     total energy              =    -352.51483093 Ry
     Harris-Foulkes estimate   =    -352.51483093 Ry
     estimated scf accuracy    <       0.00000005 Ry

     iteration # 13     ecut=    50.00 Ry     beta= 0.60
     Davidson diagonalization with overlap
     ethr =  7.38E-12,  avg # of iterations =  1.1

     total cpu time spent up to now is    10520.2 secs

     total energy              =    -352.51483092 Ry
     Harris-Foulkes estimate   =    -352.51483093 Ry
     estimated scf accuracy    <       0.00000003 Ry

     iteration # 14     ecut=    50.00 Ry     beta= 0.60
     Davidson diagonalization with overlap
     ethr =  7.38E-12,  avg # of iterations =  3.8

     total cpu time spent up to now is    10582.7 secs

     total energy              =    -352.51483092 Ry
     Harris-Foulkes estimate   =    -352.51483092 Ry
     estimated scf accuracy    <          2.1E-09 Ry

     iteration # 15     ecut=    50.00 Ry     beta= 0.60
     Davidson diagonalization with overlap
     ethr =  5.44E-12,  avg # of iterations =  1.0

     total cpu time spent up to now is    10651.1 secs

     total energy              =    -352.51483092 Ry
     Harris-Foulkes estimate   =    -352.51483092 Ry
     estimated scf accuracy    <          8.9E-10 Ry

     iteration # 16     ecut=    50.00 Ry     beta= 0.60
     Davidson diagonalization with overlap
     ethr =  2.34E-12,  avg # of iterations =  3.4

     total cpu time spent up to now is    10739.9 secs

     End of self-consistent calculation

     Number of k-points >= 100: set verbosity='high' to print the bands.

     the Fermi energy is    16.4191 ev

!    total energy              =    -352.51483092 Ry
     Harris-Foulkes estimate   =    -352.51483092 Ry
     estimated scf accuracy    <          1.6E-12 Ry

     The total energy is the sum of the following terms:

     one-electron contribution =     -73.61087395 Ry
     hartree contribution      =      54.41130723 Ry
     xc contribution           =     -51.41714326 Ry
     ewald contribution        =    -281.89816721 Ry
     smearing contrib. (-TS)   =       0.00004627 Ry

     convergence has been achieved in  16 iterations

     Forces acting on atoms (cartesian axes, Ry/au):

     atom    1 type  2   force =     0.00000000    0.00000000    0.00000000
     atom    2 type  1   force =    -0.00000001    0.00309905    0.00309909
     atom    3 type  1   force =     0.00000001   -0.00309905   -0.00309909

     Total force =     0.006198     Total SCF correction =     0.000001


     Computing stress (Cartesian axis) and pressure

          total   stress  (Ry/bohr**3)                   (kbar)     P=   -0.92
   0.00002093  -0.00000000   0.00000000          3.08     -0.00      0.00
  -0.00000000  -0.00001983   0.00002768         -0.00     -2.92      4.07
   0.00000000   0.00002768  -0.00001983          0.00      4.07     -2.92


     number of scf cycles    =   5
     number of bfgs steps    =   4

     enthalpy old            =    -352.5147414999 Ry
     enthalpy new            =    -352.5148309239 Ry

     CASE: enthalpy_new < enthalpy_old

     new trust radius        =       0.0070952244 bohr
     new conv_thr            =            1.0E-10 Ry

     new unit-cell volume =    359.10974 a.u.^3 (    53.21457 Ang^3 )
     density =      7.29188 g/cm^3

CELL_PARAMETERS (alat=  1.88972599)
  -0.000000116   6.570304760   3.310111922
   1.652007177   4.940208211   4.940208542
   1.652007848   1.630096697  -1.630097031

ATOMIC_POSITIONS (angstrom)
Ti       1.652007323   8.217040880   4.956847965
Nb       3.304014877  13.141067028   6.620680889
Nb       1.652007617   4.923111428   1.662918011


     NEW-OLD atomic charge density approx. for the potential
     extrapolated charge   37.91007, renormalised to   38.00000

     total cpu time spent up to now is    10750.8 secs

     Self-consistent Calculation

     iteration #  1     ecut=    50.00 Ry     beta= 0.60
     Davidson diagonalization with overlap
     ethr =  1.00E-06,  avg # of iterations =  4.1

     total cpu time spent up to now is    10901.0 secs

     total energy              =    -352.51370501 Ry
     Harris-Foulkes estimate   =    -352.63847606 Ry
     estimated scf accuracy    <       0.00107987 Ry

     iteration #  2     ecut=    50.00 Ry     beta= 0.60
     Davidson diagonalization with overlap
     c_bands:  1 eigenvalues not converged
     c_bands:  1 eigenvalues not converged
     c_bands:  1 eigenvalues not converged
     c_bands:  1 eigenvalues not converged
     c_bands:  1 eigenvalues not converged
     c_bands:  1 eigenvalues not converged
     c_bands:  2 eigenvalues not converged
     c_bands:  1 eigenvalues not converged
     c_bands:  1 eigenvalues not converged
     c_bands:  1 eigenvalues not converged
     c_bands:  1 eigenvalues not converged
     c_bands:  1 eigenvalues not converged
     c_bands:  1 eigenvalues not converged
     c_bands:  1 eigenvalues not converged
     c_bands:  1 eigenvalues not converged
     c_bands:  1 eigenvalues not converged
     c_bands:  1 eigenvalues not converged
     c_bands:  1 eigenvalues not converged
     c_bands:  1 eigenvalues not converged
     c_bands:  1 eigenvalues not converged
     c_bands:  1 eigenvalues not converged
     c_bands:  1 eigenvalues not converged
     c_bands:  1 eigenvalues not converged
     c_bands:  1 eigenvalues not converged
     c_bands:  1 eigenvalues not converged
     c_bands:  2 eigenvalues not converged
     c_bands:  2 eigenvalues not converged
     c_bands:  2 eigenvalues not converged
     ethr =  2.84E-06,  avg # of iterations =  7.7

     total cpu time spent up to now is    11125.6 secs

     total energy              =    -352.51188295 Ry
     Harris-Foulkes estimate   =    -352.51847057 Ry
     estimated scf accuracy    <       0.06539275 Ry

     iteration #  3     ecut=    50.00 Ry     beta= 0.60
     Davidson diagonalization with overlap
     ethr =  2.84E-06,  avg # of iterations =  5.5

     total cpu time spent up to now is    11335.8 secs

     total energy              =    -352.51483640 Ry
     Harris-Foulkes estimate   =    -352.51529519 Ry
     estimated scf accuracy    <       0.00165918 Ry

     iteration #  4     ecut=    50.00 Ry     beta= 0.60
     Davidson diagonalization with overlap
     ethr =  2.84E-06,  avg # of iterations =  2.0

     total cpu time spent up to now is    11408.1 secs

     total energy              =    -352.51494330 Ry
     Harris-Foulkes estimate   =    -352.51499377 Ry
     estimated scf accuracy    <       0.00044083 Ry

     iteration #  5     ecut=    50.00 Ry     beta= 0.60
     Davidson diagonalization with overlap
     ethr =  1.16E-06,  avg # of iterations =  1.0

     total cpu time spent up to now is    11484.7 secs

     total energy              =    -352.51489586 Ry
     Harris-Foulkes estimate   =    -352.51495376 Ry
     estimated scf accuracy    <       0.00021922 Ry

     iteration #  6     ecut=    50.00 Ry     beta= 0.60
     Davidson diagonalization with overlap
     ethr =  5.77E-07,  avg # of iterations =  2.9

     total cpu time spent up to now is    11603.5 secs

     total energy              =    -352.51492215 Ry
     Harris-Foulkes estimate   =    -352.51492246 Ry
     estimated scf accuracy    <       0.00000335 Ry

     iteration #  7     ecut=    50.00 Ry     beta= 0.60
     Davidson diagonalization with overlap
     ethr =  8.83E-09,  avg # of iterations =  4.2

     total cpu time spent up to now is    11787.2 secs

     total energy              =    -352.51492388 Ry
     Harris-Foulkes estimate   =    -352.51492473 Ry
     estimated scf accuracy    <       0.00000477 Ry

     iteration #  8     ecut=    50.00 Ry     beta= 0.60
     Davidson diagonalization with overlap
     ethr =  8.83E-09,  avg # of iterations =  1.3

     total cpu time spent up to now is    11877.8 secs

     total energy              =    -352.51492386 Ry
     Harris-Foulkes estimate   =    -352.51492402 Ry
     estimated scf accuracy    <       0.00000122 Ry

     iteration #  9     ecut=    50.00 Ry     beta= 0.60
     Davidson diagonalization with overlap
     ethr =  3.22E-09,  avg # of iterations =  2.8

     total cpu time spent up to now is    12002.1 secs

     total energy              =    -352.51492390 Ry
     Harris-Foulkes estimate   =    -352.51492397 Ry
     estimated scf accuracy    <       0.00000026 Ry

     iteration # 10     ecut=    50.00 Ry     beta= 0.60
     Davidson diagonalization with overlap
     ethr =  6.74E-10,  avg # of iterations =  3.9

     total cpu time spent up to now is    12117.7 secs

     total energy              =    -352.51492394 Ry
     Harris-Foulkes estimate   =    -352.51492394 Ry
     estimated scf accuracy    <       0.00000002 Ry

     iteration # 11     ecut=    50.00 Ry     beta= 0.60
     Davidson diagonalization with overlap
     ethr =  5.33E-11,  avg # of iterations =  3.6

     total cpu time spent up to now is    12269.4 secs

     total energy              =    -352.51492394 Ry
     Harris-Foulkes estimate   =    -352.51492394 Ry
     estimated scf accuracy    <       0.00000004 Ry

     iteration # 12     ecut=    50.00 Ry     beta= 0.60
     Davidson diagonalization with overlap
     ethr =  5.33E-11,  avg # of iterations =  1.0

     total cpu time spent up to now is    12356.5 secs

     total energy              =    -352.51492394 Ry
     Harris-Foulkes estimate   =    -352.51492394 Ry
     estimated scf accuracy    <          7.7E-09 Ry

     iteration # 13     ecut=    50.00 Ry     beta= 0.60
     Davidson diagonalization with overlap
     ethr =  2.04E-11,  avg # of iterations =  3.1

     total cpu time spent up to now is    12477.3 secs

     total energy              =    -352.51492394 Ry
     Harris-Foulkes estimate   =    -352.51492394 Ry
     estimated scf accuracy    <          2.1E-10 Ry

     iteration # 14     ecut=    50.00 Ry     beta= 0.60
     Davidson diagonalization with overlap
     ethr =  5.42E-13,  avg # of iterations =  3.8

     total cpu time spent up to now is    12650.0 secs

     total energy              =    -352.51492394 Ry
     Harris-Foulkes estimate   =    -352.51492394 Ry
     estimated scf accuracy    <          2.2E-10 Ry

     iteration # 15     ecut=    50.00 Ry     beta= 0.60
     Davidson diagonalization with overlap
     ethr =  5.42E-13,  avg # of iterations =  3.1

     total cpu time spent up to now is    12767.8 secs

     End of self-consistent calculation

     Number of k-points >= 100: set verbosity='high' to print the bands.

     the Fermi energy is    16.4661 ev

!    total energy              =    -352.51492394 Ry
     Harris-Foulkes estimate   =    -352.51492394 Ry
     estimated scf accuracy    <          2.1E-11 Ry

     The total energy is the sum of the following terms:

     one-electron contribution =     -73.23204293 Ry
     hartree contribution      =      54.29393942 Ry
     xc contribution           =     -51.42392624 Ry
     ewald contribution        =    -282.15290676 Ry
     smearing contrib. (-TS)   =       0.00001257 Ry

     convergence has been achieved in  15 iterations

     Forces acting on atoms (cartesian axes, Ry/au):

[...]
               a(1) = (   0.000000   6.600082   3.381086 )  
               a(2) = (   1.656779   4.990584   4.990584 )  
               a(3) = (   1.656779   1.609498  -1.609498 )  

     reciprocal axes: (cart. coord. in units 2 pi/alat)
               b(1) = ( -0.301790  0.205422 -0.105234 )  
               b(2) = (  0.301790 -0.105234  0.205422 )  
               b(3) = (  0.301790  0.105234 -0.205422 )  


     PseudoPot. # 1 for Nb read from file:
     /home/u16/abhishekkt/fp/krishna/calculations/pseudopotentials/Nb.pbe-nsp-van.UPF
     MD5 check sum: c44c1a86bf31974e1e832c2ec821fd5f
     Pseudo is Ultrasoft + core correction, Zval = 13.0
     Generated by new atomic code, or converted to UPF format
     Using radial grid of  887 points,  6 beta functions with: 
                l(1) =   0
                l(2) =   0
                l(3) =   1
                l(4) =   1
                l(5) =   2
                l(6) =   2
     Q(r) pseudized with  6 coefficients,  rinner =    1.000   1.000   1.000
                                                       1.000   1.000

     PseudoPot. # 2 for Ti read from file:
     /home/u16/abhishekkt/fp/krishna/calculations/pseudopotentials/Ti.pbe-sp-van_ak.UPF
     MD5 check sum: 84d3ec9e8983e94242673103c800fb48
     Pseudo is Ultrasoft, Zval = 12.0
     Generated by new atomic code, or converted to UPF format
     Using radial grid of  851 points,  6 beta functions with: 
                l(1) =   0
                l(2) =   0
                l(3) =   1
                l(4) =   1
                l(5) =   2
                l(6) =   2
     Q(r) pseudized with  8 coefficients,  rinner =    1.000   1.000   1.000
                                                       1.000   1.000

     atomic species   valence    mass     pseudopotential
        Nb            13.00    92.90638     Nb( 1.00)
        Ti            12.00    47.86700     Ti( 1.00)

      2 Sym. Ops., with inversion, found ( 1 have fractional translation)



   Cartesian axes

     site n.     atom                  positions (alat units)
         1           Ti  tau(   1) = (   1.6567798   8.2636102   5.0446143  )
         2           Nb  tau(   2) = (   3.3135599  13.2150695   6.7770769  )
         3           Nb  tau(   3) = (   1.6567793   4.9216492   1.7026531  )

     number of k points=  1376  Marzari-Vanderbilt smearing, width (Ry)=  0.0200

     Number of k-points >= 100: set verbosity='high' to print them.

     Dense  grid:    67815 G-vectors     FFT dimensions: ( 100, 100,  40)

     Smooth grid:    17133 G-vectors     FFT dimensions: (  64,  64,  24)

     Estimated max dynamical RAM per process >     111.01 MB

     Estimated total dynamical RAM >       1.30 GB

     Initial potential from superposition of free atoms

     starting charge   36.99449, renormalised to   38.00000
     Starting wfcs are   36 randomized atomic wfcs

     total cpu time spent up to now is    21987.2 secs

     Self-consistent Calculation

     iteration #  1     ecut=    50.00 Ry     beta= 0.60
     Davidson diagonalization with overlap
     c_bands:  1 eigenvalues not converged
     c_bands:  1 eigenvalues not converged
     c_bands:  1 eigenvalues not converged
     c_bands:  1 eigenvalues not converged
     c_bands:  1 eigenvalues not converged
     c_bands:  1 eigenvalues not converged
     c_bands:  1 eigenvalues not converged
     c_bands:  1 eigenvalues not converged
     c_bands:  1 eigenvalues not converged
     c_bands:  1 eigenvalues not converged
     c_bands:  1 eigenvalues not converged
     c_bands:  2 eigenvalues not converged
     c_bands:  2 eigenvalues not converged
     c_bands:  2 eigenvalues not converged
     c_bands:  1 eigenvalues not converged
     c_bands:  1 eigenvalues not converged
     c_bands:  1 eigenvalues not converged
     c_bands:  1 eigenvalues not converged
     c_bands:  1 eigenvalues not converged
     c_bands:  1 eigenvalues not converged
     c_bands:  1 eigenvalues not converged
     c_bands:  1 eigenvalues not converged
     c_bands:  1 eigenvalues not converged
     c_bands:  1 eigenvalues not converged
     c_bands:  1 eigenvalues not converged
     c_bands:  1 eigenvalues not converged
     c_bands:  1 eigenvalues not converged
     c_bands:  1 eigenvalues not converged
     c_bands:  1 eigenvalues not converged
     c_bands:  1 eigenvalues not converged
     c_bands:  1 eigenvalues not converged
     c_bands:  1 eigenvalues not converged
     c_bands:  1 eigenvalues not converged
     c_bands:  1 eigenvalues not converged
     c_bands:  1 eigenvalues not converged
     c_bands:  1 eigenvalues not converged
     ethr =  1.00E-06,  avg # of iterations = 13.7

     total cpu time spent up to now is    22094.2 secs

     total energy              =    -310.93182022 Ry
     Harris-Foulkes estimate   =    -356.48428047 Ry
     estimated scf accuracy    <      55.96407790 Ry

     iteration #  2     ecut=    50.00 Ry     beta= 0.60
     Davidson diagonalization with overlap
     ethr =  1.00E-02,  avg # of iterations =  8.6

     total cpu time spent up to now is    22173.8 secs

     total energy              =    -341.12805895 Ry
     Harris-Foulkes estimate   =    -441.09097362 Ry
     estimated scf accuracy    <     322.83996388 Ry

     iteration #  3     ecut=    50.00 Ry     beta= 0.60
     Davidson diagonalization with overlap
     ethr =  1.00E-02,  avg # of iterations =  7.3

     total cpu time spent up to now is    22239.5 secs

     total energy              =    -354.28632961 Ry
     Harris-Foulkes estimate   =    -358.34176882 Ry
     estimated scf accuracy    <      24.47563747 Ry

     iteration #  4     ecut=    50.00 Ry     beta= 0.60
     Davidson diagonalization with overlap
     ethr =  1.00E-02,  avg # of iterations =  2.4

     total cpu time spent up to now is    22268.4 secs

     total energy              =    -353.69869914 Ry
     Harris-Foulkes estimate   =    -354.81903591 Ry
     estimated scf accuracy    <      12.97797750 Ry

     iteration #  5     ecut=    50.00 Ry     beta= 0.60
     Davidson diagonalization with overlap
     ethr =  1.00E-02,  avg # of iterations =  1.1

     total cpu time spent up to now is    22292.8 secs

     total energy              =    -352.51276748 Ry
     Harris-Foulkes estimate   =    -353.76914012 Ry
     estimated scf accuracy    <       9.66022336 Ry

     iteration #  6     ecut=    50.00 Ry     beta= 0.60
     Davidson diagonalization with overlap
     ethr =  1.00E-02,  avg # of iterations =  3.1

     total cpu time spent up to now is    22323.3 secs

     total energy              =    -352.70604713 Ry
     Harris-Foulkes estimate   =    -352.76911999 Ry
     estimated scf accuracy    <       3.00847232 Ry

     iteration #  7     ecut=    50.00 Ry     beta= 0.60
     Davidson diagonalization with overlap
     ethr =  7.92E-03,  avg # of iterations =  1.2

     total cpu time spent up to now is    22348.1 secs

     total energy              =    -352.31911495 Ry
     Harris-Foulkes estimate   =    -352.73536374 Ry
     estimated scf accuracy    <       2.24268302 Ry

     iteration #  8     ecut=    50.00 Ry     beta= 0.60
     Davidson diagonalization with overlap
     ethr =  5.90E-03,  avg # of iterations =  3.5

     total cpu time spent up to now is    22380.5 secs

     total energy              =    -352.53897388 Ry
     Harris-Foulkes estimate   =    -352.54624015 Ry
     estimated scf accuracy    <       0.32119228 Ry

     iteration #  9     ecut=    50.00 Ry     beta= 0.60
     Davidson diagonalization with overlap
     ethr =  8.45E-04,  avg # of iterations =  5.0

     total cpu time spent up to now is    22422.6 secs

     total energy              =    -352.57031567 Ry
     Harris-Foulkes estimate   =    -352.61088714 Ry
     estimated scf accuracy    <       1.64666616 Ry

     iteration # 10     ecut=    50.00 Ry     beta= 0.60
     Davidson diagonalization with overlap
     ethr =  8.45E-04,  avg # of iterations =  1.1

     total cpu time spent up to now is    22446.6 secs

     total energy              =    -352.46504156 Ry
     Harris-Foulkes estimate   =    -352.57433791 Ry
     estimated scf accuracy    <       1.09900795 Ry

     iteration # 11     ecut=    50.00 Ry     beta= 0.60
     Davidson diagonalization with overlap
     ethr =  8.45E-04,  avg # of iterations =  2.4

     total cpu time spent up to now is    22474.8 secs

     total energy              =    -352.51777084 Ry
     Harris-Foulkes estimate   =    -352.51663511 Ry
     estimated scf accuracy    <       0.01331629 Ry

     iteration # 12     ecut=    50.00 Ry     beta= 0.60
     Davidson diagonalization with overlap
     ethr =  3.50E-05,  avg # of iterations =  5.8

     total cpu time spent up to now is    22525.5 secs

     total energy              =    -352.52431878 Ry
     Harris-Foulkes estimate   =    -352.53382555 Ry
     estimated scf accuracy    <       0.31399613 Ry

     iteration # 13     ecut=    50.00 Ry     beta= 0.60
     Davidson diagonalization with overlap
     ethr =  3.50E-05,  avg # of iterations =  1.2

     total cpu time spent up to now is    22549.7 secs

     total energy              =    -352.49718517 Ry
     Harris-Foulkes estimate   =    -352.52503698 Ry
     estimated scf accuracy    <       0.21755435 Ry

     iteration # 14     ecut=    50.00 Ry     beta= 0.60
     Davidson diagonalization with overlap
     ethr =  3.50E-05,  avg # of iterations =  5.2

     total cpu time spent up to now is    22596.0 secs

     total energy              =    -352.51430154 Ry
     Harris-Foulkes estimate   =    -352.51647686 Ry
     estimated scf accuracy    <       0.02772507 Ry

     iteration # 15     ecut=    50.00 Ry     beta= 0.60
     Davidson diagonalization with overlap
     ethr =  3.50E-05,  avg # of iterations =  1.0

     total cpu time spent up to now is    22619.0 secs

     total energy              =    -352.51660918 Ry
     Harris-Foulkes estimate   =    -352.51483826 Ry
     estimated scf accuracy    <       0.00520848 Ry

     iteration # 16     ecut=    50.00 Ry     beta= 0.60
     Davidson diagonalization with overlap
     ethr =  1.37E-05,  avg # of iterations =  2.5

     total cpu time spent up to now is    22645.1 secs

     total energy              =    -352.51085819 Ry
     Harris-Foulkes estimate   =    -352.51833190 Ry
     estimated scf accuracy    <       0.06748429 Ry

     iteration # 17     ecut=    50.00 Ry     beta= 0.60
     Davidson diagonalization with overlap
     ethr =  1.37E-05,  avg # of iterations =  5.1

     total cpu time spent up to now is    22704.3 secs

     total energy              =    -352.51481848 Ry
     Harris-Foulkes estimate   =    -352.51493684 Ry
     estimated scf accuracy    <       0.00110705 Ry

     iteration # 18     ecut=    50.00 Ry     beta= 0.60
     Davidson diagonalization with overlap
     ethr =  2.91E-06,  avg # of iterations =  1.9

     total cpu time spent up to now is    22743.6 secs

     total energy              =    -352.51482317 Ry
     Harris-Foulkes estimate   =    -352.51484802 Ry
     estimated scf accuracy    <       0.00041614 Ry

     iteration # 19     ecut=    50.00 Ry     beta= 0.60
     Davidson diagonalization with overlap
     ethr =  1.10E-06,  avg # of iterations =  2.8

     total cpu time spent up to now is    22794.0 secs

     total energy              =    -352.51483962 Ry
     Harris-Foulkes estimate   =    -352.51484099 Ry
     estimated scf accuracy    <       0.00009430 Ry

     iteration # 20     ecut=    50.00 Ry     beta= 0.60
     Davidson diagonalization with overlap
     ethr =  2.48E-07,  avg # of iterations =  2.8

     total cpu time spent up to now is    22851.6 secs

     total energy              =    -352.51484206 Ry
     Harris-Foulkes estimate   =    -352.51484430 Ry
     estimated scf accuracy    <       0.00004461 Ry

     iteration # 21     ecut=    50.00 Ry     beta= 0.60
     Davidson diagonalization with overlap
     ethr =  1.17E-07,  avg # of iterations =  1.9

     total cpu time spent up to now is    22983.4 secs

     total energy              =    -352.51484305 Ry
     Harris-Foulkes estimate   =    -352.51484349 Ry
     estimated scf accuracy    <       0.00000828 Ry

     iteration # 22     ecut=    50.00 Ry     beta= 0.60
     Davidson diagonalization with overlap
     ethr =  2.18E-08,  avg # of iterations =  3.4

     total cpu time spent up to now is    23098.0 secs

     total energy              =    -352.51484359 Ry
     Harris-Foulkes estimate   =    -352.51484363 Ry
     estimated scf accuracy    <       0.00000101 Ry

     iteration # 23     ecut=    50.00 Ry     beta= 0.60
     Davidson diagonalization with overlap
     ethr =  2.67E-09,  avg # of iterations =  3.0

     total cpu time spent up to now is    23230.1 secs

     total energy              =    -352.51484359 Ry
     Harris-Foulkes estimate   =    -352.51484366 Ry
     estimated scf accuracy    <       0.00000087 Ry

     iteration # 24     ecut=    50.00 Ry     beta= 0.60
     Davidson diagonalization with overlap
     ethr =  2.29E-09,  avg # of iterations =  1.0

     total cpu time spent up to now is    23298.1 secs

     total energy              =    -352.51484358 Ry
     Harris-Foulkes estimate   =    -352.51484361 Ry
     estimated scf accuracy    <       0.00000036 Ry

     iteration # 25     ecut=    50.00 Ry     beta= 0.60
     Davidson diagonalization with overlap
     ethr =  9.36E-10,  avg # of iterations =  2.5

     total cpu time spent up to now is    23358.1 secs

     total energy              =    -352.51484360 Ry
     Harris-Foulkes estimate   =    -352.51484360 Ry
     estimated scf accuracy    <       0.00000006 Ry

     iteration # 26     ecut=    50.00 Ry     beta= 0.60
     Davidson diagonalization with overlap
     ethr =  1.52E-10,  avg # of iterations =  3.1

     total cpu time spent up to now is    23419.7 secs

     total energy              =    -352.51484360 Ry
     Harris-Foulkes estimate   =    -352.51484360 Ry
     estimated scf accuracy    <       0.00000003 Ry

     iteration # 27     ecut=    50.00 Ry     beta= 0.60
     Davidson diagonalization with overlap
     ethr =  7.07E-11,  avg # of iterations =  2.0

     total cpu time spent up to now is    23475.8 secs

     total energy              =    -352.51484360 Ry
     Harris-Foulkes estimate   =    -352.51484360 Ry
     estimated scf accuracy    <       0.00000001 Ry

     iteration # 28     ecut=    50.00 Ry     beta= 0.60
     Davidson diagonalization with overlap
     ethr =  3.05E-11,  avg # of iterations =  3.0

     total cpu time spent up to now is    23563.3 secs

     total energy              =    -352.51484360 Ry
     Harris-Foulkes estimate   =    -352.51484360 Ry
     estimated scf accuracy    <          9.1E-10 Ry

     iteration # 29     ecut=    50.00 Ry     beta= 0.60
     Davidson diagonalization with overlap
     ethr =  2.39E-12,  avg # of iterations =  3.9

     total cpu time spent up to now is    23685.7 secs

     total energy              =    -352.51484360 Ry
     Harris-Foulkes estimate   =    -352.51484360 Ry
     estimated scf accuracy    <          2.4E-11 Ry

     iteration # 30     ecut=    50.00 Ry     beta= 0.60
     Davidson diagonalization with overlap
     ethr =  1.00E-13,  avg # of iterations =  3.5

     total cpu time spent up to now is    23775.0 secs

     total energy              =    -352.51484360 Ry
     Harris-Foulkes estimate   =    -352.51484360 Ry
     estimated scf accuracy    <          1.9E-12 Ry

     iteration # 31     ecut=    50.00 Ry     beta= 0.60
     Davidson diagonalization with overlap
     ethr =  1.00E-13,  avg # of iterations =  1.0

     total cpu time spent up to now is    23826.9 secs

     End of self-consistent calculation

     Number of k-points >= 100: set verbosity='high' to print the bands.

     the Fermi energy is    16.4630 ev

!    total energy              =    -352.51484360 Ry
     Harris-Foulkes estimate   =    -352.51484360 Ry
     estimated scf accuracy    <          3.9E-13 Ry

     The total energy is the sum of the following terms:

     one-electron contribution =     -73.14274626 Ry
     hartree contribution      =      54.23949511 Ry
     xc contribution           =     -51.42179030 Ry
     ewald contribution        =    -282.18976522 Ry
     smearing contrib. (-TS)   =      -0.00003692 Ry

     convergence has been achieved in  31 iterations

     Forces acting on atoms (cartesian axes, Ry/au):

     atom    1 type  2   force =     0.00000000    0.00000000    0.00000000
     atom    2 type  1   force =    -0.00000016   -0.00000662   -0.00000641
     atom    3 type  1   force =     0.00000016    0.00000662    0.00000641

     Total force =     0.000013     Total SCF correction =     0.000002
     SCF correction compared to forces is large: reduce conv_thr to get better values


     Computing stress (Cartesian axis) and pressure

          total   stress  (Ry/bohr**3)                   (kbar)     P=   -1.17
  -0.00000813  -0.00000001   0.00000000         -1.20     -0.00      0.00
  -0.00000001  -0.00000790   0.00000000         -0.00     -1.16      0.00
   0.00000000   0.00000000  -0.00000791          0.00      0.00     -1.16

 
     init_run     :     63.82s CPU     65.76s WALL (       2 calls)
     electrons    :  21654.68s CPU  23581.74s WALL (      21 calls)
     update_pot   :      7.76s CPU      8.04s WALL (      19 calls)
     forces       :     53.07s CPU     56.54s WALL (      21 calls)
     stress       :    114.04s CPU    120.64s WALL (      21 calls)

     Called by init_run:
     wfcinit      :     62.59s CPU     64.19s WALL (       2 calls)
     potinit      :      0.30s CPU      0.35s WALL (       2 calls)
     hinit0       :      0.65s CPU      0.85s WALL (       2 calls)

     Called by electrons:
     c_bands      :  18687.87s CPU  20355.29s WALL (     344 calls)
     sum_band     :   2933.14s CPU   3164.61s WALL (     344 calls)
     v_of_rho     :     11.29s CPU     11.73s WALL (     357 calls)
     newd         :     21.40s CPU     22.05s WALL (     357 calls)
     mix_rho      :      1.31s CPU      1.42s WALL (     344 calls)

     Called by c_bands:
     init_us_2    :    150.43s CPU    157.46s WALL ( 1007232 calls)
     cegterg      :  18026.51s CPU  19572.70s WALL (  473344 calls)

     Called by sum_band:
     sum_band:bec :      8.31s CPU      8.42s WALL (  473344 calls)
     addusdens    :     22.10s CPU     22.54s WALL (     344 calls)

     Called by *egterg:
     h_psi        :  13801.47s CPU  15028.06s WALL ( 1965175 calls)
     s_psi        :    129.47s CPU    134.39s WALL ( 1965175 calls)
     g_psi        :     33.00s CPU     34.77s WALL ( 1489079 calls)
     cdiaghg      :   2775.18s CPU   2955.20s WALL ( 1925271 calls)

     Called by h_psi:
     h_psi:pot    :  13777.39s CPU  15001.31s WALL ( 1965175 calls)
     h_psi:calbec :    538.06s CPU    601.86s WALL ( 1965175 calls)
     vloc_psi     :  13084.67s CPU  14233.51s WALL ( 1965175 calls)
     add_vuspsi   :    146.42s CPU    154.17s WALL ( 1965175 calls)

     General routines
     calbec       :    752.46s CPU    837.62s WALL ( 2582999 calls)
     fft          :      7.82s CPU      8.37s WALL (    5172 calls)
     ffts         :      0.23s CPU      0.25s WALL (     701 calls)
     fftw         :  14311.82s CPU  15568.41s WALL (67509186 calls)
     interpolate  :      0.62s CPU      0.63s WALL (     357 calls)
 
     Parallel routines
     fft_scatt_xy :   1636.07s CPU   1742.77s WALL (67515059 calls)
     fft_scatt_yz :   6133.42s CPU   6934.76s WALL (67515059 calls)
 
     PWSCF        :     6h 4m CPU        4h 6m WALL

      37h
 
   This run was terminated on:  14:11:35  21Jan2020            

=------------------------------------------------------------------------------=
   JOB DONE.
=------------------------------------------------------------------------------=
