
     Program PWSCF v.6.3MaX starts on 27Feb2020 at 20:19:48 

     This program is part of the open-source Quantum ESPRESSO suite
     for quantum simulation of materials; please cite
         "P. Giannozzi et al., J. Phys.:Condens. Matter 21 395502 (2009);
         "P. Giannozzi et al., J. Phys.:Condens. Matter 29 465901 (2017);
          URL http://www.quantum-espresso.org", 
     in publications or presentations arising from this work. More details at
     http://www.quantum-espresso.org/quote

     Parallel version (MPI), running on     4 processors

     MPI processes distributed on     1 nodes
     R & G space division:  proc/nbgrp/npool/nimage =       4
     Waiting for input...
     Reading input from standard input

     Current dimensions of program PWSCF are:
     Max number of different atomic species (ntypx) = 10
     Max number of k-points (npk) =  40000
     Max angular momentum in pseudopotentials (lmaxx) =  3
     Message from routine iosys:
     minimal I/O required, wf_collect reset to FALSE

     Subspace diagonalization in iterative solution of the eigenvalue problem:
     a serial algorithm will be used

 
     Parallelization info
     --------------------
     sticks:   dense  smooth     PW     G-vecs:    dense   smooth      PW
     Min        1204     482    153                41531    10522    1901
     Max        1205     483    154                41532    10523    1902
     Sum        4817    1929    615               166125    42089    7605
 


     bravais-lattice index     =            0
     lattice parameter (alat)  =       1.8897  a.u.
     unit-cell volume          =     880.0102 (a.u.)^3
     number of atoms/cell      =            6
     number of atomic types    =            2
     number of electrons       =        77.00
     number of Kohn-Sham states=           47
     kinetic-energy cutoff     =      50.0000  Ry
     charge density cutoff     =     500.0000  Ry
     convergence threshold     =      1.0E-10
     mixing beta               =       0.6000
     number of iterations used =            8  plain     mixing
     Exchange-correlation      = SLA PW PBE PBE ( 1  4  3  4 0 0)
     nstep                     =           50


     celldm(1)=   1.889726  celldm(2)=   0.000000  celldm(3)=   0.000000
     celldm(4)=   0.000000  celldm(5)=   0.000000  celldm(6)=   0.000000

     crystal axes: (cart. coord. in units of alat)
               a(1) = (   5.274095   1.758031   1.758031 )  
               a(2) = (   1.758031  -5.274095   1.758031 )  
               a(3) = (  -1.758031   1.758031  -5.274095 )  

     reciprocal axes: (cart. coord. in units 2 pi/alat)
               b(1) = (  0.189606  0.047402 -0.047402 )  
               b(2) = (  0.094803 -0.189606 -0.094803 )  
               b(3) = (  0.094803 -0.047402 -0.237008 )  


     PseudoPot. # 1 for Nb read from file:
     ./Nb.pbe-nsp-van.UPF
     MD5 check sum: 0a22fc7fb0ba19a08ca5db297a5d2854
     Pseudo is Ultrasoft + core correction, Zval = 13.0
     Generated by new atomic code, or converted to UPF format
     Using radial grid of  887 points,  6 beta functions with: 
                l(1) =   0
                l(2) =   0
                l(3) =   1
                l(4) =   1
                l(5) =   2
                l(6) =   2
     Q(r) pseudized with  6 coefficients,  rinner =    1.000   1.000   1.000
                                                       1.000   1.000

     PseudoPot. # 2 for Ti read from file:
     ./Ti.pbe-sp-van_ak.UPF
     MD5 check sum: f98fea3e8887528921fefa5636a534ca
     Pseudo is Ultrasoft, Zval = 12.0
     Generated by new atomic code, or converted to UPF format
     Using radial grid of  851 points,  6 beta functions with: 
                l(1) =   0
                l(2) =   0
                l(3) =   1
                l(4) =   1
                l(5) =   2
                l(6) =   2
     Q(r) pseudized with  8 coefficients,  rinner =    1.000   1.000   1.000
                                                       1.000   1.000

     atomic species   valence    mass     pseudopotential
        Nb            13.00    92.90638     Nb( 1.00)
        Ti            12.00    47.86700     Ti( 1.00)

      4 Sym. Ops., with inversion, found



   Cartesian axes

     site n.     atom                  positions (alat units)
         1           Ti  tau(   1) = (   3.5160633  -3.5160633   0.0000000  )
         2           Nb  tau(   2) = (   3.5160633   0.0000000   0.0000000  )
         3           Nb  tau(   3) = (   1.7580316  -1.7580316  -1.7580316  )
         4           Nb  tau(   4) = (   5.2740949  -1.7580316   1.7580316  )
         5           Nb  tau(   5) = (   5.2740949  -1.7580316  -1.7580316  )
         6           Nb  tau(   6) = (   0.0000000   0.0000000  -3.5160633  )

     number of k points=   476  Marzari-Vanderbilt smearing, width (Ry)=  0.0200

     Number of k-points >= 100: set verbosity='high' to print them.

     Dense  grid:   166125 G-vectors     FFT dimensions: (  80,  80,  80)

     Smooth grid:    42089 G-vectors     FFT dimensions: (  50,  50,  50)

     Estimated max dynamical RAM per process >     608.93 MB

     Estimated total dynamical RAM >       2.38 GB

     Initial potential from superposition of free atoms

     starting charge   75.98629, renormalised to   77.00000
     Starting wfcs are   75 randomized atomic wfcs

     total cpu time spent up to now is       46.1 secs

     Self-consistent Calculation

     iteration #  1     ecut=    50.00 Ry     beta= 0.60
     Davidson diagonalization with overlap
     ethr =  1.00E-02,  avg # of iterations =  2.0

     total cpu time spent up to now is      130.0 secs

     total energy              =    -686.16011552 Ry
     Harris-Foulkes estimate   =    -708.44626939 Ry
     estimated scf accuracy    <      27.94190653 Ry

     iteration #  2     ecut=    50.00 Ry     beta= 0.60
     Davidson diagonalization with overlap
     ethr =  1.00E-02,  avg # of iterations =  6.0

     total cpu time spent up to now is      293.6 secs

     total energy              =    -695.43103148 Ry
     Harris-Foulkes estimate   =    -734.60532417 Ry
     estimated scf accuracy    <     115.74323930 Ry

     iteration #  3     ecut=    50.00 Ry     beta= 0.60
     Davidson diagonalization with overlap
     ethr =  1.00E-02,  avg # of iterations =  5.0

     total cpu time spent up to now is      440.7 secs

     total energy              =    -706.52613466 Ry
     Harris-Foulkes estimate   =    -710.66494758 Ry
     estimated scf accuracy    <      29.68090038 Ry

     iteration #  4     ecut=    50.00 Ry     beta= 0.60
     Davidson diagonalization with overlap
     ethr =  1.00E-02,  avg # of iterations =  2.0

     total cpu time spent up to now is      528.6 secs

     total energy              =    -707.78740638 Ry
     Harris-Foulkes estimate   =    -708.14623036 Ry
     estimated scf accuracy    <       5.90695088 Ry

     iteration #  5     ecut=    50.00 Ry     beta= 0.60
     Davidson diagonalization with overlap
     ethr =  7.67E-03,  avg # of iterations =  1.0

     total cpu time spent up to now is      601.3 secs

     total energy              =    -707.20862725 Ry
     Harris-Foulkes estimate   =    -707.83241020 Ry
     estimated scf accuracy    <       5.21034308 Ry

     iteration #  6     ecut=    50.00 Ry     beta= 0.60
     Davidson diagonalization with overlap
     ethr =  6.77E-03,  avg # of iterations =  1.0

     total cpu time spent up to now is      672.1 secs

     total energy              =    -705.99742907 Ry
     Harris-Foulkes estimate   =    -707.26810514 Ry
     estimated scf accuracy    <       4.22981401 Ry

     iteration #  7     ecut=    50.00 Ry     beta= 0.60
     Davidson diagonalization with overlap
     ethr =  5.49E-03,  avg # of iterations =  2.6

     total cpu time spent up to now is      749.3 secs

     total energy              =    -706.23872310 Ry
     Harris-Foulkes estimate   =    -706.21951089 Ry
     estimated scf accuracy    <       0.95687220 Ry

     iteration #  8     ecut=    50.00 Ry     beta= 0.60
     Davidson diagonalization with overlap
     ethr =  1.24E-03,  avg # of iterations =  3.7

     total cpu time spent up to now is      832.3 secs

     total energy              =    -706.24945068 Ry
     Harris-Foulkes estimate   =    -706.27915931 Ry
     estimated scf accuracy    <       0.82033376 Ry

     iteration #  9     ecut=    50.00 Ry     beta= 0.60
     Davidson diagonalization with overlap
     ethr =  1.07E-03,  avg # of iterations =  1.5

     total cpu time spent up to now is      904.6 secs

     total energy              =    -706.21711250 Ry
     Harris-Foulkes estimate   =    -706.25786613 Ry
     estimated scf accuracy    <       0.63724103 Ry

     iteration # 10     ecut=    50.00 Ry     beta= 0.60
     Davidson diagonalization with overlap
     ethr =  8.28E-04,  avg # of iterations =  1.5

     total cpu time spent up to now is      976.2 secs

     total energy              =    -706.13827871 Ry
     Harris-Foulkes estimate   =    -706.22747846 Ry
     estimated scf accuracy    <       0.37199970 Ry

     iteration # 11     ecut=    50.00 Ry     beta= 0.60
     Davidson diagonalization with overlap
     ethr =  4.83E-04,  avg # of iterations =  5.6

     negative rho (up, down):  7.508E-04 0.000E+00

     total cpu time spent up to now is     1095.7 secs

     total energy              =    -705.76585411 Ry
     Harris-Foulkes estimate   =    -706.26024997 Ry
     estimated scf accuracy    <       1.15408428 Ry

     iteration # 12     ecut=    50.00 Ry     beta= 0.60
     Davidson diagonalization with overlap
     ethr =  4.83E-04,  avg # of iterations =  6.6

     negative rho (up, down):  1.835E-01 0.000E+00

     total cpu time spent up to now is     1250.3 secs

     total energy              =    -710.81027053 Ry
     Harris-Foulkes estimate   =    -708.63839409 Ry
     estimated scf accuracy    <       7.39083317 Ry

     iteration # 13     ecut=    50.00 Ry     beta= 0.60
     Davidson diagonalization with overlap
     ethr =  4.83E-04,  avg # of iterations =  3.2

     total cpu time spent up to now is     1349.5 secs

     total energy              =    -705.84299404 Ry
     Harris-Foulkes estimate   =    -710.92751672 Ry
     estimated scf accuracy    <      12.83608997 Ry

     iteration # 14     ecut=    50.00 Ry     beta= 0.60
     Davidson diagonalization with overlap
     ethr =  4.83E-04,  avg # of iterations =  4.8

     total cpu time spent up to now is     1479.3 secs

     total energy              =    -704.91339843 Ry
     Harris-Foulkes estimate   =    -706.52513263 Ry
     estimated scf accuracy    <       2.43402244 Ry

     iteration # 15     ecut=    50.00 Ry     beta= 0.60
     Davidson diagonalization with overlap
     ethr =  4.83E-04,  avg # of iterations =  5.0

     total cpu time spent up to now is     1615.8 secs

     total energy              =    -712.93196143 Ry
     Harris-Foulkes estimate   =    -713.82330040 Ry
     estimated scf accuracy    <      55.98657009 Ry

     iteration # 16     ecut=    50.00 Ry     beta= 0.60
     Davidson diagonalization with overlap
     ethr =  4.83E-04,  avg # of iterations =  1.6

     total cpu time spent up to now is     1687.8 secs

     total energy              =    -700.73221022 Ry
     Harris-Foulkes estimate   =    -712.94390739 Ry
     estimated scf accuracy    <      52.92253896 Ry

     iteration # 17     ecut=    50.00 Ry     beta= 0.60
     Davidson diagonalization with overlap
     ethr =  4.83E-04,  avg # of iterations =  8.3

     total cpu time spent up to now is     1848.7 secs

     total energy              =    -706.46292396 Ry
     Harris-Foulkes estimate   =    -706.60578196 Ry
     estimated scf accuracy    <       2.15548589 Ry

     iteration # 18     ecut=    50.00 Ry     beta= 0.60
     Davidson diagonalization with overlap
     ethr =  4.83E-04,  avg # of iterations =  1.0

     total cpu time spent up to now is     1938.0 secs

     total energy              =    -706.68695691 Ry
     Harris-Foulkes estimate   =    -706.47049547 Ry
     estimated scf accuracy    <       1.79063264 Ry

     iteration # 19     ecut=    50.00 Ry     beta= 0.60
     Davidson diagonalization with overlap
     ethr =  4.83E-04,  avg # of iterations =  1.0

     total cpu time spent up to now is     2014.9 secs

     total energy              =    -706.77170919 Ry
     Harris-Foulkes estimate   =    -706.69488855 Ry
     estimated scf accuracy    <       2.27212894 Ry

     iteration # 20     ecut=    50.00 Ry     beta= 0.60
     Davidson diagonalization with overlap
     ethr =  4.83E-04,  avg # of iterations =  1.1

     total cpu time spent up to now is     2109.3 secs

     total energy              =    -706.67790294 Ry
     Harris-Foulkes estimate   =    -706.77503235 Ry
     estimated scf accuracy    <       2.54064238 Ry

     iteration # 21     ecut=    50.00 Ry     beta= 0.60
     Davidson diagonalization with overlap
     ethr =  4.83E-04,  avg # of iterations =  1.0

     total cpu time spent up to now is     2179.2 secs

     total energy              =    -706.48030949 Ry
     Harris-Foulkes estimate   =    -706.67948825 Ry
     estimated scf accuracy    <       2.33543468 Ry

     iteration # 22     ecut=    50.00 Ry     beta= 0.60
     Davidson diagonalization with overlap
     ethr =  4.83E-04,  avg # of iterations =  1.1

     total cpu time spent up to now is     2249.5 secs

     total energy              =    -706.17938708 Ry
     Harris-Foulkes estimate   =    -706.48668578 Ry
     estimated scf accuracy    <       1.84537792 Ry

     iteration # 23     ecut=    50.00 Ry     beta= 0.60
     Davidson diagonalization with overlap
     ethr =  4.83E-04,  avg # of iterations =  4.1

     total cpu time spent up to now is     2347.3 secs

     total energy              =    -706.22209371 Ry
     Harris-Foulkes estimate   =    -706.24718955 Ry
     estimated scf accuracy    <       0.43616640 Ry

     iteration # 24     ecut=    50.00 Ry     beta= 0.60
     Davidson diagonalization with overlap
     ethr =  4.83E-04,  avg # of iterations =  1.0

     total cpu time spent up to now is     2417.2 secs

     total energy              =    -706.10672977 Ry
     Harris-Foulkes estimate   =    -706.22469733 Ry
     estimated scf accuracy    <       0.29837340 Ry

     iteration # 25     ecut=    50.00 Ry     beta= 0.60
     Davidson diagonalization with overlap
     ethr =  3.87E-04,  avg # of iterations =  4.3

     total cpu time spent up to now is     2571.1 secs

     total energy              =    -706.21626936 Ry
     Harris-Foulkes estimate   =    -706.40503930 Ry
     estimated scf accuracy    <       4.65777484 Ry

     iteration # 26     ecut=    50.00 Ry     beta= 0.60
     Davidson diagonalization with overlap
     ethr =  3.87E-04,  avg # of iterations =  2.1

     total cpu time spent up to now is     2651.8 secs

     total energy              =    -706.18035703 Ry
     Harris-Foulkes estimate   =    -706.26847957 Ry
     estimated scf accuracy    <       1.36881886 Ry

     iteration # 27     ecut=    50.00 Ry     beta= 0.60
     Davidson diagonalization with overlap
     ethr =  3.87E-04,  avg # of iterations =  4.6

     total cpu time spent up to now is     2742.4 secs

     total energy              =    -706.26595837 Ry
     Harris-Foulkes estimate   =    -706.23907699 Ry
     estimated scf accuracy    <       0.21384973 Ry

     iteration # 28     ecut=    50.00 Ry     beta= 0.60
     Davidson diagonalization with overlap
     ethr =  2.78E-04,  avg # of iterations =  6.9

     total cpu time spent up to now is     2840.5 secs

     total energy              =    -706.15371204 Ry
     Harris-Foulkes estimate   =    -706.30449456 Ry
     estimated scf accuracy    <       0.51219177 Ry

     iteration # 29     ecut=    50.00 Ry     beta= 0.60
     Davidson diagonalization with overlap
     ethr =  2.78E-04,  avg # of iterations =  4.9

     total cpu time spent up to now is     2965.4 secs

     total energy              =    -706.23598017 Ry
     Harris-Foulkes estimate   =    -706.32933358 Ry
     estimated scf accuracy    <       2.11739918 Ry

     iteration # 30     ecut=    50.00 Ry     beta= 0.60
     Davidson diagonalization with overlap
     ethr =  2.78E-04,  avg # of iterations =  2.0

     total cpu time spent up to now is     3057.5 secs

     total energy              =    -706.03452888 Ry
     Harris-Foulkes estimate   =    -706.25617975 Ry
     estimated scf accuracy    <       1.75265044 Ry

     iteration # 31     ecut=    50.00 Ry     beta= 0.60
     Davidson diagonalization with overlap
     ethr =  2.78E-04,  avg # of iterations =  5.7

     total cpu time spent up to now is     3170.5 secs

     total energy              =    -706.18070127 Ry
     Harris-Foulkes estimate   =    -706.19436157 Ry
     estimated scf accuracy    <       0.16650860 Ry

     iteration # 32     ecut=    50.00 Ry     beta= 0.60
     Davidson diagonalization with overlap
     ethr =  2.16E-04,  avg # of iterations =  1.0

     total cpu time spent up to now is     3267.2 secs

     total energy              =    -706.17240933 Ry
     Harris-Foulkes estimate   =    -706.18278963 Ry
     estimated scf accuracy    <       0.07197010 Ry

     iteration # 33     ecut=    50.00 Ry     beta= 0.60
     Davidson diagonalization with overlap
     ethr =  9.35E-05,  avg # of iterations =  4.9

     total cpu time spent up to now is     3360.9 secs

     total energy              =    -706.17998138 Ry
     Harris-Foulkes estimate   =    -706.18025508 Ry
     estimated scf accuracy    <       0.00581299 Ry

     iteration # 34     ecut=    50.00 Ry     beta= 0.60
     Davidson diagonalization with overlap
     c_bands:  1 eigenvalues not converged
     c_bands:  1 eigenvalues not converged
     ethr =  7.55E-06,  avg # of iterations =  4.7

     total cpu time spent up to now is     3447.5 secs

     total energy              =    -706.18010589 Ry
     Harris-Foulkes estimate   =    -706.18018269 Ry
     estimated scf accuracy    <       0.00323835 Ry

     iteration # 35     ecut=    50.00 Ry     beta= 0.60
     Davidson diagonalization with overlap
     ethr =  4.21E-06,  avg # of iterations =  1.0

     total cpu time spent up to now is     3517.6 secs

     total energy              =    -706.17992715 Ry
     Harris-Foulkes estimate   =    -706.18014310 Ry
     estimated scf accuracy    <       0.00217310 Ry

     iteration # 36     ecut=    50.00 Ry     beta= 0.60
     Davidson diagonalization with overlap
     ethr =  2.82E-06,  avg # of iterations =  1.3

     total cpu time spent up to now is     3598.4 secs

     total energy              =    -706.18000291 Ry
     Harris-Foulkes estimate   =    -706.18000753 Ry
     estimated scf accuracy    <       0.00017879 Ry

     iteration # 37     ecut=    50.00 Ry     beta= 0.60
     Davidson diagonalization with overlap
     ethr =  2.32E-07,  avg # of iterations =  5.5

     total cpu time spent up to now is     3715.4 secs

     total energy              =    -706.18003599 Ry
     Harris-Foulkes estimate   =    -706.18003663 Ry
     estimated scf accuracy    <       0.00001195 Ry

     iteration # 38     ecut=    50.00 Ry     beta= 0.60
     Davidson diagonalization with overlap
     ethr =  1.55E-08,  avg # of iterations =  2.2

     total cpu time spent up to now is     3816.6 secs

     total energy              =    -706.18003506 Ry
     Harris-Foulkes estimate   =    -706.18003652 Ry
     estimated scf accuracy    <       0.00000906 Ry

     iteration # 39     ecut=    50.00 Ry     beta= 0.60
     Davidson diagonalization with overlap
     ethr =  1.18E-08,  avg # of iterations =  3.3

     total cpu time spent up to now is     3920.5 secs

     total energy              =    -706.18003585 Ry
     Harris-Foulkes estimate   =    -706.18003604 Ry
     estimated scf accuracy    <       0.00000082 Ry

     iteration # 40     ecut=    50.00 Ry     beta= 0.60
     Davidson diagonalization with overlap
     ethr =  1.06E-09,  avg # of iterations =  3.6

     total cpu time spent up to now is     4009.9 secs

     total energy              =    -706.18003601 Ry
     Harris-Foulkes estimate   =    -706.18003604 Ry
     estimated scf accuracy    <       0.00000016 Ry

     iteration # 41     ecut=    50.00 Ry     beta= 0.60
     Davidson diagonalization with overlap
     ethr =  2.06E-10,  avg # of iterations =  3.1

     total cpu time spent up to now is     4093.1 secs

     total energy              =    -706.18003602 Ry
     Harris-Foulkes estimate   =    -706.18003604 Ry
     estimated scf accuracy    <       0.00000018 Ry

     iteration # 42     ecut=    50.00 Ry     beta= 0.60
     Davidson diagonalization with overlap
     ethr =  2.06E-10,  avg # of iterations =  1.0

     total cpu time spent up to now is     4163.0 secs

     total energy              =    -706.18003603 Ry
     Harris-Foulkes estimate   =    -706.18003603 Ry
     estimated scf accuracy    <       0.00000006 Ry

     iteration # 43     ecut=    50.00 Ry     beta= 0.60
     Davidson diagonalization with overlap
     ethr =  7.18E-11,  avg # of iterations =  1.7

     total cpu time spent up to now is     4235.0 secs

     total energy              =    -706.18003603 Ry
     Harris-Foulkes estimate   =    -706.18003603 Ry
     estimated scf accuracy    <       0.00000002 Ry

     iteration # 44     ecut=    50.00 Ry     beta= 0.60
     Davidson diagonalization with overlap
     ethr =  2.38E-11,  avg # of iterations =  3.3

     total cpu time spent up to now is     4314.7 secs

     total energy              =    -706.18003603 Ry
     Harris-Foulkes estimate   =    -706.18003603 Ry
     estimated scf accuracy    <          2.4E-09 Ry

     iteration # 45     ecut=    50.00 Ry     beta= 0.60
     Davidson diagonalization with overlap
     ethr =  3.06E-12,  avg # of iterations =  3.9

     total cpu time spent up to now is     4406.6 secs

     End of self-consistent calculation

     Number of k-points >= 100: set verbosity='high' to print the bands.

     the Fermi energy is    13.6515 ev

!    total energy              =    -706.18003603 Ry
     Harris-Foulkes estimate   =    -706.18003603 Ry
     estimated scf accuracy    <          5.5E-11 Ry

     The total energy is the sum of the following terms:

     one-electron contribution =    -172.97407573 Ry
     hartree contribution      =     113.85877457 Ry
     xc contribution           =    -105.62300216 Ry
     ewald contribution        =    -541.44184490 Ry
     smearing contrib. (-TS)   =       0.00011220 Ry

     convergence has been achieved in  45 iterations

     Forces acting on atoms (cartesian axes, Ry/au):

     atom    1 type  2   force =     0.00000000    0.00000000    0.00000000
     atom    2 type  1   force =     0.00610824   -0.00908459    0.00908459
     atom    3 type  1   force =    -0.00610824    0.00908459   -0.00908459
     atom    4 type  1   force =     0.01475303    0.00062165   -0.00062165
     atom    5 type  1   force =    -0.00000000   -0.00000000    0.00000000
     atom    6 type  1   force =    -0.01475303   -0.00062165    0.00062165

     Total force =     0.029010     Total SCF correction =     0.000011


     Computing stress (Cartesian axis) and pressure

          total   stress  (Ry/bohr**3)                   (kbar)     P= -215.20
  -0.00147389   0.00001063  -0.00001063       -216.82      1.56     -1.56
   0.00001063  -0.00145743   0.00000037          1.56   -214.40      0.05
  -0.00001063   0.00000037  -0.00145743         -1.56      0.05   -214.40


     BFGS Geometry Optimization

     number of scf cycles    =   1
     number of bfgs steps    =   0

     enthalpy new            =    -706.1800360279 Ry

     new trust radius        =       0.2186254573 bohr
     new conv_thr            =            1.0E-10 Ry

     new unit-cell volume =    786.94460 a.u.^3 (   116.61316 Ang^3 )
     density =      7.29642 g/cm^3

CELL_PARAMETERS (alat=  1.88972599)
   5.079758972   1.695393941   1.692590708
   1.691384169  -5.081445392   1.693460743
  -1.691384169   1.693460743  -5.081445392

ATOMIC_POSITIONS (angstrom)
Ti       3.385571571  -3.387018050  -0.000966599
Nb       3.389616664  -0.003696886   0.003696886
Nb       1.690142308  -1.688893822  -1.699090827
Nb       5.086344041  -1.692239473   1.692239473
Nb       5.079758972  -1.692590708  -1.695393941
Nb      -0.006585069  -0.000351235  -3.387633414


     NEW-OLD atomic charge density approx. for the potential
     extrapolated charge   68.01371, renormalised to   77.00000

     total cpu time spent up to now is     4438.3 secs

     Self-consistent Calculation

     iteration #  1     ecut=    50.00 Ry     beta= 0.60
     Davidson diagonalization with overlap
     c_bands:  1 eigenvalues not converged
     c_bands:  1 eigenvalues not converged
     c_bands:  1 eigenvalues not converged
     c_bands:  1 eigenvalues not converged
     c_bands:  1 eigenvalues not converged
     c_bands:  1 eigenvalues not converged
     c_bands:  1 eigenvalues not converged
     c_bands:  1 eigenvalues not converged
     c_bands:  1 eigenvalues not converged
     c_bands:  2 eigenvalues not converged
     c_bands:  1 eigenvalues not converged
     c_bands:  1 eigenvalues not converged
     c_bands:  1 eigenvalues not converged
     c_bands:  1 eigenvalues not converged
     c_bands:  1 eigenvalues not converged
     c_bands:  1 eigenvalues not converged
     c_bands:  1 eigenvalues not converged
     c_bands:  1 eigenvalues not converged
     c_bands:  1 eigenvalues not converged
     c_bands:  1 eigenvalues not converged
     c_bands:  1 eigenvalues not converged
     c_bands:  1 eigenvalues not converged
     c_bands:  1 eigenvalues not converged
     c_bands:  1 eigenvalues not converged
     c_bands:  1 eigenvalues not converged
     c_bands:  1 eigenvalues not converged
     c_bands:  1 eigenvalues not converged
     c_bands:  2 eigenvalues not converged
     c_bands:  1 eigenvalues not converged
     c_bands:  1 eigenvalues not converged
     c_bands:  1 eigenvalues not converged
     c_bands:  1 eigenvalues not converged
     c_bands:  1 eigenvalues not converged
     c_bands:  1 eigenvalues not converged
     c_bands:  1 eigenvalues not converged
     c_bands:  1 eigenvalues not converged
     c_bands:  1 eigenvalues not converged
     c_bands:  1 eigenvalues not converged
     c_bands:  1 eigenvalues not converged
     c_bands:  1 eigenvalues not converged
     c_bands:  1 eigenvalues not converged
     c_bands:  1 eigenvalues not converged
     c_bands:  2 eigenvalues not converged
     c_bands:  1 eigenvalues not converged
     c_bands:  2 eigenvalues not converged
     c_bands:  1 eigenvalues not converged
     c_bands:  1 eigenvalues not converged
     c_bands:  1 eigenvalues not converged
     c_bands:  1 eigenvalues not converged
     c_bands:  1 eigenvalues not converged
     c_bands:  1 eigenvalues not converged
     c_bands:  1 eigenvalues not converged
     c_bands:  1 eigenvalues not converged
     c_bands:  1 eigenvalues not converged
     c_bands:  1 eigenvalues not converged
     c_bands:  1 eigenvalues not converged
     c_bands:  1 eigenvalues not converged
     c_bands:  1 eigenvalues not converged
     c_bands:  1 eigenvalues not converged
     c_bands:  1 eigenvalues not converged
     c_bands:  1 eigenvalues not converged
     c_bands:  1 eigenvalues not converged
     c_bands:  1 eigenvalues not converged
     c_bands:  1 eigenvalues not converged
     c_bands:  1 eigenvalues not converged
     c_bands:  1 eigenvalues not converged
     c_bands:  1 eigenvalues not converged
     c_bands:  1 eigenvalues not converged
     c_bands:  1 eigenvalues not converged
     c_bands:  1 eigenvalues not converged
     c_bands:  1 eigenvalues not converged
     c_bands:  1 eigenvalues not converged
     c_bands:  1 eigenvalues not converged
     c_bands:  1 eigenvalues not converged
     c_bands:  1 eigenvalues not converged
     c_bands:  1 eigenvalues not converged
     ethr =  1.00E-06,  avg # of iterations = 14.9

     total cpu time spent up to now is     4712.1 secs

     total energy              =    -683.33071407 Ry
     Harris-Foulkes estimate   =    -719.23807376 Ry
     estimated scf accuracy    <      25.38204707 Ry

     iteration #  2     ecut=    50.00 Ry     beta= 0.60
     Davidson diagonalization with overlap
     ethr =  1.00E-02,  avg # of iterations =  6.2

     total cpu time spent up to now is     4866.2 secs

     total energy              =    -699.16935834 Ry
     Harris-Foulkes estimate   =    -734.18798635 Ry
     estimated scf accuracy    <     103.78671494 Ry

     iteration #  3     ecut=    50.00 Ry     beta= 0.60
     Davidson diagonalization with overlap
     ethr =  1.00E-02,  avg # of iterations =  4.9

     total cpu time spent up to now is     4978.9 secs

     total energy              =    -707.93029305 Ry
     Harris-Foulkes estimate   =    -709.75135296 Ry
     estimated scf accuracy    <       8.55792104 Ry

     iteration #  4     ecut=    50.00 Ry     beta= 0.60
     Davidson diagonalization with overlap
     ethr =  1.00E-02,  avg # of iterations =  1.0

     total cpu time spent up to now is     5057.3 secs

     total energy              =    -707.46123163 Ry
     Harris-Foulkes estimate   =    -708.31953348 Ry
     estimated scf accuracy    <       6.60972147 Ry

     iteration #  5     ecut=    50.00 Ry     beta= 0.60
     Davidson diagonalization with overlap
     ethr =  8.58E-03,  avg # of iterations =  1.0

     total cpu time spent up to now is     5148.2 secs

     total energy              =    -706.95769911 Ry
     Harris-Foulkes estimate   =    -707.63192350 Ry
     estimated scf accuracy    <       4.28040045 Ry

     iteration #  6     ecut=    50.00 Ry     beta= 0.60
     Davidson diagonalization with overlap
     ethr =  5.56E-03,  avg # of iterations =  1.0

     total cpu time spent up to now is     5219.3 secs

     total energy              =    -706.63346727 Ry
     Harris-Foulkes estimate   =    -706.99704514 Ry
     estimated scf accuracy    <       2.99581563 Ry

     iteration #  7     ecut=    50.00 Ry     beta= 0.60
     Davidson diagonalization with overlap
     ethr =  3.89E-03,  avg # of iterations =  1.2

     total cpu time spent up to now is     5291.5 secs

     total energy              =    -706.59935917 Ry
     Harris-Foulkes estimate   =    -706.67437102 Ry
     estimated scf accuracy    <       2.05968916 Ry

     iteration #  8     ecut=    50.00 Ry     beta= 0.60
     Davidson diagonalization with overlap
     ethr =  2.67E-03,  avg # of iterations =  1.1

     total cpu time spent up to now is     5362.1 secs

     total energy              =    -706.37080924 Ry
     Harris-Foulkes estimate   =    -706.61353559 Ry
     estimated scf accuracy    <       1.83921775 Ry

     iteration #  9     ecut=    50.00 Ry     beta= 0.60
     Davidson diagonalization with overlap
     ethr =  2.39E-03,  avg # of iterations =  2.1

     total cpu time spent up to now is     5438.1 secs

     total energy              =    -706.17505769 Ry
     Harris-Foulkes estimate   =    -706.40875991 Ry
     estimated scf accuracy    <       1.00258386 Ry

     iteration # 10     ecut=    50.00 Ry     beta= 0.60
     Davidson diagonalization with overlap
     ethr =  1.30E-03,  avg # of iterations =  4.6

     total cpu time spent up to now is     5552.7 secs

     total energy              =    -706.52720804 Ry
     Harris-Foulkes estimate   =    -706.31622063 Ry
     estimated scf accuracy    <       0.20472466 Ry

     iteration # 11     ecut=    50.00 Ry     beta= 0.60
     Davidson diagonalization with overlap
     ethr =  2.66E-04,  avg # of iterations =  5.1

     total cpu time spent up to now is     5689.3 secs

     total energy              =    -707.82688066 Ry
     Harris-Foulkes estimate   =    -707.76754782 Ry
     estimated scf accuracy    <      24.27285470 Ry

     iteration # 12     ecut=    50.00 Ry     beta= 0.60
     Davidson diagonalization with overlap
     ethr =  2.66E-04,  avg # of iterations =  1.0

     total cpu time spent up to now is     5761.0 secs

     total energy              =    -707.94457630 Ry
     Harris-Foulkes estimate   =    -707.82799609 Ry
     estimated scf accuracy    <      24.93743705 Ry

     iteration # 13     ecut=    50.00 Ry     beta= 0.60
     Davidson diagonalization with overlap
     ethr =  2.66E-04,  avg # of iterations =  1.0

     total cpu time spent up to now is     5832.8 secs

     total energy              =    -706.47449502 Ry
     Harris-Foulkes estimate   =    -707.94658511 Ry
     estimated scf accuracy    <      26.20778729 Ry

     iteration # 14     ecut=    50.00 Ry     beta= 0.60
     Davidson diagonalization with overlap
     ethr =  2.66E-04,  avg # of iterations =  3.8

     total cpu time spent up to now is     5940.8 secs

     total energy              =    -707.57012179 Ry
     Harris-Foulkes estimate   =    -706.74499838 Ry
     estimated scf accuracy    <       9.24031075 Ry

     iteration # 15     ecut=    50.00 Ry     beta= 0.60
     Davidson diagonalization with overlap
     ethr =  2.66E-04,  avg # of iterations =  4.0

     total cpu time spent up to now is     6043.8 secs

     total energy              =    -708.70760037 Ry
     Harris-Foulkes estimate   =    -707.86292408 Ry
     estimated scf accuracy    <      25.47696262 Ry

     iteration # 16     ecut=    50.00 Ry     beta= 0.60
     Davidson diagonalization with overlap
     ethr =  2.66E-04,  avg # of iterations =  3.0

     total cpu time spent up to now is     6130.5 secs

     total energy              =    -707.15578448 Ry
     Harris-Foulkes estimate   =    -708.79194567 Ry
     estimated scf accuracy    <      33.48230491 Ry

     iteration # 17     ecut=    50.00 Ry     beta= 0.60
     Davidson diagonalization with overlap
     ethr =  2.66E-04,  avg # of iterations =  3.3

     total cpu time spent up to now is     6228.2 secs

     total energy              =    -706.36062387 Ry
     Harris-Foulkes estimate   =    -707.31101597 Ry
     estimated scf accuracy    <      19.37039602 Ry

     iteration # 18     ecut=    50.00 Ry     beta= 0.60
     Davidson diagonalization with overlap
     ethr =  2.66E-04,  avg # of iterations =  3.9

     total cpu time spent up to now is     6330.4 secs

     total energy              =    -706.34315890 Ry
     Harris-Foulkes estimate   =    -706.56466762 Ry
     estimated scf accuracy    <       6.01975417 Ry

     iteration # 19     ecut=    50.00 Ry     beta= 0.60
     Davidson diagonalization with overlap
     ethr =  2.66E-04,  avg # of iterations =  3.1

     total cpu time spent up to now is     6414.6 secs

     total energy              =    -706.45180918 Ry
     Harris-Foulkes estimate   =    -706.39190067 Ry
     estimated scf accuracy    <       2.21887735 Ry

     iteration # 20     ecut=    50.00 Ry     beta= 0.60
     Davidson diagonalization with overlap
     ethr =  2.66E-04,  avg # of iterations =  1.0

     total cpu time spent up to now is     6486.3 secs

     total energy              =    -706.43073107 Ry
     Harris-Foulkes estimate   =    -706.46072183 Ry
     estimated scf accuracy    <       3.54537615 Ry

     iteration # 21     ecut=    50.00 Ry     beta= 0.60
     Davidson diagonalization with overlap
     ethr =  2.66E-04,  avg # of iterations =  1.0

     total cpu time spent up to now is     6560.3 secs

     total energy              =    -706.36273402 Ry
     Harris-Foulkes estimate   =    -706.43215164 Ry
     estimated scf accuracy    <       3.01803787 Ry

     iteration # 22     ecut=    50.00 Ry     beta= 0.60
     Davidson diagonalization with overlap
     ethr =  2.66E-04,  avg # of iterations =  1.0

     total cpu time spent up to now is     6632.0 secs

     total energy              =    -706.27801806 Ry
     Harris-Foulkes estimate   =    -706.37565416 Ry
     estimated scf accuracy    <       1.90788872 Ry

     iteration # 23     ecut=    50.00 Ry     beta= 0.60
     Davidson diagonalization with overlap
     ethr =  2.66E-04,  avg # of iterations =  1.2

     total cpu time spent up to now is     6704.3 secs

     total energy              =    -706.28311444 Ry
     Harris-Foulkes estimate   =    -706.30469390 Ry
     estimated scf accuracy    <       0.42456955 Ry

     iteration # 24     ecut=    50.00 Ry     beta= 0.60
     Davidson diagonalization with overlap
     ethr =  2.66E-04,  avg # of iterations =  2.8

     total cpu time spent up to now is     6782.6 secs

     total energy              =    -706.28502977 Ry
     Harris-Foulkes estimate   =    -706.29181719 Ry
     estimated scf accuracy    <       0.09850501 Ry

     iteration # 25     ecut=    50.00 Ry     beta= 0.60
     Davidson diagonalization with overlap
     ethr =  1.28E-04,  avg # of iterations =  4.5

     total cpu time spent up to now is     6886.1 secs

     total energy              =    -706.28625797 Ry
     Harris-Foulkes estimate   =    -706.28817482 Ry
     estimated scf accuracy    <       0.01523159 Ry

     iteration # 26     ecut=    50.00 Ry     beta= 0.60
     Davidson diagonalization with overlap
     ethr =  1.98E-05,  avg # of iterations =  6.9

     total cpu time spent up to now is     6995.3 secs

     total energy              =    -706.28754103 Ry
     Harris-Foulkes estimate   =    -706.28772373 Ry
     estimated scf accuracy    <       0.00053001 Ry

     iteration # 27     ecut=    50.00 Ry     beta= 0.60
     Davidson diagonalization with overlap
     c_bands:  1 eigenvalues not converged
     ethr =  6.88E-07,  avg # of iterations =  4.2

     total cpu time spent up to now is     7107.7 secs

     total energy              =    -706.28759392 Ry
     Harris-Foulkes estimate   =    -706.28761590 Ry
     estimated scf accuracy    <       0.00008313 Ry

     iteration # 28     ecut=    50.00 Ry     beta= 0.60
     Davidson diagonalization with overlap
     ethr =  1.08E-07,  avg # of iterations =  3.2

     total cpu time spent up to now is     7214.9 secs

     total energy              =    -706.28760544 Ry
     Harris-Foulkes estimate   =    -706.28760757 Ry
     estimated scf accuracy    <       0.00001294 Ry

     iteration # 29     ecut=    50.00 Ry     beta= 0.60
     Davidson diagonalization with overlap
     ethr =  1.68E-08,  avg # of iterations =  2.8

     total cpu time spent up to now is     7299.0 secs

     total energy              =    -706.28760651 Ry
     Harris-Foulkes estimate   =    -706.28760720 Ry
     estimated scf accuracy    <       0.00000326 Ry

     iteration # 30     ecut=    50.00 Ry     beta= 0.60
     Davidson diagonalization with overlap
     ethr =  4.23E-09,  avg # of iterations =  2.6

     total cpu time spent up to now is     7382.1 secs

     total energy              =    -706.28760687 Ry
     Harris-Foulkes estimate   =    -706.28760693 Ry
     estimated scf accuracy    <       0.00000018 Ry

     iteration # 31     ecut=    50.00 Ry     beta= 0.60
     Davidson diagonalization with overlap
     ethr =  2.37E-10,  avg # of iterations =  4.0

     total cpu time spent up to now is     7486.3 secs

     total energy              =    -706.28760692 Ry
     Harris-Foulkes estimate   =    -706.28760693 Ry
     estimated scf accuracy    <       0.00000003 Ry

     iteration # 32     ecut=    50.00 Ry     beta= 0.60
     Davidson diagonalization with overlap
     ethr =  3.90E-11,  avg # of iterations =  2.3

     total cpu time spent up to now is     7567.5 secs

     total energy              =    -706.28760692 Ry
     Harris-Foulkes estimate   =    -706.28760692 Ry
     estimated scf accuracy    <          7.1E-09 Ry

     iteration # 33     ecut=    50.00 Ry     beta= 0.60
     Davidson diagonalization with overlap
     ethr =  9.24E-12,  avg # of iterations =  2.6

     total cpu time spent up to now is     7651.7 secs

     total energy              =    -706.28760692 Ry
     Harris-Foulkes estimate   =    -706.28760692 Ry
     estimated scf accuracy    <          7.1E-10 Ry

     iteration # 34     ecut=    50.00 Ry     beta= 0.60
     Davidson diagonalization with overlap
     ethr =  9.23E-13,  avg # of iterations =  3.9

     total cpu time spent up to now is     7752.1 secs

     total energy              =    -706.28760692 Ry
     Harris-Foulkes estimate   =    -706.28760692 Ry
     estimated scf accuracy    <          1.5E-10 Ry

     iteration # 35     ecut=    50.00 Ry     beta= 0.60
     Davidson diagonalization with overlap
     ethr =  1.88E-13,  avg # of iterations =  2.2

     total cpu time spent up to now is     7833.7 secs

     End of self-consistent calculation

     Number of k-points >= 100: set verbosity='high' to print the bands.

     the Fermi energy is    15.6160 ev

!    total energy              =    -706.28760692 Ry
     Harris-Foulkes estimate   =    -706.28760692 Ry
     estimated scf accuracy    <          4.4E-12 Ry

     The total energy is the sum of the following terms:

     one-electron contribution =    -143.32889116 Ry
     hartree contribution      =     105.26167703 Ry
     xc contribution           =    -106.23839226 Ry
     ewald contribution        =    -561.98159234 Ry
     smearing contrib. (-TS)   =      -0.00040820 Ry

     convergence has been achieved in  35 iterations

     Forces acting on atoms (cartesian axes, Ry/au):

     atom    1 type  2   force =     0.00000000    0.00000000    0.00000000
     atom    2 type  1   force =     0.00388946   -0.00840749    0.00840749
     atom    3 type  1   force =    -0.00388946    0.00840749   -0.00840749
     atom    4 type  1   force =     0.01244481    0.00022939   -0.00022939
     atom    5 type  1   force =     0.00000000    0.00000000   -0.00000000
     atom    6 type  1   force =    -0.01244481   -0.00022939    0.00022939

     Total force =     0.024959     Total SCF correction =     0.000003


     Computing stress (Cartesian axis) and pressure

          total   stress  (Ry/bohr**3)                   (kbar)     P= -111.75
  -0.00077094   0.00001381  -0.00001381       -113.41      2.03     -2.03
   0.00001381  -0.00075404  -0.00000238          2.03   -110.92     -0.35
  -0.00001381  -0.00000238  -0.00075404         -2.03     -0.35   -110.92


     number of scf cycles    =   2
     number of bfgs steps    =   1

     enthalpy old            =    -706.1800360279 Ry
     enthalpy new            =    -706.2876069228 Ry

     CASE: enthalpy_new < enthalpy_old

     new trust radius        =       0.2027512753 bohr
     new conv_thr            =            1.0E-10 Ry

     new unit-cell volume =    705.90251 a.u.^3 (   104.60396 Ang^3 )
     density =      8.13409 g/cm^3

CELL_PARAMETERS (alat=  1.88972599)
   4.896251841   1.638732934   1.629268253
   1.625774302  -4.901108221   1.633107034
  -1.625774302   1.633107034  -4.901108221

ATOMIC_POSITIONS (angstrom)
Ti       3.261013071  -3.265188237  -0.002812950
Nb       3.270716874  -0.009044874   0.009044874
Nb       1.625534967  -1.620223379  -1.647777808
Nb       4.911780876  -1.629071514   1.629071514
Nb       4.896251841  -1.629268253  -1.638732934
Nb      -0.015529035  -0.000196739  -3.267804449


     NEW-OLD atomic charge density approx. for the potential
     extrapolated charge   68.27629, renormalised to   77.00000

     total cpu time spent up to now is     7866.6 secs

     Self-consistent Calculation

     iteration #  1     ecut=    50.00 Ry     beta= 0.60
     Davidson diagonalization with overlap
     c_bands:  1 eigenvalues not converged
     c_bands:  1 eigenvalues not converged
     c_bands:  1 eigenvalues not converged
     c_bands:  1 eigenvalues not converged
     c_bands:  2 eigenvalues not converged
     c_bands:  1 eigenvalues not converged
     c_bands:  1 eigenvalues not converged
     c_bands:  1 eigenvalues not converged
     c_bands:  1 eigenvalues not converged
     c_bands:  1 eigenvalues not converged
     c_bands:  1 eigenvalues not converged
     c_bands:  1 eigenvalues not converged
     c_bands:  1 eigenvalues not converged
     c_bands:  1 eigenvalues not converged
     c_bands:  1 eigenvalues not converged
     c_bands:  1 eigenvalues not converged
     c_bands:  2 eigenvalues not converged
     c_bands:  1 eigenvalues not converged
     c_bands:  1 eigenvalues not converged
     c_bands:  1 eigenvalues not converged
     c_bands:  1 eigenvalues not converged
     c_bands:  1 eigenvalues not converged
     c_bands:  2 eigenvalues not converged
     c_bands:  1 eigenvalues not converged
     c_bands:  1 eigenvalues not converged
     c_bands:  1 eigenvalues not converged
     c_bands:  1 eigenvalues not converged
     c_bands:  1 eigenvalues not converged
     c_bands:  1 eigenvalues not converged
     c_bands:  1 eigenvalues not converged
     c_bands:  1 eigenvalues not converged
     c_bands:  1 eigenvalues not converged
     c_bands:  1 eigenvalues not converged
     c_bands:  1 eigenvalues not converged
     c_bands:  1 eigenvalues not converged
     c_bands:  1 eigenvalues not converged
     c_bands:  1 eigenvalues not converged
     c_bands:  1 eigenvalues not converged
     c_bands:  1 eigenvalues not converged
     c_bands:  1 eigenvalues not converged
     c_bands:  1 eigenvalues not converged
     c_bands:  1 eigenvalues not converged
     c_bands:  1 eigenvalues not converged
     c_bands:  1 eigenvalues not converged
     c_bands:  1 eigenvalues not converged
     c_bands:  2 eigenvalues not converged
     c_bands:  1 eigenvalues not converged
     c_bands:  1 eigenvalues not converged
     c_bands:  1 eigenvalues not converged
     c_bands:  1 eigenvalues not converged
     c_bands:  1 eigenvalues not converged
     c_bands:  1 eigenvalues not converged
     c_bands:  1 eigenvalues not converged
     c_bands:  1 eigenvalues not converged
     c_bands:  1 eigenvalues not converged
     c_bands:  1 eigenvalues not converged
     c_bands:  1 eigenvalues not converged
     c_bands:  1 eigenvalues not converged
     c_bands:  1 eigenvalues not converged
     c_bands:  1 eigenvalues not converged
     c_bands:  1 eigenvalues not converged
     c_bands:  1 eigenvalues not converged
     c_bands:  1 eigenvalues not converged
     c_bands:  1 eigenvalues not converged
     c_bands:  1 eigenvalues not converged
     c_bands:  1 eigenvalues not converged
     c_bands:  1 eigenvalues not converged
     c_bands:  2 eigenvalues not converged
     c_bands:  1 eigenvalues not converged
     c_bands:  1 eigenvalues not converged
     c_bands:  1 eigenvalues not converged
     c_bands:  2 eigenvalues not converged
     c_bands:  1 eigenvalues not converged
     c_bands:  1 eigenvalues not converged
     c_bands:  1 eigenvalues not converged
     c_bands:  1 eigenvalues not converged
     c_bands:  1 eigenvalues not converged
     c_bands:  1 eigenvalues not converged
     c_bands:  1 eigenvalues not converged
     c_bands:  1 eigenvalues not converged
     c_bands:  1 eigenvalues not converged
     c_bands:  1 eigenvalues not converged
     c_bands:  1 eigenvalues not converged
     c_bands:  1 eigenvalues not converged
     c_bands:  1 eigenvalues not converged
     c_bands:  1 eigenvalues not converged
     c_bands:  1 eigenvalues not converged
     c_bands:  1 eigenvalues not converged
     c_bands:  1 eigenvalues not converged
     c_bands:  1 eigenvalues not converged
     c_bands:  1 eigenvalues not converged
     c_bands:  1 eigenvalues not converged
     c_bands:  1 eigenvalues not converged
     c_bands:  1 eigenvalues not converged
     c_bands:  1 eigenvalues not converged
     c_bands:  1 eigenvalues not converged
     c_bands:  1 eigenvalues not converged
     c_bands:  1 eigenvalues not converged
     c_bands:  1 eigenvalues not converged
     c_bands:  1 eigenvalues not converged
     c_bands:  1 eigenvalues not converged
     c_bands:  2 eigenvalues not converged
     c_bands:  1 eigenvalues not converged
     c_bands:  1 eigenvalues not converged
     c_bands:  1 eigenvalues not converged
     c_bands:  1 eigenvalues not converged
     c_bands:  1 eigenvalues not converged
     c_bands:  1 eigenvalues not converged
     c_bands:  1 eigenvalues not converged
     c_bands:  1 eigenvalues not converged
     c_bands:  1 eigenvalues not converged
     c_bands:  1 eigenvalues not converged
     c_bands:  1 eigenvalues not converged
     ethr =  1.00E-06,  avg # of iterations = 15.2

     total cpu time spent up to now is     8155.9 secs

     total energy              =    -689.24203803 Ry
     Harris-Foulkes estimate   =    -716.54024820 Ry
     estimated scf accuracy    <      18.63129372 Ry

     iteration #  2     ecut=    50.00 Ry     beta= 0.60
     Davidson diagonalization with overlap
     ethr =  1.00E-02,  avg # of iterations =  6.3

     total cpu time spent up to now is     8295.2 secs

     total energy              =    -699.46179208 Ry
     Harris-Foulkes estimate   =    -726.53418135 Ry
     estimated scf accuracy    <      82.32080358 Ry

     iteration #  3     ecut=    50.00 Ry     beta= 0.60
     Davidson diagonalization with overlap
     ethr =  1.00E-02,  avg # of iterations =  4.0

     total cpu time spent up to now is     8400.7 secs

     total energy              =    -707.44799308 Ry
     Harris-Foulkes estimate   =    -708.86665669 Ry
     estimated scf accuracy    <       6.78914646 Ry

     iteration #  4     ecut=    50.00 Ry     beta= 0.60
     Davidson diagonalization with overlap
     ethr =  8.82E-03,  avg # of iterations =  1.0

     total cpu time spent up to now is     8471.2 secs

     total energy              =    -707.02966005 Ry
     Harris-Foulkes estimate   =    -707.78063943 Ry
     estimated scf accuracy    <       5.34159830 Ry

     iteration #  5     ecut=    50.00 Ry     beta= 0.60
     Davidson diagonalization with overlap
     ethr =  6.94E-03,  avg # of iterations =  1.0

     total cpu time spent up to now is     8542.3 secs

     total energy              =    -706.59562144 Ry
     Harris-Foulkes estimate   =    -707.17578725 Ry
     estimated scf accuracy    <       3.28519557 Ry

     iteration #  6     ecut=    50.00 Ry     beta= 0.60
     Davidson diagonalization with overlap
     ethr =  4.27E-03,  avg # of iterations =  1.0

     total cpu time spent up to now is     8613.5 secs

     total energy              =    -706.48646610 Ry
     Harris-Foulkes estimate   =    -706.63782315 Ry
     estimated scf accuracy    <       2.08866487 Ry

     iteration #  7     ecut=    50.00 Ry     beta= 0.60
     Davidson diagonalization with overlap
     ethr =  2.71E-03,  avg # of iterations =  2.0

     total cpu time spent up to now is     8687.6 secs

     total energy              =    -706.50629255 Ry
     Harris-Foulkes estimate   =    -706.52360959 Ry
     estimated scf accuracy    <       1.50359285 Ry

     iteration #  8     ecut=    50.00 Ry     beta= 0.60
     Davidson diagonalization with overlap
     ethr =  1.95E-03,  avg # of iterations =  1.1

     total cpu time spent up to now is     8759.4 secs

     total energy              =    -706.48289764 Ry
     Harris-Foulkes estimate   =    -706.51975853 Ry
     estimated scf accuracy    <       1.37989949 Ry

     iteration #  9     ecut=    50.00 Ry     beta= 0.60
     Davidson diagonalization with overlap
     ethr =  1.79E-03,  avg # of iterations =  1.0

     total cpu time spent up to now is     8830.9 secs

     total energy              =    -706.22723984 Ry
     Harris-Foulkes estimate   =    -706.49272714 Ry
     estimated scf accuracy    <       1.28438384 Ry

     iteration # 10     ecut=    50.00 Ry     beta= 0.60
     Davidson diagonalization with overlap
     ethr =  1.67E-03,  avg # of iterations =  3.5

     total cpu time spent up to now is     8912.1 secs

     total energy              =    -706.14259396 Ry
     Harris-Foulkes estimate   =    -706.29231958 Ry
     estimated scf accuracy    <       0.24816938 Ry

     iteration # 11     ecut=    50.00 Ry     beta= 0.60
     Davidson diagonalization with overlap
     ethr =  3.22E-04,  avg # of iterations =  4.6

     total cpu time spent up to now is     9041.0 secs

     total energy              =    -706.27543058 Ry
     Harris-Foulkes estimate   =    -706.73542587 Ry
     estimated scf accuracy    <       8.02734279 Ry

     iteration # 12     ecut=    50.00 Ry     beta= 0.60
     Davidson diagonalization with overlap
     ethr =  3.22E-04,  avg # of iterations =  3.5

     total cpu time spent up to now is     9127.1 secs

     total energy              =    -706.58693221 Ry
     Harris-Foulkes estimate   =    -706.39761878 Ry
     estimated scf accuracy    <       1.66919669 Ry

     iteration # 13     ecut=    50.00 Ry     beta= 0.60
     Davidson diagonalization with overlap
     ethr =  3.22E-04,  avg # of iterations =  3.4

     total cpu time spent up to now is     9217.5 secs

     total energy              =    -706.60699187 Ry
     Harris-Foulkes estimate   =    -706.69357376 Ry
     estimated scf accuracy    <       7.32718401 Ry

     iteration # 14     ecut=    50.00 Ry     beta= 0.60
     Davidson diagonalization with overlap
     ethr =  3.22E-04,  avg # of iterations =  1.0

     total cpu time spent up to now is     9288.4 secs

     total energy              =    -706.68236368 Ry
     Harris-Foulkes estimate   =    -706.61273920 Ry
     estimated scf accuracy    <       5.99552997 Ry

     iteration # 15     ecut=    50.00 Ry     beta= 0.60
     Davidson diagonalization with overlap
     ethr =  3.22E-04,  avg # of iterations =  1.0

     total cpu time spent up to now is     9359.4 secs

     total energy              =    -706.71294654 Ry
     Harris-Foulkes estimate   =    -706.68762672 Ry
     estimated scf accuracy    <       7.16215440 Ry

     iteration # 16     ecut=    50.00 Ry     beta= 0.60
     Davidson diagonalization with overlap
     ethr =  3.22E-04,  avg # of iterations =  1.0

     total cpu time spent up to now is     9430.3 secs

     total energy              =    -706.61805984 Ry
     Harris-Foulkes estimate   =    -706.71456417 Ry
     estimated scf accuracy    <       7.62826976 Ry

     iteration # 17     ecut=    50.00 Ry     beta= 0.60
     Davidson diagonalization with overlap
     ethr =  3.22E-04,  avg # of iterations =  1.0

     total cpu time spent up to now is     9501.3 secs

     total energy              =    -706.63201408 Ry
     Harris-Foulkes estimate   =    -706.62277566 Ry
     estimated scf accuracy    <       6.13316555 Ry

     iteration # 18     ecut=    50.00 Ry     beta= 0.60
     Davidson diagonalization with overlap
     ethr =  3.22E-04,  avg # of iterations =  1.0

     total cpu time spent up to now is     9572.2 secs

     total energy              =    -705.99115091 Ry
     Harris-Foulkes estimate   =    -706.63216540 Ry
     estimated scf accuracy    <       6.27605671 Ry

     iteration # 19     ecut=    50.00 Ry     beta= 0.60
     Davidson diagonalization with overlap
     ethr =  3.22E-04,  avg # of iterations =  5.1

     total cpu time spent up to now is     9680.8 secs

     total energy              =    -706.31075716 Ry
     Harris-Foulkes estimate   =    -706.31304973 Ry
     estimated scf accuracy    <       0.01149188 Ry

     iteration # 20     ecut=    50.00 Ry     beta= 0.60
     Davidson diagonalization with overlap
     c_bands:  1 eigenvalues not converged
     ethr =  1.49E-05,  avg # of iterations =  7.1

     total cpu time spent up to now is     9779.0 secs

     total energy              =    -706.31076402 Ry
     Harris-Foulkes estimate   =    -706.31149135 Ry
     estimated scf accuracy    <       0.00483136 Ry

     iteration # 21     ecut=    50.00 Ry     beta= 0.60
     Davidson diagonalization with overlap
     ethr =  6.27E-06,  avg # of iterations =  1.5

     total cpu time spent up to now is     9851.7 secs

     total energy              =    -706.31015032 Ry
     Harris-Foulkes estimate   =    -706.31092576 Ry
     estimated scf accuracy    <       0.00365530 Ry

     iteration # 22     ecut=    50.00 Ry     beta= 0.60
     Davidson diagonalization with overlap
     ethr =  4.75E-06,  avg # of iterations =  3.2

     total cpu time spent up to now is     9932.0 secs

     total energy              =    -706.31033498 Ry
     Harris-Foulkes estimate   =    -706.31039857 Ry
     estimated scf accuracy    <       0.00061119 Ry

     iteration # 23     ecut=    50.00 Ry     beta= 0.60
     Davidson diagonalization with overlap
     c_bands:  1 eigenvalues not converged
     ethr =  7.94E-07,  avg # of iterations =  6.0

     total cpu time spent up to now is    10031.1 secs

     total energy              =    -706.31038942 Ry
     Harris-Foulkes estimate   =    -706.31039690 Ry
     estimated scf accuracy    <       0.00004081 Ry

     iteration # 24     ecut=    50.00 Ry     beta= 0.60
     Davidson diagonalization with overlap
     ethr =  5.30E-08,  avg # of iterations =  3.9

     total cpu time spent up to now is    10121.0 secs

     total energy              =    -706.31039624 Ry
     Harris-Foulkes estimate   =    -706.31039732 Ry
     estimated scf accuracy    <       0.00001044 Ry

     iteration # 25     ecut=    50.00 Ry     beta= 0.60
     Davidson diagonalization with overlap
     ethr =  1.36E-08,  avg # of iterations =  2.6

     total cpu time spent up to now is    10199.7 secs

     total energy              =    -706.31039507 Ry
     Harris-Foulkes estimate   =    -706.31039685 Ry
     estimated scf accuracy    <       0.00001427 Ry

     iteration # 26     ecut=    50.00 Ry     beta= 0.60
     Davidson diagonalization with overlap
     ethr =  1.36E-08,  avg # of iterations =  1.1

     total cpu time spent up to now is    10271.0 secs

     total energy              =    -706.31039518 Ry
     Harris-Foulkes estimate   =    -706.31039564 Ry
     estimated scf accuracy    <       0.00000384 Ry

     iteration # 27     ecut=    50.00 Ry     beta= 0.60
     Davidson diagonalization with overlap
     ethr =  4.98E-09,  avg # of iterations =  1.3

     total cpu time spent up to now is    10343.1 secs

     total energy              =    -706.31039526 Ry
     Harris-Foulkes estimate   =    -706.31039537 Ry
     estimated scf accuracy    <       0.00000068 Ry

     iteration # 28     ecut=    50.00 Ry     beta= 0.60
     Davidson diagonalization with overlap
     ethr =  8.81E-10,  avg # of iterations =  3.4

     total cpu time spent up to now is    10428.6 secs

     total energy              =    -706.31039535 Ry
     Harris-Foulkes estimate   =    -706.31039536 Ry
     estimated scf accuracy    <       0.00000002 Ry

     iteration # 29     ecut=    50.00 Ry     beta= 0.60
     Davidson diagonalization with overlap
     ethr =  3.08E-11,  avg # of iterations =  3.6

     total cpu time spent up to now is    10521.9 secs

     total energy              =    -706.31039535 Ry
     Harris-Foulkes estimate   =    -706.31039535 Ry
     estimated scf accuracy    <          3.2E-09 Ry

     iteration # 30     ecut=    50.00 Ry     beta= 0.60
     Davidson diagonalization with overlap
     ethr =  4.10E-12,  avg # of iterations =  3.0

     total cpu time spent up to now is    10610.8 secs

     total energy              =    -706.31039535 Ry
     Harris-Foulkes estimate   =    -706.31039535 Ry
     estimated scf accuracy    <          1.1E-09 Ry

     iteration # 31     ecut=    50.00 Ry     beta= 0.60
     Davidson diagonalization with overlap
     ethr =  1.37E-12,  avg # of iterations =  1.6

     total cpu time spent up to now is    10683.7 secs

     total energy              =    -706.31039535 Ry
     Harris-Foulkes estimate   =    -706.31039535 Ry
     estimated scf accuracy    <          2.1E-10 Ry

     iteration # 32     ecut=    50.00 Ry     beta= 0.60
     Davidson diagonalization with overlap
     ethr =  2.70E-13,  avg # of iterations =  3.9

     total cpu time spent up to now is    10773.3 secs

     End of self-consistent calculation

     Number of k-points >= 100: set verbosity='high' to print the bands.

     the Fermi energy is    17.7333 ev

!    total energy              =    -706.31039535 Ry
     Harris-Foulkes estimate   =    -706.31039535 Ry
     estimated scf accuracy    <          3.6E-11 Ry

     The total energy is the sum of the following terms:

     one-electron contribution =    -113.86540509 Ry
     hartree contribution      =      97.16231274 Ry
     xc contribution           =    -106.92292939 Ry
     ewald contribution        =    -582.68388342 Ry
     smearing contrib. (-TS)   =      -0.00049019 Ry

     convergence has been achieved in  32 iterations

     Forces acting on atoms (cartesian axes, Ry/au):

     atom    1 type  2   force =    -0.00000000   -0.00000000    0.00000000
     atom    2 type  1   force =    -0.00028627   -0.00683035    0.00683035
     atom    3 type  1   force =     0.00028627    0.00683035   -0.00683035
     atom    4 type  1   force =     0.00758673   -0.00038161    0.00038161
     atom    5 type  1   force =     0.00000000    0.00000000   -0.00000000
     atom    6 type  1   force =    -0.00758673    0.00038161   -0.00038161

     Total force =     0.017392     Total SCF correction =     0.000007


     Computing stress (Cartesian axis) and pressure

          total   stress  (Ry/bohr**3)                   (kbar)     P=   46.04
   0.00030722   0.00001416  -0.00001416         45.19      2.08     -2.08
   0.00001416   0.00031589  -0.00000798          2.08     46.47     -1.17
  -0.00001416  -0.00000798   0.00031589         -2.08     -1.17     46.47


     number of scf cycles    =   3
     number of bfgs steps    =   2

     enthalpy old            =    -706.2876069228 Ry
     enthalpy new            =    -706.3103953541 Ry

     CASE: enthalpy_new < enthalpy_old

     new trust radius        =       0.0527509792 bohr
     new conv_thr            =            1.0E-10 Ry

     new unit-cell volume =    727.11413 a.u.^3 (   107.74720 Ang^3 )
     density =      7.89680 g/cm^3

CELL_PARAMETERS (alat=  1.88972599)
   4.944735373   1.655493292   1.644554688
   1.640953235  -4.949720130   1.649672150
  -1.640953235   1.649672150  -4.949720130

ATOMIC_POSITIONS (angstrom)
Ti       3.292844304  -3.297137409  -0.002910571
Nb       3.302545899  -0.010006614   0.010006614
Nb       1.642189473  -1.634548074  -1.665499906
Nb       4.961069831  -1.644895874   1.644895874
Nb       4.944735373  -1.644554688  -1.655493292
Nb      -0.016334458   0.000341186  -3.300389166


     NEW-OLD atomic charge density approx. for the potential
     extrapolated charge   79.21670, renormalised to   77.00000

     total cpu time spent up to now is    10806.2 secs

     Self-consistent Calculation

     iteration #  1     ecut=    50.00 Ry     beta= 0.60
     Davidson diagonalization with overlap
     c_bands:  1 eigenvalues not converged
     c_bands:  1 eigenvalues not converged
     c_bands:  1 eigenvalues not converged
     c_bands:  1 eigenvalues not converged
     c_bands:  1 eigenvalues not converged
     c_bands:  1 eigenvalues not converged
     c_bands:  1 eigenvalues not converged
     c_bands:  1 eigenvalues not converged
     c_bands:  1 eigenvalues not converged
     ethr =  1.00E-06,  avg # of iterations = 13.2

     total cpu time spent up to now is    11023.5 secs

     total energy              =    -706.10049557 Ry
     Harris-Foulkes estimate   =    -703.86141150 Ry
     estimated scf accuracy    <       0.16747028 Ry

     iteration #  2     ecut=    50.00 Ry     beta= 0.60
     Davidson diagonalization with overlap
     ethr =  2.17E-04,  avg # of iterations =  5.9

     total cpu time spent up to now is    11177.5 secs

     total energy              =    -705.86883233 Ry
     Harris-Foulkes estimate   =    -706.77575380 Ry
     estimated scf accuracy    <       8.56852931 Ry

     iteration #  3     ecut=    50.00 Ry     beta= 0.60
     Davidson diagonalization with overlap
     ethr =  2.17E-04,  avg # of iterations =  5.7

     total cpu time spent up to now is    11298.3 secs

     total energy              =    -706.30500453 Ry
     Harris-Foulkes estimate   =    -706.35942080 Ry
     estimated scf accuracy    <       0.16793493 Ry

     iteration #  4     ecut=    50.00 Ry     beta= 0.60
     Davidson diagonalization with overlap
     ethr =  2.17E-04,  avg # of iterations =  2.2

     total cpu time spent up to now is    11375.2 secs

     total energy              =    -706.31784847 Ry
     Harris-Foulkes estimate   =    -706.32424252 Ry
     estimated scf accuracy    <       0.04995871 Ry

     iteration #  5     ecut=    50.00 Ry     beta= 0.60
     Davidson diagonalization with overlap
     ethr =  6.49E-05,  avg # of iterations =  2.4

     total cpu time spent up to now is    11451.1 secs

     total energy              =    -706.31852267 Ry
     Harris-Foulkes estimate   =    -706.32114891 Ry
     estimated scf accuracy    <       0.03295831 Ry

     iteration #  6     ecut=    50.00 Ry     beta= 0.60
     Davidson diagonalization with overlap
     ethr =  4.28E-05,  avg # of iterations =  1.1

     total cpu time spent up to now is    11522.3 secs

     total energy              =    -706.31765640 Ry
     Harris-Foulkes estimate   =    -706.31903205 Ry
     estimated scf accuracy    <       0.02695738 Ry

     iteration #  7     ecut=    50.00 Ry     beta= 0.60
     Davidson diagonalization with overlap
     ethr =  3.50E-05,  avg # of iterations =  1.0

     total cpu time spent up to now is    11592.8 secs

     total energy              =    -706.31377688 Ry
     Harris-Foulkes estimate   =    -706.31787508 Ry
     estimated scf accuracy    <       0.02273539 Ry

     iteration #  8     ecut=    50.00 Ry     beta= 0.60
     Davidson diagonalization with overlap
     ethr =  2.95E-05,  avg # of iterations =  1.0

     total cpu time spent up to now is    11664.2 secs

     total energy              =    -706.31353336 Ry
     Harris-Foulkes estimate   =    -706.31444811 Ry
     estimated scf accuracy    <       0.00844257 Ry

     iteration #  9     ecut=    50.00 Ry     beta= 0.60
     Davidson diagonalization with overlap
     ethr =  1.10E-05,  avg # of iterations =  2.9

     total cpu time spent up to now is    11743.4 secs

     total energy              =    -706.31332323 Ry
     Harris-Foulkes estimate   =    -706.31387125 Ry
     estimated scf accuracy    <       0.00364413 Ry

     iteration # 10     ecut=    50.00 Ry     beta= 0.60
     Davidson diagonalization with overlap
     c_bands:  1 eigenvalues not converged
     ethr =  4.73E-06,  avg # of iterations =  4.2

     total cpu time spent up to now is    11826.1 secs

     total energy              =    -706.31345335 Ry
     Harris-Foulkes estimate   =    -706.31350748 Ry
     estimated scf accuracy    <       0.00086498 Ry

     iteration # 11     ecut=    50.00 Ry     beta= 0.60
     Davidson diagonalization with overlap
     ethr =  1.12E-06,  avg # of iterations =  4.9

     total cpu time spent up to now is    11916.7 secs

     total energy              =    -706.31348855 Ry
     Harris-Foulkes estimate   =    -706.31351994 Ry
     estimated scf accuracy    <       0.00021712 Ry

     iteration # 12     ecut=    50.00 Ry     beta= 0.60
     Davidson diagonalization with overlap
     ethr =  2.82E-07,  avg # of iterations =  2.8

     total cpu time spent up to now is    11993.9 secs

     total energy              =    -706.31350222 Ry
     Harris-Foulkes estimate   =    -706.31350350 Ry
     estimated scf accuracy    <       0.00001157 Ry

     iteration # 13     ecut=    50.00 Ry     beta= 0.60
     Davidson diagonalization with overlap
     ethr =  1.50E-08,  avg # of iterations =  4.5

     total cpu time spent up to now is    12098.1 secs

     total energy              =    -706.31350681 Ry
     Harris-Foulkes estimate   =    -706.31350690 Ry
     estimated scf accuracy    <       0.00000077 Ry

     iteration # 14     ecut=    50.00 Ry     beta= 0.60
     Davidson diagonalization with overlap
     ethr =  9.94E-10,  avg # of iterations =  2.7

     total cpu time spent up to now is    12177.9 secs

     total energy              =    -706.31350685 Ry
     Harris-Foulkes estimate   =    -706.31350688 Ry
     estimated scf accuracy    <       0.00000029 Ry

     iteration # 15     ecut=    50.00 Ry     beta= 0.60
     Davidson diagonalization with overlap
     ethr =  3.83E-10,  avg # of iterations =  2.0

     total cpu time spent up to now is    12251.8 secs

     total energy              =    -706.31350685 Ry
     Harris-Foulkes estimate   =    -706.31350686 Ry
     estimated scf accuracy    <       0.00000010 Ry

     iteration # 16     ecut=    50.00 Ry     beta= 0.60
     Davidson diagonalization with overlap
     ethr =  1.25E-10,  avg # of iterations =  2.5

     total cpu time spent up to now is    12329.6 secs

     total energy              =    -706.31350685 Ry
     Harris-Foulkes estimate   =    -706.31350686 Ry
     estimated scf accuracy    <       0.00000005 Ry

     iteration # 17     ecut=    50.00 Ry     beta= 0.60
     Davidson diagonalization with overlap
     ethr =  6.71E-11,  avg # of iterations =  2.6

     total cpu time spent up to now is    12406.1 secs

     total energy              =    -706.31350685 Ry
     Harris-Foulkes estimate   =    -706.31350686 Ry
     estimated scf accuracy    <       0.00000002 Ry

     iteration # 18     ecut=    50.00 Ry     beta= 0.60
     Davidson diagonalization with overlap
     ethr =  2.05E-11,  avg # of iterations =  3.2

     total cpu time spent up to now is    12487.8 secs

     total energy              =    -706.31350685 Ry
     Harris-Foulkes estimate   =    -706.31350685 Ry
     estimated scf accuracy    <          2.4E-09 Ry

     iteration # 19     ecut=    50.00 Ry     beta= 0.60
     Davidson diagonalization with overlap
     ethr =  3.06E-12,  avg # of iterations =  3.5

     total cpu time spent up to now is    12575.0 secs

     End of self-consistent calculation

     Number of k-points >= 100: set verbosity='high' to print the bands.

     the Fermi energy is    17.1344 ev

!    total energy              =    -706.31350685 Ry
     Harris-Foulkes estimate   =    -706.31350685 Ry
     estimated scf accuracy    <          8.6E-11 Ry

     The total energy is the sum of the following terms:

     one-electron contribution =    -121.97712739 Ry
     hartree contribution      =      99.35264290 Ry
     xc contribution           =    -106.72848033 Ry
     ewald contribution        =    -576.96008973 Ry
     smearing contrib. (-TS)   =      -0.00045230 Ry

     convergence has been achieved in  19 iterations

     Forces acting on atoms (cartesian axes, Ry/au):

     atom    1 type  2   force =     0.00000000    0.00000000    0.00000000
     atom    2 type  1   force =     0.00054320   -0.00655618    0.00655618
     atom    3 type  1   force =    -0.00054320    0.00655618   -0.00655618
     atom    4 type  1   force =     0.00824169   -0.00004390    0.00004390
     atom    5 type  1   force =     0.00000000    0.00000000    0.00000000
     atom    6 type  1   force =    -0.00824169    0.00004390   -0.00004390

     Total force =     0.017561     Total SCF correction =     0.000017


     Computing stress (Cartesian axis) and pressure

          total   stress  (Ry/bohr**3)                   (kbar)     P=   -3.29
  -0.00002847   0.00001442  -0.00001442         -4.19      2.12     -2.12
   0.00001442  -0.00001932  -0.00000763          2.12     -2.84     -1.12
  -0.00001442  -0.00000763  -0.00001932         -2.12     -1.12     -2.84


     number of scf cycles    =   4
     number of bfgs steps    =   3

     enthalpy old            =    -706.3103953541 Ry
     enthalpy new            =    -706.3135068539 Ry

     CASE: enthalpy_new < enthalpy_old

     new trust radius        =       0.0085006384 bohr
     new conv_thr            =            1.0E-10 Ry

     new unit-cell volume =    726.00534 a.u.^3 (   107.58289 Ang^3 )
     density =      7.90886 g/cm^3

CELL_PARAMETERS (alat=  1.88972599)
   4.941479618   1.656200005   1.641821014
   1.637574930  -4.947303894   1.649282876
  -1.637574930   1.649282876  -4.947303894

ATOMIC_POSITIONS (angstrom)
Ti       3.289527274  -3.294562454  -0.003458564
Nb       3.300619340  -0.012028879   0.012028879
Nb       1.640860278  -1.629792135  -1.668228883
Nb       4.960625371  -1.642771411   1.642771411
Nb       4.941479618  -1.641821014  -1.656200005
Nb      -0.019145753   0.000950397  -3.298971415


     NEW-OLD atomic charge density approx. for the potential
     extrapolated charge   76.88395, renormalised to   77.00000

     total cpu time spent up to now is    12607.8 secs

     Self-consistent Calculation

     iteration #  1     ecut=    50.00 Ry     beta= 0.60
     Davidson diagonalization with overlap
     ethr =  1.00E-06,  avg # of iterations =  4.0

     total cpu time spent up to now is    12746.2 secs

     total energy              =    -706.31316163 Ry
     Harris-Foulkes estimate   =    -706.44315823 Ry
     estimated scf accuracy    <       0.00052886 Ry

     iteration #  2     ecut=    50.00 Ry     beta= 0.60
     Davidson diagonalization with overlap
     ethr =  6.87E-07,  avg # of iterations =  5.7

     total cpu time spent up to now is    12895.7 secs

     total energy              =    -706.31307373 Ry
     Harris-Foulkes estimate   =    -706.31476060 Ry
     estimated scf accuracy    <       0.01068865 Ry

     iteration #  3     ecut=    50.00 Ry     beta= 0.60
     Davidson diagonalization with overlap
     ethr =  6.87E-07,  avg # of iterations =  5.2

     total cpu time spent up to now is    13020.4 secs

     total energy              =    -706.31377246 Ry
     Harris-Foulkes estimate   =    -706.31394599 Ry
     estimated scf accuracy    <       0.00051860 Ry

     iteration #  4     ecut=    50.00 Ry     beta= 0.60
     Davidson diagonalization with overlap
     ethr =  6.74E-07,  avg # of iterations =  2.6

     total cpu time spent up to now is    13098.9 secs

     total energy              =    -706.31382792 Ry
     Harris-Foulkes estimate   =    -706.31385093 Ry
     estimated scf accuracy    <       0.00027629 Ry

     iteration #  5     ecut=    50.00 Ry     beta= 0.60
     Davidson diagonalization with overlap
     ethr =  3.59E-07,  avg # of iterations =  1.0

     total cpu time spent up to now is    13169.9 secs

     total energy              =    -706.31379858 Ry
     Harris-Foulkes estimate   =    -706.31383556 Ry
     estimated scf accuracy    <       0.00016956 Ry

     iteration #  6     ecut=    50.00 Ry     beta= 0.60
     Davidson diagonalization with overlap
     ethr =  2.20E-07,  avg # of iterations =  1.8

     total cpu time spent up to now is    13243.5 secs

     total energy              =    -706.31380104 Ry
     Harris-Foulkes estimate   =    -706.31380761 Ry
     estimated scf accuracy    <       0.00003043 Ry

     iteration #  7     ecut=    50.00 Ry     beta= 0.60
     Davidson diagonalization with overlap
     ethr =  3.95E-08,  avg # of iterations =  3.6

     total cpu time spent up to now is    13335.4 secs

     total energy              =    -706.31380556 Ry
     Harris-Foulkes estimate   =    -706.31380658 Ry
     estimated scf accuracy    <       0.00000658 Ry

     iteration #  8     ecut=    50.00 Ry     beta= 0.60
     Davidson diagonalization with overlap
     ethr =  8.54E-09,  avg # of iterations =  2.5

     total cpu time spent up to now is    13414.9 secs

     total energy              =    -706.31380585 Ry
     Harris-Foulkes estimate   =    -706.31380623 Ry
     estimated scf accuracy    <       0.00000222 Ry

     iteration #  9     ecut=    50.00 Ry     beta= 0.60
     Davidson diagonalization with overlap
     ethr =  2.88E-09,  avg # of iterations =  2.5

     total cpu time spent up to now is    13493.8 secs

     total energy              =    -706.31380597 Ry
     Harris-Foulkes estimate   =    -706.31380602 Ry
     estimated scf accuracy    <       0.00000050 Ry

     iteration # 10     ecut=    50.00 Ry     beta= 0.60
     Davidson diagonalization with overlap
     ethr =  6.49E-10,  avg # of iterations =  2.3

     total cpu time spent up to now is    13570.3 secs

     total energy              =    -706.31380593 Ry
     Harris-Foulkes estimate   =    -706.31380599 Ry
     estimated scf accuracy    <       0.00000022 Ry

     iteration # 11     ecut=    50.00 Ry     beta= 0.60
     Davidson diagonalization with overlap
     ethr =  2.80E-10,  avg # of iterations =  3.6

     total cpu time spent up to now is    13663.6 secs

     total energy              =    -706.31380596 Ry
     Harris-Foulkes estimate   =    -706.31380596 Ry
     estimated scf accuracy    <          9.0E-09 Ry

     iteration # 12     ecut=    50.00 Ry     beta= 0.60
     Davidson diagonalization with overlap
     ethr =  1.17E-11,  avg # of iterations =  3.8

     total cpu time spent up to now is    13762.3 secs

     total energy              =    -706.31380596 Ry
     Harris-Foulkes estimate   =    -706.31380596 Ry
     estimated scf accuracy    <          2.0E-09 Ry

     iteration # 13     ecut=    50.00 Ry     beta= 0.60
     Davidson diagonalization with overlap
     ethr =  2.56E-12,  avg # of iterations =  3.2

     total cpu time spent up to now is    13846.6 secs

     total energy              =    -706.31380596 Ry
     Harris-Foulkes estimate   =    -706.31380596 Ry
     estimated scf accuracy    <          4.2E-10 Ry

     iteration # 14     ecut=    50.00 Ry     beta= 0.60
     Davidson diagonalization with overlap
     ethr =  5.49E-13,  avg # of iterations =  2.8

     total cpu time spent up to now is    13926.4 secs

     End of self-consistent calculation

     Number of k-points >= 100: set verbosity='high' to print the bands.

     the Fermi energy is    17.1647 ev

!    total energy              =    -706.31380596 Ry
     Harris-Foulkes estimate   =    -706.31380596 Ry
     estimated scf accuracy    <          1.2E-11 Ry

     The total energy is the sum of the following terms:

     one-electron contribution =    -121.57962306 Ry
     hartree contribution      =      99.24796750 Ry
     xc contribution           =    -106.73887976 Ry
     ewald contribution        =    -577.24284946 Ry
     smearing contrib. (-TS)   =      -0.00042119 Ry

     convergence has been achieved in  14 iterations

     Forces acting on atoms (cartesian axes, Ry/au):

     atom    1 type  2   force =     0.00000000    0.00000000    0.00000000
     atom    2 type  1   force =     0.00010030   -0.00587593    0.00587593
     atom    3 type  1   force =    -0.00010030    0.00587593   -0.00587593
     atom    4 type  1   force =     0.00732928    0.00005992   -0.00005992
     atom    5 type  1   force =     0.00000000    0.00000000   -0.00000000
     atom    6 type  1   force =    -0.00732928   -0.00005992    0.00005992

     Total force =     0.015671     Total SCF correction =     0.000007


     Computing stress (Cartesian axis) and pressure

          total   stress  (Ry/bohr**3)                   (kbar)     P=   -0.74
  -0.00000955   0.00001423  -0.00001423         -1.40      2.09     -2.09
   0.00001423  -0.00000281  -0.00000875          2.09     -0.41     -1.29
  -0.00001423  -0.00000875  -0.00000281         -2.09     -1.29     -0.41


     number of scf cycles    =   5
     number of bfgs steps    =   4

     enthalpy old            =    -706.3135068539 Ry
     enthalpy new            =    -706.3138059628 Ry

     CASE: enthalpy_new < enthalpy_old


     WARNING: bfgs curvature condition failed, Theta= 0.946
     new trust radius        =       0.0127470052 bohr
     new conv_thr            =            1.0E-10 Ry

[...]

     The total energy is the sum of the following terms:

     one-electron contribution =    -121.86860260 Ry
     hartree contribution      =      99.36879254 Ry
     xc contribution           =    -106.74346000 Ry
     ewald contribution        =    -577.07181748 Ry
     smearing contrib. (-TS)   =      -0.00001252 Ry

     convergence has been achieved in  10 iterations

     Forces acting on atoms (cartesian axes, Ry/au):

     atom    1 type  2   force =     0.00000000    0.00000000    0.00000000
     atom    2 type  1   force =    -0.00000638    0.00000647   -0.00000647
     atom    3 type  1   force =     0.00000638   -0.00000647    0.00000647
     atom    4 type  1   force =     0.00000036    0.00000205   -0.00000205
     atom    5 type  1   force =     0.00000000    0.00000000    0.00000000
     atom    6 type  1   force =    -0.00000036   -0.00000205    0.00000205

     Total force =     0.000016     Total SCF correction =     0.000000


     Computing stress (Cartesian axis) and pressure

          total   stress  (Ry/bohr**3)                   (kbar)     P=    0.00
   0.00000006  -0.00000004   0.00000004          0.01     -0.01      0.01
  -0.00000004  -0.00000003   0.00000004         -0.01     -0.00      0.01
   0.00000004   0.00000004  -0.00000003          0.01      0.01     -0.00


     bfgs converged in  23 scf cycles and  22 bfgs steps
     (criteria: energy <  1.0E-10 Ry, force <  1.0E-05Ry/Bohr, cell <  1.0E-03kbar)

     End of BFGS Geometry Optimization

     Final enthalpy =    -706.3151000608 Ry
Begin final coordinates
     new unit-cell volume =    726.19297 a.u.^3 (   107.61069 Ang^3 )
     density =      7.90682 g/cm^3

CELL_PARAMETERS (alat=  1.88972599)
   4.942268723   1.674433636   1.607022960
   1.602505230  -4.947464404   1.666007808
  -1.602505230   1.666007808  -4.947464404

ATOMIC_POSITIONS (angstrom)
Ti       3.272386976  -3.277243682  -0.004212914
Nb       3.290152111  -0.022535613   0.022535613
Nb       1.652116612  -1.584487346  -1.696969249
Nb       4.975847009  -1.617637846   1.617637846
Nb       4.942268723  -1.607022960  -1.674433636
Nb      -0.033578286   0.010614886  -3.292071481
End final coordinates



     A final scf calculation at the relaxed structure.
     The G-vectors are recalculated for the final unit cell
     Results may differ from those at the preceding step.
 
     Parallelization info
     --------------------
     sticks:   dense  smooth     PW     G-vecs:    dense   smooth      PW
     Min        1055     424    138                34297     8687    1619
     Max        1056     425    139                34298     8688    1620
     Sum        4221    1699    553               137189    34749    6479
 


     bravais-lattice index     =            0
     lattice parameter (alat)  =       1.8897  a.u.
     unit-cell volume          =     726.1930 (a.u.)^3
     number of atoms/cell      =            6
     number of atomic types    =            2
     number of electrons       =        77.00
     number of Kohn-Sham states=           47
     kinetic-energy cutoff     =      50.0000  Ry
     charge density cutoff     =     500.0000  Ry
     convergence threshold     =      1.0E-12
     mixing beta               =       0.6000
     number of iterations used =            8  plain     mixing
     Exchange-correlation      = SLA PW PBE PBE ( 1  4  3  4 0 0)

     celldm(1)=   1.889726  celldm(2)=   0.000000  celldm(3)=   0.000000
     celldm(4)=   0.000000  celldm(5)=   0.000000  celldm(6)=   0.000000

     crystal axes: (cart. coord. in units of alat)
               a(1) = (   4.942269   1.674434   1.607023 )  
               a(2) = (   1.602505  -4.947464   1.666008 )  
               a(3) = (  -1.602505   1.666008  -4.947464 )  

     reciprocal axes: (cart. coord. in units 2 pi/alat)
               b(1) = (  0.201670  0.048866 -0.048866 )  
               b(2) = (  0.101863 -0.203292 -0.101450 )  
               b(3) = (  0.099807 -0.052584 -0.252159 )  


     PseudoPot. # 1 for Nb read from file:
     ./Nb.pbe-nsp-van.UPF
     MD5 check sum: 0a22fc7fb0ba19a08ca5db297a5d2854
     Pseudo is Ultrasoft + core correction, Zval = 13.0
     Generated by new atomic code, or converted to UPF format
     Using radial grid of  887 points,  6 beta functions with: 
                l(1) =   0
                l(2) =   0
                l(3) =   1
                l(4) =   1
                l(5) =   2
                l(6) =   2
     Q(r) pseudized with  6 coefficients,  rinner =    1.000   1.000   1.000
                                                       1.000   1.000

     PseudoPot. # 2 for Ti read from file:
     ./Ti.pbe-sp-van_ak.UPF
     MD5 check sum: f98fea3e8887528921fefa5636a534ca
     Pseudo is Ultrasoft, Zval = 12.0
     Generated by new atomic code, or converted to UPF format
     Using radial grid of  851 points,  6 beta functions with: 
                l(1) =   0
                l(2) =   0
                l(3) =   1
                l(4) =   1
                l(5) =   2
                l(6) =   2
     Q(r) pseudized with  8 coefficients,  rinner =    1.000   1.000   1.000
                                                       1.000   1.000

     atomic species   valence    mass     pseudopotential
        Nb            13.00    92.90638     Nb( 1.00)
        Ti            12.00    47.86700     Ti( 1.00)

      4 Sym. Ops., with inversion, found



   Cartesian axes

     site n.     atom                  positions (alat units)
         1           Ti  tau(   1) = (   3.2723872  -3.2772439  -0.0042129  )
         2           Nb  tau(   2) = (   3.2901524  -0.0225356   0.0225356  )
         3           Nb  tau(   3) = (   1.6521167  -1.5844875  -1.6969694  )
         4           Nb  tau(   4) = (   4.9758474  -1.6176380   1.6176380  )
         5           Nb  tau(   5) = (   4.9422691  -1.6070231  -1.6744338  )
         6           Nb  tau(   6) = (  -0.0335783   0.0106149  -3.2920717  )

     number of k points=   476  Marzari-Vanderbilt smearing, width (Ry)=  0.0200

     Number of k-points >= 100: set verbosity='high' to print them.

     Dense  grid:   137189 G-vectors     FFT dimensions: (  75,  75,  75)

     Smooth grid:    34749 G-vectors     FFT dimensions: (  48,  48,  48)

     Estimated max dynamical RAM per process >     503.86 MB

     Estimated total dynamical RAM >       1.97 GB

     Initial potential from superposition of free atoms

     starting charge   75.98629, renormalised to   77.00000
     Starting wfcs are   75 randomized atomic wfcs

     total cpu time spent up to now is    34785.5 secs

     Self-consistent Calculation

     iteration #  1     ecut=    50.00 Ry     beta= 0.60
     Davidson diagonalization with overlap
     ethr =  1.00E-06,  avg # of iterations = 11.0

     total cpu time spent up to now is    34978.8 secs

     total energy              =    -691.30294611 Ry
     Harris-Foulkes estimate   =    -708.12214274 Ry
     estimated scf accuracy    <      21.14074863 Ry

     iteration #  2     ecut=    50.00 Ry     beta= 0.60
     Davidson diagonalization with overlap
     ethr =  1.00E-02,  avg # of iterations =  5.8

     total cpu time spent up to now is    35088.0 secs

     total energy              =    -695.84991502 Ry
     Harris-Foulkes estimate   =    -726.63467783 Ry
     estimated scf accuracy    <      92.35767637 Ry

     iteration #  3     ecut=    50.00 Ry     beta= 0.60
     Davidson diagonalization with overlap
     ethr =  1.00E-02,  avg # of iterations =  4.4

     total cpu time spent up to now is    35177.9 secs

     total energy              =    -707.09696587 Ry
     Harris-Foulkes estimate   =    -708.40253508 Ry
     estimated scf accuracy    <       9.57386558 Ry

     iteration #  4     ecut=    50.00 Ry     beta= 0.60
     Davidson diagonalization with overlap
     ethr =  1.00E-02,  avg # of iterations =  1.0

     total cpu time spent up to now is    35233.6 secs

     total energy              =    -706.94883093 Ry
     Harris-Foulkes estimate   =    -707.52214349 Ry
     estimated scf accuracy    <       4.37417329 Ry

     iteration #  5     ecut=    50.00 Ry     beta= 0.60
     Davidson diagonalization with overlap
     ethr =  5.68E-03,  avg # of iterations =  1.0

     total cpu time spent up to now is    35289.2 secs

     total energy              =    -706.39654096 Ry
     Harris-Foulkes estimate   =    -707.00415139 Ry
     estimated scf accuracy    <       3.16440039 Ry

     iteration #  6     ecut=    50.00 Ry     beta= 0.60
     Davidson diagonalization with overlap
     ethr =  4.11E-03,  avg # of iterations =  1.5

     total cpu time spent up to now is    35346.4 secs

     total energy              =    -705.98902038 Ry
     Harris-Foulkes estimate   =    -706.48631507 Ry
     estimated scf accuracy    <       1.80208595 Ry

     iteration #  7     ecut=    50.00 Ry     beta= 0.60
     Davidson diagonalization with overlap
     ethr =  2.34E-03,  avg # of iterations =  3.9

     total cpu time spent up to now is    35428.9 secs

     total energy              =    -706.16037050 Ry
     Harris-Foulkes estimate   =    -706.36707945 Ry
     estimated scf accuracy    <       0.85234299 Ry

     iteration #  8     ecut=    50.00 Ry     beta= 0.60
     Davidson diagonalization with overlap
     ethr =  1.11E-03,  avg # of iterations =  2.5

     total cpu time spent up to now is    35489.1 secs

     total energy              =    -706.25386394 Ry
     Harris-Foulkes estimate   =    -706.35381322 Ry
     estimated scf accuracy    <       0.40812807 Ry

     iteration #  9     ecut=    50.00 Ry     beta= 0.60
     Davidson diagonalization with overlap
     ethr =  5.30E-04,  avg # of iterations =  2.9

     total cpu time spent up to now is    35552.4 secs

     total energy              =    -706.28769072 Ry
     Harris-Foulkes estimate   =    -706.32087083 Ry
     estimated scf accuracy    <       0.10255279 Ry

     iteration # 10     ecut=    50.00 Ry     beta= 0.60
     Davidson diagonalization with overlap
     ethr =  1.33E-04,  avg # of iterations =  7.1

     total cpu time spent up to now is    35639.3 secs

     total energy              =    -706.31413906 Ry
     Harris-Foulkes estimate   =    -706.32906574 Ry
     estimated scf accuracy    <       0.16317077 Ry

     iteration # 11     ecut=    50.00 Ry     beta= 0.60
     Davidson diagonalization with overlap
     ethr =  1.33E-04,  avg # of iterations =  1.0

     total cpu time spent up to now is    35694.9 secs

     total energy              =    -706.30962268 Ry
     Harris-Foulkes estimate   =    -706.31665304 Ry
     estimated scf accuracy    <       0.06308909 Ry

     iteration # 12     ecut=    50.00 Ry     beta= 0.60
     Davidson diagonalization with overlap
     ethr =  8.19E-05,  avg # of iterations =  4.0

     total cpu time spent up to now is    35765.5 secs

     total energy              =    -706.31419563 Ry
     Harris-Foulkes estimate   =    -706.31429225 Ry
     estimated scf accuracy    <       0.00064994 Ry

     iteration # 13     ecut=    50.00 Ry     beta= 0.60
     Davidson diagonalization with overlap
     ethr =  8.44E-07,  avg # of iterations =  7.1

     total cpu time spent up to now is    35862.0 secs

     total energy              =    -706.31431749 Ry
     Harris-Foulkes estimate   =    -706.31433884 Ry
     estimated scf accuracy    <       0.00019540 Ry

     iteration # 14     ecut=    50.00 Ry     beta= 0.60
     Davidson diagonalization with overlap
     ethr =  2.54E-07,  avg # of iterations =  1.4

     total cpu time spent up to now is    35918.7 secs

     total energy              =    -706.31431355 Ry
     Harris-Foulkes estimate   =    -706.31432504 Ry
     estimated scf accuracy    <       0.00003384 Ry

     iteration # 15     ecut=    50.00 Ry     beta= 0.60
     Davidson diagonalization with overlap
     ethr =  4.39E-08,  avg # of iterations =  4.2

     total cpu time spent up to now is    35999.6 secs

     total energy              =    -706.31432622 Ry
     Harris-Foulkes estimate   =    -706.31433575 Ry
     estimated scf accuracy    <       0.00013212 Ry

     iteration # 16     ecut=    50.00 Ry     beta= 0.60
     Davidson diagonalization with overlap
     ethr =  4.39E-08,  avg # of iterations =  1.0

     total cpu time spent up to now is    36055.1 secs

     total energy              =    -706.31432378 Ry
     Harris-Foulkes estimate   =    -706.31432796 Ry
     estimated scf accuracy    <       0.00004752 Ry

     iteration # 17     ecut=    50.00 Ry     beta= 0.60
     Davidson diagonalization with overlap
     ethr =  4.39E-08,  avg # of iterations =  2.7

     total cpu time spent up to now is    36117.3 secs

     total energy              =    -706.31432543 Ry
     Harris-Foulkes estimate   =    -706.31432583 Ry
     estimated scf accuracy    <       0.00000437 Ry

     iteration # 18     ecut=    50.00 Ry     beta= 0.60
     Davidson diagonalization with overlap
     ethr =  5.68E-09,  avg # of iterations =  2.7

     total cpu time spent up to now is    36179.2 secs

     total energy              =    -706.31432556 Ry
     Harris-Foulkes estimate   =    -706.31432567 Ry
     estimated scf accuracy    <       0.00000077 Ry

     iteration # 19     ecut=    50.00 Ry     beta= 0.60
     Davidson diagonalization with overlap
     ethr =  1.00E-09,  avg # of iterations =  3.7

     total cpu time spent up to now is    36249.7 secs

     total energy              =    -706.31432567 Ry
     Harris-Foulkes estimate   =    -706.31432567 Ry
     estimated scf accuracy    <       0.00000003 Ry

     iteration # 20     ecut=    50.00 Ry     beta= 0.60
     Davidson diagonalization with overlap
     ethr =  4.07E-11,  avg # of iterations =  2.9

     total cpu time spent up to now is    36316.6 secs

     total energy              =    -706.31432567 Ry
     Harris-Foulkes estimate   =    -706.31432567 Ry
     estimated scf accuracy    <          1.3E-09 Ry

     iteration # 21     ecut=    50.00 Ry     beta= 0.60
     Davidson diagonalization with overlap
     ethr =  1.70E-12,  avg # of iterations =  4.0

     total cpu time spent up to now is    36394.5 secs

     total energy              =    -706.31432567 Ry
     Harris-Foulkes estimate   =    -706.31432567 Ry
     estimated scf accuracy    <          3.9E-10 Ry

     iteration # 22     ecut=    50.00 Ry     beta= 0.60
     Davidson diagonalization with overlap
     ethr =  5.12E-13,  avg # of iterations =  1.2

     total cpu time spent up to now is    36450.6 secs

     total energy              =    -706.31432567 Ry
     Harris-Foulkes estimate   =    -706.31432567 Ry
     estimated scf accuracy    <          3.1E-10 Ry

     iteration # 23     ecut=    50.00 Ry     beta= 0.60
     Davidson diagonalization with overlap
     ethr =  4.02E-13,  avg # of iterations =  1.8

     total cpu time spent up to now is    36508.6 secs

     total energy              =    -706.31432567 Ry
     Harris-Foulkes estimate   =    -706.31432567 Ry
     estimated scf accuracy    <          3.4E-11 Ry

     iteration # 24     ecut=    50.00 Ry     beta= 0.60
     Davidson diagonalization with overlap
     ethr =  1.00E-13,  avg # of iterations =  3.3

     total cpu time spent up to now is    36574.5 secs

     total energy              =    -706.31432567 Ry
     Harris-Foulkes estimate   =    -706.31432567 Ry
     estimated scf accuracy    <          5.3E-12 Ry

     iteration # 25     ecut=    50.00 Ry     beta= 0.60
     Davidson diagonalization with overlap
     ethr =  1.00E-13,  avg # of iterations =  1.0

     total cpu time spent up to now is    36630.1 secs

     End of self-consistent calculation

     Number of k-points >= 100: set verbosity='high' to print the bands.

     the Fermi energy is    17.1646 ev

!    total energy              =    -706.31432567 Ry
     Harris-Foulkes estimate   =    -706.31432567 Ry
     estimated scf accuracy    <          5.9E-13 Ry

     The total energy is the sum of the following terms:

     one-electron contribution =    -121.86837186 Ry
     hartree contribution      =      99.36886979 Ry
     xc contribution           =    -106.74299348 Ry
     ewald contribution        =    -577.07181748 Ry
     smearing contrib. (-TS)   =      -0.00001264 Ry

     convergence has been achieved in  25 iterations

     Forces acting on atoms (cartesian axes, Ry/au):

     atom    1 type  2   force =    -0.00000000   -0.00000000    0.00000000
     atom    2 type  1   force =    -0.00000280    0.00000309   -0.00000309
     atom    3 type  1   force =     0.00000280   -0.00000309    0.00000309
     atom    4 type  1   force =     0.00000757    0.00000010   -0.00000010
     atom    5 type  1   force =     0.00000000    0.00000000   -0.00000000
     atom    6 type  1   force =    -0.00000757   -0.00000010    0.00000010

     Total force =     0.000013     Total SCF correction =     0.000001


     Computing stress (Cartesian axis) and pressure

          total   stress  (Ry/bohr**3)                   (kbar)     P=   -1.48
  -0.00001003   0.00000008  -0.00000008         -1.47      0.01     -0.01
   0.00000008  -0.00001011  -0.00000009          0.01     -1.49     -0.01
  -0.00000008  -0.00000009  -0.00001011         -0.01     -0.01     -1.49

 
     init_run     :     79.12s CPU     80.71s WALL (       2 calls)
     electrons    :  34787.82s CPU  35788.66s WALL (      24 calls)
     update_pot   :     45.29s CPU     45.52s WALL (      22 calls)
     forces       :    172.70s CPU    176.53s WALL (      24 calls)
     stress       :    534.57s CPU    545.31s WALL (      24 calls)

     Called by init_run:
     wfcinit      :     75.73s CPU     77.05s WALL (       2 calls)
     potinit      :      1.05s CPU      1.07s WALL (       2 calls)
     hinit0       :      1.85s CPU      1.86s WALL (       2 calls)

     Called by electrons:
     c_bands      :  29557.27s CPU  30300.80s WALL (     391 calls)
     sum_band     :   5099.26s CPU   5204.17s WALL (     391 calls)
     v_of_rho     :     26.59s CPU     26.93s WALL (     401 calls)
     newd         :    107.80s CPU    161.32s WALL (     401 calls)
     mix_rho      :      3.06s CPU      3.09s WALL (     391 calls)

     Called by c_bands:
     init_us_2    :    348.80s CPU    350.50s WALL (  396032 calls)
     cegterg      :  27322.03s CPU  27618.93s WALL (  186116 calls)

     Called by sum_band:
     sum_band:bec :      8.58s CPU      8.62s WALL (  186116 calls)
     addusdens    :    123.47s CPU    172.38s WALL (     391 calls)

     Called by *egterg:
     h_psi        :  20506.58s CPU  20780.07s WALL (  754678 calls)
     s_psi        :    784.94s CPU    786.69s WALL (  754678 calls)
     g_psi        :    138.62s CPU    139.31s WALL (  567610 calls)
     cdiaghg      :   3112.25s CPU   3118.04s WALL (  736590 calls)

     Called by h_psi:
     h_psi:pot    :  20451.78s CPU  20724.46s WALL (  754678 calls)
     h_psi:calbec :    846.36s CPU    849.65s WALL (  754678 calls)
     vloc_psi     :  18816.05s CPU  19081.34s WALL (  754678 calls)
     add_vuspsi   :    786.45s CPU    789.36s WALL (  754678 calls)

     General routines
     calbec       :   1262.84s CPU   1267.82s WALL (  997914 calls)
     fft          :     16.72s CPU     16.98s WALL (    5825 calls)
     ffts         :      0.62s CPU      0.64s WALL (     792 calls)
     fftw         :  20952.79s CPU  21252.16s WALL (52542156 calls)
     interpolate  :      1.60s CPU      1.60s WALL (     401 calls)
 
     Parallel routines
     fft_scatt_xy :   3727.85s CPU   3735.56s WALL (52548773 calls)
     fft_scatt_yz :   4758.42s CPU   4773.04s WALL (52548773 calls)
 
     PWSCF        :     9h53m CPU       53h10m WALL

      10h
 
   This run was terminated on:   6:30:43  28Feb2020            

=------------------------------------------------------------------------------=
   JOB DONE.
=------------------------------------------------------------------------------=
