
     Program PWSCF v.6.3MaX starts on 22Feb2020 at 11:24: 3 

     This program is part of the open-source Quantum ESPRESSO suite
     for quantum simulation of materials; please cite
         "P. Giannozzi et al., J. Phys.:Condens. Matter 21 395502 (2009);
         "P. Giannozzi et al., J. Phys.:Condens. Matter 29 465901 (2017);
          URL http://www.quantum-espresso.org", 
     in publications or presentations arising from this work. More details at
     http://www.quantum-espresso.org/quote

     Parallel version (MPI), running on     6 processors

     MPI processes distributed on     1 nodes
     R & G space division:  proc/nbgrp/npool/nimage =       6
     Waiting for input...
     Reading input from standard input

     Current dimensions of program PWSCF are:
     Max number of different atomic species (ntypx) = 10
     Max number of k-points (npk) =  40000
     Max angular momentum in pseudopotentials (lmaxx) =  3
     Message from routine iosys:
     minimal I/O required, wf_collect reset to FALSE

     Subspace diagonalization in iterative solution of the eigenvalue problem:
     a serial algorithm will be used

 
     Parallelization info
     --------------------
     sticks:   dense  smooth     PW     G-vecs:    dense   smooth      PW
     Min         152      60     19                18206     4612     784
     Max         153      62     21                18229     4623     793
     Sum         913     367    121               109271    27707    4719
 


     bravais-lattice index     =            0
     lattice parameter (alat)  =       1.8897  a.u.
     unit-cell volume          =     808.3427 (a.u.)^3
     number of atoms/cell      =            6
     number of atomic types    =            2
     number of electrons       =        76.00
     number of Kohn-Sham states=           46
     kinetic-energy cutoff     =      40.0000  Ry
     charge density cutoff     =     400.0000  Ry
     convergence threshold     =      1.0E-10
     mixing beta               =       0.6000
     number of iterations used =            8  plain     mixing
     Exchange-correlation      = SLA PW PBE PBE ( 1  4  3  4 0 0)
     nstep                     =           50


     celldm(1)=   1.889726  celldm(2)=   0.000000  celldm(3)=   0.000000
     celldm(4)=   0.000000  celldm(5)=   0.000000  celldm(6)=   0.000000

     crystal axes: (cart. coord. in units of alat)
               a(1) = (  -1.522502  -2.637051   0.000000 )  
               a(2) = (   3.045004   0.000000   0.000000 )  
               a(3) = (   0.000000   0.000000  14.917383 )  

     reciprocal axes: (cart. coord. in units 2 pi/alat)
               b(1) = (  0.000000 -0.379211  0.000000 )  
               b(2) = (  0.328407 -0.189606  0.000000 )  
               b(3) = (  0.000000  0.000000  0.067036 )  


     PseudoPot. # 1 for Nb read from file:
     ./Nb.pbe-nsp-van.UPF
     MD5 check sum: 0a22fc7fb0ba19a08ca5db297a5d2854
     Pseudo is Ultrasoft + core correction, Zval = 13.0
     Generated by new atomic code, or converted to UPF format
     Using radial grid of  887 points,  6 beta functions with: 
                l(1) =   0
                l(2) =   0
                l(3) =   1
                l(4) =   1
                l(5) =   2
                l(6) =   2
     Q(r) pseudized with  6 coefficients,  rinner =    1.000   1.000   1.000
                                                       1.000   1.000

     PseudoPot. # 2 for Ti read from file:
     ./Ti.pbe-sp-van_ak.UPF
     MD5 check sum: f98fea3e8887528921fefa5636a534ca
     Pseudo is Ultrasoft, Zval = 12.0
     Generated by new atomic code, or converted to UPF format
     Using radial grid of  851 points,  6 beta functions with: 
                l(1) =   0
                l(2) =   0
                l(3) =   1
                l(4) =   1
                l(5) =   2
                l(6) =   2
     Q(r) pseudized with  8 coefficients,  rinner =    1.000   1.000   1.000
                                                       1.000   1.000

     atomic species   valence    mass     pseudopotential
        Nb            13.00    92.90638     Nb( 1.00)
        Ti            12.00    47.86700     Ti( 1.00)

     12 Sym. Ops. (no inversion) found



   Cartesian axes

     site n.     atom                  positions (alat units)
         1           Ti  tau(   1) = (   1.5225021  -2.6370512   4.9724614  )
         2           Nb  tau(   2) = (   0.0000015  -1.7580350   2.4862307  )
         3           Ti  tau(   3) = (   1.5225021  -2.6370512   9.9449228  )
         4           Nb  tau(   4) = (   0.0000015  -1.7580350   7.4586921  )
         5           Nb  tau(   5) = (   1.5225021  -2.6370512  14.9173841  )
         6           Nb  tau(   6) = (   0.0000015  -1.7580350  12.4311534  )

     number of k points=   120  Marzari-Vanderbilt smearing, width (Ry)=  0.0200

     Number of k-points >= 100: set verbosity='high' to print them.

     Dense  grid:   109271 G-vectors     FFT dimensions: (  40,  40, 180)

     Smooth grid:    27707 G-vectors     FFT dimensions: (  24,  24, 120)

     Estimated max dynamical RAM per process >     119.34 MB

     Estimated total dynamical RAM >     716.04 MB

     Initial potential from superposition of free atoms

     starting charge   73.98898, renormalised to   76.00000
     Starting wfcs are   72 randomized atomic wfcs

     total cpu time spent up to now is        5.5 secs

     Self-consistent Calculation

     iteration #  1     ecut=    40.00 Ry     beta= 0.60
     Davidson diagonalization with overlap
     ethr =  1.00E-02,  avg # of iterations =  5.1

     total cpu time spent up to now is       16.6 secs

     total energy              =    -495.34214840 Ry
     Harris-Foulkes estimate   =    -727.85445030 Ry
     estimated scf accuracy    <     280.21303290 Ry

     iteration #  2     ecut=    40.00 Ry     beta= 0.60
     Davidson diagonalization with overlap
     c_bands:  1 eigenvalues not converged
     c_bands:  1 eigenvalues not converged
     c_bands:  1 eigenvalues not converged
     c_bands:  2 eigenvalues not converged
     c_bands:  1 eigenvalues not converged
     ethr =  1.00E-02,  avg # of iterations = 17.7

     total cpu time spent up to now is       59.5 secs

     total energy              =    -618.63469069 Ry
     Harris-Foulkes estimate   =   -1559.45086095 Ry
     estimated scf accuracy    <    4311.11546487 Ry

     iteration #  3     ecut=    40.00 Ry     beta= 0.60
     Davidson diagonalization with overlap
     ethr =  1.00E-02,  avg # of iterations =  9.3

     total cpu time spent up to now is       81.9 secs

     total energy              =    -677.43570382 Ry
     Harris-Foulkes estimate   =    -804.68219419 Ry
     estimated scf accuracy    <    1136.49398706 Ry

     iteration #  4     ecut=    40.00 Ry     beta= 0.60
     Davidson diagonalization with overlap
     ethr =  1.00E-02,  avg # of iterations =  7.0

     total cpu time spent up to now is       98.1 secs

     total energy              =    -701.97601674 Ry
     Harris-Foulkes estimate   =    -721.01978735 Ry
     estimated scf accuracy    <     209.57955193 Ry

     iteration #  5     ecut=    40.00 Ry     beta= 0.60
     Davidson diagonalization with overlap
     ethr =  1.00E-02,  avg # of iterations =  7.0

     total cpu time spent up to now is      114.5 secs

     total energy              =    -703.77925205 Ry
     Harris-Foulkes estimate   =    -712.87908261 Ry
     estimated scf accuracy    <      60.06986991 Ry

     iteration #  6     ecut=    40.00 Ry     beta= 0.60
     Davidson diagonalization with overlap
     ethr =  1.00E-02,  avg # of iterations =  4.6

     total cpu time spent up to now is      123.6 secs

     total energy              =    -707.14126735 Ry
     Harris-Foulkes estimate   =    -711.04119658 Ry
     estimated scf accuracy    <     159.70248765 Ry

     iteration #  7     ecut=    40.00 Ry     beta= 0.60
     Davidson diagonalization with overlap
     ethr =  1.00E-02,  avg # of iterations =  1.5

     total cpu time spent up to now is      130.4 secs

     total energy              =    -707.08030961 Ry
     Harris-Foulkes estimate   =    -707.57452662 Ry
     estimated scf accuracy    <      69.90724091 Ry

     iteration #  8     ecut=    40.00 Ry     beta= 0.60
     Davidson diagonalization with overlap
     ethr =  1.00E-02,  avg # of iterations =  1.0

     total cpu time spent up to now is      136.7 secs

     total energy              =    -705.85620065 Ry
     Harris-Foulkes estimate   =    -707.12498562 Ry
     estimated scf accuracy    <      48.37572348 Ry

     iteration #  9     ecut=    40.00 Ry     beta= 0.60
     Davidson diagonalization with overlap
     ethr =  1.00E-02,  avg # of iterations =  1.0

     total cpu time spent up to now is      143.1 secs

     total energy              =    -704.50223866 Ry
     Harris-Foulkes estimate   =    -706.03044045 Ry
     estimated scf accuracy    <      20.65539507 Ry

     iteration # 10     ecut=    40.00 Ry     beta= 0.60
     Davidson diagonalization with overlap
     ethr =  1.00E-02,  avg # of iterations =  2.9

     total cpu time spent up to now is      150.7 secs

     total energy              =    -706.07769120 Ry
     Harris-Foulkes estimate   =    -705.40270482 Ry
     estimated scf accuracy    <      14.82920714 Ry

     iteration # 11     ecut=    40.00 Ry     beta= 0.60
     Davidson diagonalization with overlap
     ethr =  1.00E-02,  avg # of iterations =  5.7

     total cpu time spent up to now is      163.7 secs

     total energy              =    -701.72473862 Ry
     Harris-Foulkes estimate   =    -713.45426507 Ry
     estimated scf accuracy    <     261.98837903 Ry

     iteration # 12     ecut=    40.00 Ry     beta= 0.60
     Davidson diagonalization with overlap
     ethr =  1.00E-02,  avg # of iterations =  5.6

     total cpu time spent up to now is      174.8 secs

     total energy              =    -705.15957808 Ry
     Harris-Foulkes estimate   =    -705.20190588 Ry
     estimated scf accuracy    <      10.85966383 Ry

     iteration # 13     ecut=    40.00 Ry     beta= 0.60
     Davidson diagonalization with overlap
     ethr =  1.00E-02,  avg # of iterations =  1.8

     total cpu time spent up to now is      181.7 secs

     total energy              =    -705.33537855 Ry
     Harris-Foulkes estimate   =    -705.41057100 Ry
     estimated scf accuracy    <       5.70772847 Ry

     iteration # 14     ecut=    40.00 Ry     beta= 0.60
     Davidson diagonalization with overlap
     ethr =  7.51E-03,  avg # of iterations =  1.1

     total cpu time spent up to now is      188.1 secs

     total energy              =    -705.49965496 Ry
     Harris-Foulkes estimate   =    -705.36957733 Ry
     estimated scf accuracy    <       5.76309277 Ry

     iteration # 15     ecut=    40.00 Ry     beta= 0.60
     Davidson diagonalization with overlap
     ethr =  7.51E-03,  avg # of iterations =  1.0

     total cpu time spent up to now is      194.5 secs

     total energy              =    -705.53399146 Ry
     Harris-Foulkes estimate   =    -705.52053375 Ry
     estimated scf accuracy    <       8.13575608 Ry

     iteration # 16     ecut=    40.00 Ry     beta= 0.60
     Davidson diagonalization with overlap
     ethr =  7.51E-03,  avg # of iterations =  1.0

     total cpu time spent up to now is      200.8 secs

     total energy              =    -705.49192111 Ry
     Harris-Foulkes estimate   =    -705.54341297 Ry
     estimated scf accuracy    <       7.70724087 Ry

     iteration # 17     ecut=    40.00 Ry     beta= 0.60
     Davidson diagonalization with overlap
     ethr =  7.51E-03,  avg # of iterations =  1.0

     total cpu time spent up to now is      207.2 secs

     total energy              =    -705.34188758 Ry
     Harris-Foulkes estimate   =    -705.50013229 Ry
     estimated scf accuracy    <       6.63206938 Ry

     iteration # 18     ecut=    40.00 Ry     beta= 0.60
     Davidson diagonalization with overlap
     ethr =  7.51E-03,  avg # of iterations =  1.0

     total cpu time spent up to now is      213.6 secs

     total energy              =    -704.97746251 Ry
     Harris-Foulkes estimate   =    -705.38403840 Ry
     estimated scf accuracy    <       8.97159870 Ry

     iteration # 19     ecut=    40.00 Ry     beta= 0.60
     Davidson diagonalization with overlap
     ethr =  7.51E-03,  avg # of iterations =  1.0

     total cpu time spent up to now is      219.9 secs

     total energy              =    -704.90694523 Ry
     Harris-Foulkes estimate   =    -705.08599025 Ry
     estimated scf accuracy    <       4.78347283 Ry

     iteration # 20     ecut=    40.00 Ry     beta= 0.60
     Davidson diagonalization with overlap
     ethr =  6.29E-03,  avg # of iterations =  1.1

     total cpu time spent up to now is      226.4 secs

     total energy              =    -704.84196993 Ry
     Harris-Foulkes estimate   =    -705.01303182 Ry
     estimated scf accuracy    <       1.26078957 Ry

     iteration # 21     ecut=    40.00 Ry     beta= 0.60
     Davidson diagonalization with overlap
     ethr =  1.66E-03,  avg # of iterations =  4.0

     total cpu time spent up to now is      235.1 secs

     total energy              =    -704.87166533 Ry
     Harris-Foulkes estimate   =    -704.99000489 Ry
     estimated scf accuracy    <       1.24401506 Ry

     iteration # 22     ecut=    40.00 Ry     beta= 0.60
     Davidson diagonalization with overlap
     ethr =  1.64E-03,  avg # of iterations =  1.9

     total cpu time spent up to now is      242.0 secs

     total energy              =    -704.87050383 Ry
     Harris-Foulkes estimate   =    -704.91353170 Ry
     estimated scf accuracy    <       0.82430884 Ry

     iteration # 23     ecut=    40.00 Ry     beta= 0.60
     Davidson diagonalization with overlap
     ethr =  1.08E-03,  avg # of iterations =  1.6

     total cpu time spent up to now is      248.7 secs

     total energy              =    -704.89028381 Ry
     Harris-Foulkes estimate   =    -704.89670637 Ry
     estimated scf accuracy    <       0.03410962 Ry

     iteration # 24     ecut=    40.00 Ry     beta= 0.60
     Davidson diagonalization with overlap
     ethr =  4.49E-05,  avg # of iterations =  6.2

     total cpu time spent up to now is      262.7 secs

     total energy              =    -704.90507119 Ry
     Harris-Foulkes estimate   =    -704.91091266 Ry
     estimated scf accuracy    <       0.06758864 Ry

     iteration # 25     ecut=    40.00 Ry     beta= 0.60
     Davidson diagonalization with overlap
     ethr =  4.49E-05,  avg # of iterations =  1.4

     total cpu time spent up to now is      269.3 secs

     total energy              =    -704.90482585 Ry
     Harris-Foulkes estimate   =    -704.90667075 Ry
     estimated scf accuracy    <       0.01617139 Ry

     iteration # 26     ecut=    40.00 Ry     beta= 0.60
     Davidson diagonalization with overlap
     ethr =  2.13E-05,  avg # of iterations =  3.7

     total cpu time spent up to now is      278.1 secs

     total energy              =    -704.90648406 Ry
     Harris-Foulkes estimate   =    -704.90664915 Ry
     estimated scf accuracy    <       0.00165026 Ry

     iteration # 27     ecut=    40.00 Ry     beta= 0.60
     Davidson diagonalization with overlap
     ethr =  2.17E-06,  avg # of iterations =  4.6

     total cpu time spent up to now is      287.5 secs

     total energy              =    -704.90658512 Ry
     Harris-Foulkes estimate   =    -704.90659407 Ry
     estimated scf accuracy    <       0.00014312 Ry

     iteration # 28     ecut=    40.00 Ry     beta= 0.60
     Davidson diagonalization with overlap
     ethr =  1.88E-07,  avg # of iterations =  3.9

     total cpu time spent up to now is      296.3 secs

     total energy              =    -704.90659519 Ry
     Harris-Foulkes estimate   =    -704.90659899 Ry
     estimated scf accuracy    <       0.00003561 Ry

     iteration # 29     ecut=    40.00 Ry     beta= 0.60
     Davidson diagonalization with overlap
     ethr =  4.69E-08,  avg # of iterations =  3.1

     total cpu time spent up to now is      304.2 secs

     total energy              =    -704.90659771 Ry
     Harris-Foulkes estimate   =    -704.90659812 Ry
     estimated scf accuracy    <       0.00000365 Ry

     iteration # 30     ecut=    40.00 Ry     beta= 0.60
     Davidson diagonalization with overlap
     ethr =  4.81E-09,  avg # of iterations =  4.6

     total cpu time spent up to now is      314.5 secs

     total energy              =    -704.90659853 Ry
     Harris-Foulkes estimate   =    -704.90659856 Ry
     estimated scf accuracy    <       0.00000039 Ry

     iteration # 31     ecut=    40.00 Ry     beta= 0.60
     Davidson diagonalization with overlap
     ethr =  5.11E-10,  avg # of iterations =  2.5

     total cpu time spent up to now is      321.9 secs

     total energy              =    -704.90659854 Ry
     Harris-Foulkes estimate   =    -704.90659855 Ry
     estimated scf accuracy    <       0.00000009 Ry

     iteration # 32     ecut=    40.00 Ry     beta= 0.60
     Davidson diagonalization with overlap
     ethr =  1.15E-10,  avg # of iterations =  4.0

     total cpu time spent up to now is      331.0 secs

     total energy              =    -704.90659855 Ry
     Harris-Foulkes estimate   =    -704.90659855 Ry
     estimated scf accuracy    <       0.00000019 Ry

     iteration # 33     ecut=    40.00 Ry     beta= 0.60
     Davidson diagonalization with overlap
     ethr =  1.15E-10,  avg # of iterations =  1.0

     total cpu time spent up to now is      337.4 secs

     total energy              =    -704.90659855 Ry
     Harris-Foulkes estimate   =    -704.90659855 Ry
     estimated scf accuracy    <          3.7E-09 Ry

     iteration # 34     ecut=    40.00 Ry     beta= 0.60
     Davidson diagonalization with overlap
     ethr =  4.90E-12,  avg # of iterations =  4.4

     total cpu time spent up to now is      347.6 secs

     total energy              =    -704.90659855 Ry
     Harris-Foulkes estimate   =    -704.90659855 Ry
     estimated scf accuracy    <          1.9E-09 Ry

     iteration # 35     ecut=    40.00 Ry     beta= 0.60
     Davidson diagonalization with overlap
     ethr =  2.53E-12,  avg # of iterations =  1.4

     total cpu time spent up to now is      354.2 secs

     total energy              =    -704.90659855 Ry
     Harris-Foulkes estimate   =    -704.90659855 Ry
     estimated scf accuracy    <          2.3E-10 Ry

     iteration # 36     ecut=    40.00 Ry     beta= 0.60
     Davidson diagonalization with overlap
     ethr =  3.03E-13,  avg # of iterations =  4.3

     total cpu time spent up to now is      364.2 secs

     End of self-consistent calculation

     Number of k-points >= 100: set verbosity='high' to print the bands.

     the Fermi energy is    14.6486 ev

!    total energy              =    -704.90659855 Ry
     Harris-Foulkes estimate   =    -704.90659855 Ry
     estimated scf accuracy    <          7.1E-11 Ry

     The total energy is the sum of the following terms:

     one-electron contribution =    -178.75158163 Ry
     hartree contribution      =     118.08364446 Ry
     xc contribution           =    -102.16508401 Ry
     ewald contribution        =    -542.07112165 Ry
     smearing contrib. (-TS)   =      -0.00245573 Ry

     convergence has been achieved in  36 iterations

     Forces acting on atoms (cartesian axes, Ry/au):

     atom    1 type  2   force =     0.00000000    0.00000000   -0.00276280
     atom    2 type  1   force =     0.00000000   -0.00000000    0.01859632
     atom    3 type  2   force =     0.00000000    0.00000000    0.00276280
     atom    4 type  1   force =    -0.00000000    0.00000000    0.00000000
     atom    5 type  1   force =     0.00000000    0.00000000    0.00000000
     atom    6 type  1   force =     0.00000000   -0.00000000   -0.01859632

     Total force =     0.026588     Total SCF correction =     0.000039


     Computing stress (Cartesian axis) and pressure

          total   stress  (Ry/bohr**3)                   (kbar)     P= -117.05
  -0.00090253   0.00000000   0.00000000       -132.77      0.00      0.00
   0.00000000  -0.00090253  -0.00000000          0.00   -132.77     -0.00
  -0.00000000   0.00000000  -0.00058211         -0.00      0.00    -85.63


     BFGS Geometry Optimization

     number of scf cycles    =   1
     number of bfgs steps    =   0

     enthalpy new            =    -704.9065985527 Ry

     new trust radius        =       0.1283004751 bohr
     new conv_thr            =            1.0E-10 Ry

     new unit-cell volume =    761.03790 a.u.^3 (   112.77418 Ang^3 )
     density =      6.88162 g/cm^3

CELL_PARAMETERS (alat=  1.88972599)
  -1.488149498  -2.577550725   0.000000000
   2.976298996   0.000000000  -0.000000000
   0.000000000  -0.000000000  14.700293257

ATOMIC_POSITIONS (angstrom)
Ti       1.488149498  -2.577550725   4.898657016
Nb       0.000001489  -1.718368009   2.459746414
Ti       1.488149498  -2.577550725   9.801636241
Nb       0.000001489  -1.718368009   7.350146629
Nb       1.488149498  -2.577550725  14.700293257
Nb       0.000001489  -1.718368009  12.240546843


     NEW-OLD atomic charge density approx. for the potential

     Check: negative/imaginary core charge=   -0.000001    0.000000
     extrapolated charge   71.40097, renormalised to   76.00000

     total cpu time spent up to now is      370.1 secs

     Self-consistent Calculation

     iteration #  1     ecut=    40.00 Ry     beta= 0.60
     Davidson diagonalization with overlap
     c_bands:  2 eigenvalues not converged
     c_bands:  1 eigenvalues not converged
     c_bands:  1 eigenvalues not converged
     c_bands:  2 eigenvalues not converged
     c_bands:  2 eigenvalues not converged
     c_bands:  1 eigenvalues not converged
     c_bands:  2 eigenvalues not converged
     c_bands:  2 eigenvalues not converged
     c_bands:  1 eigenvalues not converged
     c_bands:  1 eigenvalues not converged
     c_bands:  1 eigenvalues not converged
     c_bands:  1 eigenvalues not converged
     c_bands:  1 eigenvalues not converged
     c_bands:  1 eigenvalues not converged
     c_bands:  1 eigenvalues not converged
     c_bands:  2 eigenvalues not converged
     c_bands:  1 eigenvalues not converged
     c_bands:  1 eigenvalues not converged
     c_bands:  1 eigenvalues not converged
     c_bands:  1 eigenvalues not converged
     c_bands:  1 eigenvalues not converged
     c_bands:  1 eigenvalues not converged
     c_bands:  1 eigenvalues not converged
     c_bands:  1 eigenvalues not converged
     c_bands:  1 eigenvalues not converged
     c_bands:  1 eigenvalues not converged
     c_bands:  1 eigenvalues not converged
     c_bands:  1 eigenvalues not converged
     c_bands:  2 eigenvalues not converged
     c_bands:  1 eigenvalues not converged
     c_bands:  2 eigenvalues not converged
     c_bands:  1 eigenvalues not converged
     c_bands:  1 eigenvalues not converged
     c_bands:  2 eigenvalues not converged
     c_bands:  1 eigenvalues not converged
     c_bands:  1 eigenvalues not converged
     c_bands:  1 eigenvalues not converged
     c_bands:  2 eigenvalues not converged
     c_bands:  1 eigenvalues not converged
     c_bands:  1 eigenvalues not converged
     c_bands:  1 eigenvalues not converged
     c_bands:  1 eigenvalues not converged
     c_bands:  1 eigenvalues not converged
     c_bands:  1 eigenvalues not converged
     c_bands:  1 eigenvalues not converged
     c_bands:  1 eigenvalues not converged
     c_bands:  1 eigenvalues not converged
     c_bands:  1 eigenvalues not converged
     c_bands:  1 eigenvalues not converged
     c_bands:  1 eigenvalues not converged
     ethr =  1.00E-06,  avg # of iterations = 18.1

     total cpu time spent up to now is      401.3 secs

     total energy              =    -671.32257525 Ry
     Harris-Foulkes estimate   =    -712.59681530 Ry
     estimated scf accuracy    <      40.03663338 Ry

     iteration #  2     ecut=    40.00 Ry     beta= 0.60
     Davidson diagonalization with overlap
     ethr =  1.00E-02,  avg # of iterations = 11.9

     total cpu time spent up to now is      427.7 secs

     total energy              =    -603.08619648 Ry
     Harris-Foulkes estimate   =    -970.01497525 Ry
     estimated scf accuracy    <    3292.68037138 Ry

     iteration #  3     ecut=    40.00 Ry     beta= 0.60
     Davidson diagonalization with overlap
     ethr =  1.00E-02,  avg # of iterations =  8.4

     total cpu time spent up to now is      450.0 secs

     total energy              =    -705.65161934 Ry
     Harris-Foulkes estimate   =    -716.97346008 Ry
     estimated scf accuracy    <     178.20759587 Ry

     iteration #  4     ecut=    40.00 Ry     beta= 0.60
     Davidson diagonalization with overlap
     ethr =  1.00E-02,  avg # of iterations =  4.1

     total cpu time spent up to now is      459.7 secs

     total energy              =    -705.94422446 Ry
     Harris-Foulkes estimate   =    -709.68494358 Ry
     estimated scf accuracy    <      79.54192896 Ry

     iteration #  5     ecut=    40.00 Ry     beta= 0.60
     Davidson diagonalization with overlap
     ethr =  1.00E-02,  avg # of iterations =  2.4

     total cpu time spent up to now is      467.0 secs

     total energy              =    -702.95153711 Ry
     Harris-Foulkes estimate   =    -706.44388807 Ry
     estimated scf accuracy    <      71.26537209 Ry

     iteration #  6     ecut=    40.00 Ry     beta= 0.60
     Davidson diagonalization with overlap
     ethr =  1.00E-02,  avg # of iterations =  4.3

     total cpu time spent up to now is      477.3 secs

     total energy              =    -704.77830953 Ry
     Harris-Foulkes estimate   =    -705.26044392 Ry
     estimated scf accuracy    <       6.89083314 Ry

     iteration #  7     ecut=    40.00 Ry     beta= 0.60
     Davidson diagonalization with overlap
     ethr =  9.07E-03,  avg # of iterations =  1.0

     total cpu time spent up to now is      483.7 secs

     total energy              =    -705.02967309 Ry
     Harris-Foulkes estimate   =    -705.02331612 Ry
     estimated scf accuracy    <       0.68389717 Ry

     iteration #  8     ecut=    40.00 Ry     beta= 0.60
     Davidson diagonalization with overlap
     ethr =  9.00E-04,  avg # of iterations =  4.5

     total cpu time spent up to now is      492.6 secs

     total energy              =    -705.07041592 Ry
     Harris-Foulkes estimate   =    -705.13326908 Ry
     estimated scf accuracy    <       8.39115889 Ry

     iteration #  9     ecut=    40.00 Ry     beta= 0.60
     Davidson diagonalization with overlap
     ethr =  9.00E-04,  avg # of iterations =  1.0

     total cpu time spent up to now is      498.9 secs

     total energy              =    -705.07023168 Ry
     Harris-Foulkes estimate   =    -705.07733586 Ry
     estimated scf accuracy    <       5.64673439 Ry

     iteration # 10     ecut=    40.00 Ry     beta= 0.60
     Davidson diagonalization with overlap
     ethr =  9.00E-04,  avg # of iterations =  1.0

     total cpu time spent up to now is      505.2 secs

     total energy              =    -704.72643636 Ry
     Harris-Foulkes estimate   =    -705.07098844 Ry
     estimated scf accuracy    <       5.50000181 Ry

     iteration # 11     ecut=    40.00 Ry     beta= 0.60
     Davidson diagonalization with overlap
     ethr =  9.00E-04,  avg # of iterations =  3.9

     total cpu time spent up to now is      514.4 secs

     total energy              =    -704.93968864 Ry
     Harris-Foulkes estimate   =    -704.97954525 Ry
     estimated scf accuracy    <       1.59768009 Ry

     iteration # 12     ecut=    40.00 Ry     beta= 0.60
     Davidson diagonalization with overlap
     ethr =  9.00E-04,  avg # of iterations =  1.1

     total cpu time spent up to now is      520.8 secs

     total energy              =    -704.94221909 Ry
     Harris-Foulkes estimate   =    -704.95008735 Ry
     estimated scf accuracy    <       0.40524932 Ry

     iteration # 13     ecut=    40.00 Ry     beta= 0.60
     Davidson diagonalization with overlap
     ethr =  5.33E-04,  avg # of iterations =  1.0

     total cpu time spent up to now is      527.1 secs

     total energy              =    -704.92428996 Ry
     Harris-Foulkes estimate   =    -704.94397721 Ry
     estimated scf accuracy    <       0.26906662 Ry

     iteration # 14     ecut=    40.00 Ry     beta= 0.60
     Davidson diagonalization with overlap
     ethr =  3.54E-04,  avg # of iterations =  1.5

     total cpu time spent up to now is      533.7 secs

     total energy              =    -704.93241461 Ry
     Harris-Foulkes estimate   =    -704.93323711 Ry
     estimated scf accuracy    <       0.00255695 Ry

     iteration # 15     ecut=    40.00 Ry     beta= 0.60
     Davidson diagonalization with overlap
     ethr =  3.36E-06,  avg # of iterations =  6.8

     total cpu time spent up to now is      549.0 secs

     total energy              =    -704.93647365 Ry
     Harris-Foulkes estimate   =    -704.93679284 Ry
     estimated scf accuracy    <       0.02075021 Ry

     iteration # 16     ecut=    40.00 Ry     beta= 0.60
     Davidson diagonalization with overlap
     ethr =  3.36E-06,  avg # of iterations =  1.0

     total cpu time spent up to now is      555.3 secs

     total energy              =    -704.93436145 Ry
     Harris-Foulkes estimate   =    -704.93652001 Ry
     estimated scf accuracy    <       0.02265905 Ry

     iteration # 17     ecut=    40.00 Ry     beta= 0.60
     Davidson diagonalization with overlap
     ethr =  3.36E-06,  avg # of iterations =  4.4

     total cpu time spent up to now is      565.8 secs

     total energy              =    -704.93567292 Ry
     Harris-Foulkes estimate   =    -704.93586394 Ry
     estimated scf accuracy    <       0.00244199 Ry

     iteration # 18     ecut=    40.00 Ry     beta= 0.60
     Davidson diagonalization with overlap
     ethr =  3.21E-06,  avg # of iterations =  1.0

     total cpu time spent up to now is      572.2 secs

     total energy              =    -704.93561866 Ry
     Harris-Foulkes estimate   =    -704.93571460 Ry
     estimated scf accuracy    <       0.00069734 Ry

     iteration # 19     ecut=    40.00 Ry     beta= 0.60
     Davidson diagonalization with overlap
     ethr =  9.18E-07,  avg # of iterations =  3.4

     total cpu time spent up to now is      580.6 secs

     total energy              =    -704.93570021 Ry
     Harris-Foulkes estimate   =    -704.93569989 Ry
     estimated scf accuracy    <       0.00004664 Ry

     iteration # 20     ecut=    40.00 Ry     beta= 0.60
     Davidson diagonalization with overlap
     ethr =  6.14E-08,  avg # of iterations =  2.7

     total cpu time spent up to now is      588.2 secs

     total energy              =    -704.93569444 Ry
     Harris-Foulkes estimate   =    -704.93570268 Ry
     estimated scf accuracy    <       0.00005936 Ry

     iteration # 21     ecut=    40.00 Ry     beta= 0.60
     Davidson diagonalization with overlap
     ethr =  6.14E-08,  avg # of iterations =  1.1

     total cpu time spent up to now is      594.6 secs

     total energy              =    -704.93569588 Ry
     Harris-Foulkes estimate   =    -704.93569660 Ry
     estimated scf accuracy    <       0.00000886 Ry

     iteration # 22     ecut=    40.00 Ry     beta= 0.60
     Davidson diagonalization with overlap
     ethr =  1.17E-08,  avg # of iterations =  4.0

     total cpu time spent up to now is      603.7 secs

     total energy              =    -704.93569668 Ry
     Harris-Foulkes estimate   =    -704.93569686 Ry
     estimated scf accuracy    <       0.00000080 Ry

     iteration # 23     ecut=    40.00 Ry     beta= 0.60
     Davidson diagonalization with overlap
     ethr =  1.06E-09,  avg # of iterations =  4.5

     total cpu time spent up to now is      614.0 secs

     total energy              =    -704.93569679 Ry
     Harris-Foulkes estimate   =    -704.93569696 Ry
     estimated scf accuracy    <       0.00000129 Ry

     iteration # 24     ecut=    40.00 Ry     beta= 0.60
     Davidson diagonalization with overlap
     ethr =  1.06E-09,  avg # of iterations =  1.8

     total cpu time spent up to now is      620.8 secs

     total energy              =    -704.93569683 Ry
     Harris-Foulkes estimate   =    -704.93569684 Ry
     estimated scf accuracy    <       0.00000009 Ry

     iteration # 25     ecut=    40.00 Ry     beta= 0.60
     Davidson diagonalization with overlap
     ethr =  1.23E-10,  avg # of iterations =  4.4

     total cpu time spent up to now is      631.2 secs

     total energy              =    -704.93569686 Ry
     Harris-Foulkes estimate   =    -704.93569687 Ry
     estimated scf accuracy    <       0.00000005 Ry

     iteration # 26     ecut=    40.00 Ry     beta= 0.60
     Davidson diagonalization with overlap
     ethr =  6.22E-11,  avg # of iterations =  1.0

     total cpu time spent up to now is      637.5 secs

     total energy              =    -704.93569686 Ry
     Harris-Foulkes estimate   =    -704.93569686 Ry
     estimated scf accuracy    <       0.00000001 Ry

     iteration # 27     ecut=    40.00 Ry     beta= 0.60
     Davidson diagonalization with overlap
     ethr =  1.81E-11,  avg # of iterations =  2.5

     total cpu time spent up to now is      644.7 secs

     total energy              =    -704.93569686 Ry
     Harris-Foulkes estimate   =    -704.93569686 Ry
     estimated scf accuracy    <          3.7E-09 Ry

     iteration # 28     ecut=    40.00 Ry     beta= 0.60
     Davidson diagonalization with overlap
     ethr =  4.90E-12,  avg # of iterations =  4.2

     total cpu time spent up to now is      654.0 secs

     total energy              =    -704.93569686 Ry
     Harris-Foulkes estimate   =    -704.93569686 Ry
     estimated scf accuracy    <          1.5E-10 Ry

     iteration # 29     ecut=    40.00 Ry     beta= 0.60
     Davidson diagonalization with overlap
     ethr =  1.92E-13,  avg # of iterations =  4.3

     total cpu time spent up to now is      663.7 secs

     End of self-consistent calculation

     Number of k-points >= 100: set verbosity='high' to print the bands.

     the Fermi energy is    15.7217 ev

!    total energy              =    -704.93569686 Ry
     Harris-Foulkes estimate   =    -704.93569686 Ry
     estimated scf accuracy    <          1.4E-11 Ry

     The total energy is the sum of the following terms:

     one-electron contribution =    -162.59587720 Ry
     hartree contribution      =     113.34738750 Ry
     xc contribution           =    -102.49904738 Ry
     ewald contribution        =    -553.18657911 Ry
     smearing contrib. (-TS)   =      -0.00158067 Ry

     convergence has been achieved in  29 iterations

     Forces acting on atoms (cartesian axes, Ry/au):

     atom    1 type  2   force =    -0.00000000    0.00000000   -0.00097833
     atom    2 type  1   force =     0.00000000   -0.00000000    0.02074866
     atom    3 type  2   force =     0.00000000   -0.00000000    0.00097833
     atom    4 type  1   force =     0.00000000   -0.00000000   -0.00000000
     atom    5 type  1   force =    -0.00000000    0.00000000    0.00000000
     atom    6 type  1   force =    -0.00000000   -0.00000000   -0.02074866

     Total force =     0.029376     Total SCF correction =     0.000013


     Computing stress (Cartesian axis) and pressure

          total   stress  (Ry/bohr**3)                   (kbar)     P=  -47.34
  -0.00042799   0.00000000  -0.00000000        -62.96      0.00     -0.00
  -0.00000000  -0.00042799  -0.00000000         -0.00    -62.96     -0.00
  -0.00000000  -0.00000000  -0.00010945         -0.00     -0.00    -16.10


     number of scf cycles    =   2
     number of bfgs steps    =   1

     enthalpy old            =    -704.9065985527 Ry
     enthalpy new            =    -704.9356968641 Ry

     CASE: enthalpy_new < enthalpy_old

     new trust radius        =       0.1075682628 bohr
     new conv_thr            =            1.0E-10 Ry

     new unit-cell volume =    727.69678 a.u.^3 (   107.83354 Ang^3 )
     density =      7.19691 g/cm^3

CELL_PARAMETERS (alat=  1.88972599)
  -1.459136168  -2.527298167   0.000000000
   2.918272335   0.000000000  -0.000000000
  -0.000000000  -0.000000000  14.620817169

ATOMIC_POSITIONS (angstrom)
Ti       1.459136168  -2.527298167   4.871229271
Nb       0.000001460  -1.684866287   2.465297618
Ti       1.459136168  -2.527298167   9.749587897
Nb       0.000001460  -1.684866287   7.310408584
Nb       1.459136168  -2.527298167  14.620817169
Nb       0.000001460  -1.684866287  12.155519550


     NEW-OLD atomic charge density approx. for the potential

     Check: negative/imaginary core charge=   -0.000001    0.000000
     extrapolated charge   72.61002, renormalised to   76.00000

     total cpu time spent up to now is      669.6 secs

     Self-consistent Calculation

     iteration #  1     ecut=    40.00 Ry     beta= 0.60
     Davidson diagonalization with overlap
     c_bands:  1 eigenvalues not converged
     c_bands:  1 eigenvalues not converged
     c_bands:  1 eigenvalues not converged
     c_bands:  1 eigenvalues not converged
     c_bands:  1 eigenvalues not converged
     c_bands:  1 eigenvalues not converged
     c_bands:  1 eigenvalues not converged
     c_bands:  1 eigenvalues not converged
     c_bands:  1 eigenvalues not converged
     c_bands:  1 eigenvalues not converged
     c_bands:  1 eigenvalues not converged
     c_bands:  1 eigenvalues not converged
     c_bands:  1 eigenvalues not converged
     c_bands:  1 eigenvalues not converged
     c_bands:  1 eigenvalues not converged
     c_bands:  1 eigenvalues not converged
     c_bands:  1 eigenvalues not converged
     c_bands:  1 eigenvalues not converged
     c_bands:  1 eigenvalues not converged
     c_bands:  1 eigenvalues not converged
     c_bands:  1 eigenvalues not converged
     c_bands:  1 eigenvalues not converged
     c_bands:  1 eigenvalues not converged
     ethr =  1.00E-06,  avg # of iterations = 14.8

     total cpu time spent up to now is      698.3 secs

     total energy              =    -690.12994112 Ry
     Harris-Foulkes estimate   =    -710.05092482 Ry
     estimated scf accuracy    <      17.64893992 Ry

     iteration #  2     ecut=    40.00 Ry     beta= 0.60
     Davidson diagonalization with overlap
     ethr =  1.00E-02,  avg # of iterations =  9.1

     total cpu time spent up to now is      720.9 secs

     total energy              =    -629.51197596 Ry
     Harris-Foulkes estimate   =    -843.18288488 Ry
     estimated scf accuracy    <    2353.27481360 Ry

     iteration #  3     ecut=    40.00 Ry     beta= 0.60
     Davidson diagonalization with overlap
     ethr =  1.00E-02,  avg # of iterations =  7.2

     total cpu time spent up to now is      739.2 secs

     total energy              =    -704.77614376 Ry
     Harris-Foulkes estimate   =    -708.24224111 Ry
     estimated scf accuracy    <      73.36462399 Ry

     iteration #  4     ecut=    40.00 Ry     beta= 0.60
     Davidson diagonalization with overlap
     ethr =  1.00E-02,  avg # of iterations =  3.4

     total cpu time spent up to now is      747.6 secs

     total energy              =    -704.91751681 Ry
     Harris-Foulkes estimate   =    -705.84336911 Ry
     estimated scf accuracy    <      28.78237107 Ry

     iteration #  5     ecut=    40.00 Ry     beta= 0.60
     Davidson diagonalization with overlap
     ethr =  1.00E-02,  avg # of iterations =  1.6

     total cpu time spent up to now is      754.2 secs

     total energy              =    -704.43591941 Ry
     Harris-Foulkes estimate   =    -705.23384222 Ry
     estimated scf accuracy    <      20.50971279 Ry

     iteration #  6     ecut=    40.00 Ry     beta= 0.60
     Davidson diagonalization with overlap
     ethr =  1.00E-02,  avg # of iterations =  2.2

     total cpu time spent up to now is      761.3 secs

     total energy              =    -704.86809223 Ry
     Harris-Foulkes estimate   =    -704.86213479 Ry
     estimated scf accuracy    <       0.47617903 Ry

     iteration #  7     ecut=    40.00 Ry     beta= 0.60
     Davidson diagonalization with overlap
     ethr =  6.27E-04,  avg # of iterations =  5.6

     total cpu time spent up to now is      772.6 secs

     total energy              =    -704.97593870 Ry
     Harris-Foulkes estimate   =    -704.99691889 Ry
     estimated scf accuracy    <       2.04609939 Ry

     iteration #  8     ecut=    40.00 Ry     beta= 0.60
     Davidson diagonalization with overlap
     ethr =  6.27E-04,  avg # of iterations =  1.0

     total cpu time spent up to now is      779.0 secs

     total energy              =    -704.96542945 Ry
     Harris-Foulkes estimate   =    -704.97948821 Ry
     estimated scf accuracy    <       1.25365233 Ry

     iteration #  9     ecut=    40.00 Ry     beta= 0.60
     Davidson diagonalization with overlap
     ethr =  6.27E-04,  avg # of iterations =  1.0

     total cpu time spent up to now is      785.3 secs

     total energy              =    -704.95198459 Ry
     Harris-Foulkes estimate   =    -704.96961856 Ry
     estimated scf accuracy    <       1.10177586 Ry

     iteration # 10     ecut=    40.00 Ry     beta= 0.60
     Davidson diagonalization with overlap
     ethr =  6.27E-04,  avg # of iterations =  1.0

     total cpu time spent up to now is      791.6 secs

     total energy              =    -704.93239969 Ry
     Harris-Foulkes estimate   =    -704.95517710 Ry
     estimated scf accuracy    <       0.43760051 Ry

     iteration # 11     ecut=    40.00 Ry     beta= 0.60
     Davidson diagonalization with overlap
     ethr =  5.76E-04,  avg # of iterations =  1.1

     total cpu time spent up to now is      797.9 secs

     total energy              =    -704.94032180 Ry
     Harris-Foulkes estimate   =    -704.94331217 Ry
     estimated scf accuracy    <       0.05300451 Ry

     iteration # 12     ecut=    40.00 Ry     beta= 0.60
     Davidson diagonalization with overlap
     ethr =  6.97E-05,  avg # of iterations =  5.8

     total cpu time spent up to now is      808.1 secs

     total energy              =    -704.94250185 Ry
     Harris-Foulkes estimate   =    -704.94341790 Ry
     estimated scf accuracy    <       0.01600901 Ry

     iteration # 13     ecut=    40.00 Ry     beta= 0.60
     Davidson diagonalization with overlap
     ethr =  2.11E-05,  avg # of iterations =  3.9

     total cpu time spent up to now is      816.3 secs

     total energy              =    -704.94226394 Ry
     Harris-Foulkes estimate   =    -704.94302283 Ry
     estimated scf accuracy    <       0.00308781 Ry

     iteration # 14     ecut=    40.00 Ry     beta= 0.60
     Davidson diagonalization with overlap
     ethr =  4.06E-06,  avg # of iterations =  5.5

     total cpu time spent up to now is      827.7 secs

     total energy              =    -704.94278219 Ry
     Harris-Foulkes estimate   =    -704.94336587 Ry
     estimated scf accuracy    <       0.01490703 Ry

     iteration # 15     ecut=    40.00 Ry     beta= 0.60
     Davidson diagonalization with overlap
     ethr =  4.06E-06,  avg # of iterations =  1.4

     total cpu time spent up to now is      834.2 secs

     total energy              =    -704.94284701 Ry
     Harris-Foulkes estimate   =    -704.94296488 Ry
     estimated scf accuracy    <       0.00195458 Ry

     iteration # 16     ecut=    40.00 Ry     beta= 0.60
     Davidson diagonalization with overlap
     ethr =  2.57E-06,  avg # of iterations =  2.5

     total cpu time spent up to now is      841.5 secs

     total energy              =    -704.94292775 Ry
     Harris-Foulkes estimate   =    -704.94293040 Ry
     estimated scf accuracy    <       0.00005371 Ry

     iteration # 17     ecut=    40.00 Ry     beta= 0.60
     Davidson diagonalization with overlap
     ethr =  7.07E-08,  avg # of iterations =  5.2

     total cpu time spent up to now is      852.5 secs

     total energy              =    -704.94294513 Ry
     Harris-Foulkes estimate   =    -704.94294896 Ry
     estimated scf accuracy    <       0.00007776 Ry

     iteration # 18     ecut=    40.00 Ry     beta= 0.60
     Davidson diagonalization with overlap
     ethr =  7.07E-08,  avg # of iterations =  1.0

     total cpu time spent up to now is      858.8 secs

     total energy              =    -704.94293560 Ry
     Harris-Foulkes estimate   =    -704.94294572 Ry
     estimated scf accuracy    <       0.00004031 Ry

     iteration # 19     ecut=    40.00 Ry     beta= 0.60
     Davidson diagonalization with overlap
     ethr =  5.30E-08,  avg # of iterations =  3.3

     total cpu time spent up to now is      867.5 secs

     total energy              =    -704.94294156 Ry
     Harris-Foulkes estimate   =    -704.94294782 Ry
     estimated scf accuracy    <       0.00006011 Ry

     iteration # 20     ecut=    40.00 Ry     beta= 0.60
     Davidson diagonalization with overlap
     ethr =  5.30E-08,  avg # of iterations =  1.2

     total cpu time spent up to now is      873.9 secs

     total energy              =    -704.94294124 Ry
     Harris-Foulkes estimate   =    -704.94294310 Ry
     estimated scf accuracy    <       0.00001237 Ry

     iteration # 21     ecut=    40.00 Ry     beta= 0.60
     Davidson diagonalization with overlap
     ethr =  1.63E-08,  avg # of iterations =  3.5

     total cpu time spent up to now is      882.6 secs

     total energy              =    -704.94294268 Ry
     Harris-Foulkes estimate   =    -704.94294302 Ry
     estimated scf accuracy    <       0.00000118 Ry

     iteration # 22     ecut=    40.00 Ry     beta= 0.60
     Davidson diagonalization with overlap
     ethr =  1.56E-09,  avg # of iterations =  4.0

     total cpu time spent up to now is      892.2 secs

     total energy              =    -704.94294283 Ry
     Harris-Foulkes estimate   =    -704.94294305 Ry
     estimated scf accuracy    <       0.00000152 Ry

     iteration # 23     ecut=    40.00 Ry     beta= 0.60
     Davidson diagonalization with overlap
     ethr =  1.56E-09,  avg # of iterations =  2.5

     total cpu time spent up to now is      899.5 secs

     total energy              =    -704.94294291 Ry
     Harris-Foulkes estimate   =    -704.94294291 Ry
     estimated scf accuracy    <       0.00000005 Ry

     iteration # 24     ecut=    40.00 Ry     beta= 0.60
     Davidson diagonalization with overlap
     ethr =  7.12E-11,  avg # of iterations =  4.2

     total cpu time spent up to now is      909.3 secs

     total energy              =    -704.94294293 Ry
     Harris-Foulkes estimate   =    -704.94294293 Ry
     estimated scf accuracy    <       0.00000001 Ry

     iteration # 25     ecut=    40.00 Ry     beta= 0.60
     Davidson diagonalization with overlap
     ethr =  1.45E-11,  avg # of iterations =  1.7

     total cpu time spent up to now is      916.1 secs

     total energy              =    -704.94294293 Ry
     Harris-Foulkes estimate   =    -704.94294293 Ry
     estimated scf accuracy    <          5.5E-09 Ry

     iteration # 26     ecut=    40.00 Ry     beta= 0.60
     Davidson diagonalization with overlap
     ethr =  7.30E-12,  avg # of iterations =  2.8

     total cpu time spent up to now is      923.6 secs

     End of self-consistent calculation

     Number of k-points >= 100: set verbosity='high' to print the bands.

     the Fermi energy is    16.5545 ev

!    total energy              =    -704.94294293 Ry
     Harris-Foulkes estimate   =    -704.94294293 Ry
     estimated scf accuracy    <          8.2E-11 Ry

     The total energy is the sum of the following terms:

     one-electron contribution =    -150.32127887 Ry
     hartree contribution      =     109.80364499 Ry
     xc contribution           =    -102.76390307 Ry
     ewald contribution        =    -561.66021126 Ry
     smearing contrib. (-TS)   =      -0.00119471 Ry

     convergence has been achieved in  26 iterations

     Forces acting on atoms (cartesian axes, Ry/au):

     atom    1 type  2   force =     0.00000000    0.00000000    0.00334912
     atom    2 type  1   force =    -0.00000000    0.00000000    0.01631457
     atom    3 type  2   force =    -0.00000000    0.00000000   -0.00334912
     atom    4 type  1   force =    -0.00000000    0.00000000    0.00000000
     atom    5 type  1   force =     0.00000000    0.00000000    0.00000000
     atom    6 type  1   force =    -0.00000000   -0.00000000   -0.01631457

     Total force =     0.023553     Total SCF correction =     0.000061


     Computing stress (Cartesian axis) and pressure

          total   stress  (Ry/bohr**3)                   (kbar)     P=   15.32
   0.00002163   0.00000000   0.00000000          3.18      0.00      0.00
  -0.00000000   0.00002163  -0.00000000         -0.00      3.18     -0.00
  -0.00000000  -0.00000000   0.00026921         -0.00     -0.00     39.60


     number of scf cycles    =   3
     number of bfgs steps    =   2

     enthalpy old            =    -704.9356968641 Ry
     enthalpy new            =    -704.9429429268 Ry

     CASE: enthalpy_new < enthalpy_old

     new trust radius        =       0.0283038621 bohr
     new conv_thr            =            1.0E-10 Ry

     new unit-cell volume =    729.78661 a.u.^3 (   108.14322 Ang^3 )
     density =      7.17630 g/cm^3

CELL_PARAMETERS (alat=  1.88972599)
  -1.457411970  -2.524311769   0.000000000
   2.914823940   0.000000000  -0.000000000
  -0.000000000  -0.000000000  14.697520130

ATOMIC_POSITIONS (angstrom)
Ti       1.457411970  -2.524311769   4.898340129
Nb       0.000001458  -1.682875354   2.487318245
Ti       1.457411970  -2.524311769   9.799180000
Nb       0.000001458  -1.682875354   7.348760065
Nb       1.457411970  -2.524311769  14.697520130
Nb       0.000001458  -1.682875354  12.210201885


     NEW-OLD atomic charge density approx. for the potential

     Check: negative/imaginary core charge=   -0.000001    0.000000
     extrapolated charge   76.21188, renormalised to   76.00000

     total cpu time spent up to now is      929.7 secs

     Self-consistent Calculation

     iteration #  1     ecut=    40.00 Ry     beta= 0.60
     Davidson diagonalization with overlap
     c_bands:  1 eigenvalues not converged
     c_bands:  1 eigenvalues not converged
     c_bands:  1 eigenvalues not converged
     c_bands:  1 eigenvalues not converged
     c_bands:  1 eigenvalues not converged
     ethr =  1.00E-06,  avg # of iterations =  8.4

     total cpu time spent up to now is      947.7 secs

     total energy              =    -704.83801815 Ry
     Harris-Foulkes estimate   =    -704.64761128 Ry
     estimated scf accuracy    <       0.12838696 Ry

     iteration #  2     ecut=    40.00 Ry     beta= 0.60
     Davidson diagonalization with overlap
     ethr =  1.69E-04,  avg # of iterations =  7.1

     total cpu time spent up to now is      964.9 secs

     total energy              =    -702.70597472 Ry
     Harris-Foulkes estimate   =    -707.84794765 Ry
     estimated scf accuracy    <     157.88210812 Ry

     iteration #  3     ecut=    40.00 Ry     beta= 0.60
     Davidson diagonalization with overlap
     ethr =  1.69E-04,  avg # of iterations =  6.8

     total cpu time spent up to now is      981.5 secs

     total energy              =    -704.94231972 Ry
     Harris-Foulkes estimate   =    -704.94659290 Ry
     estimated scf accuracy    <       0.03150487 Ry

     iteration #  4     ecut=    40.00 Ry     beta= 0.60
     Davidson diagonalization with overlap
     ethr =  4.15E-05,  avg # of iterations =  2.4

     total cpu time spent up to now is      988.7 secs

     total energy              =    -704.94388441 Ry
     Harris-Foulkes estimate   =    -704.94462894 Ry
     estimated scf accuracy    <       0.00539222 Ry

     iteration #  5     ecut=    40.00 Ry     beta= 0.60
     Davidson diagonalization with overlap
     ethr =  7.10E-06,  avg # of iterations =  4.2

     total cpu time spent up to now is      998.1 secs

     total energy              =    -704.94405616 Ry
     Harris-Foulkes estimate   =    -704.94471441 Ry
     estimated scf accuracy    <       0.00736636 Ry

     iteration #  6     ecut=    40.00 Ry     beta= 0.60
     Davidson diagonalization with overlap
     ethr =  7.10E-06,  avg # of iterations =  1.1

     total cpu time spent up to now is     1004.5 secs

     total energy              =    -704.94435047 Ry
     Harris-Foulkes estimate   =    -704.94440729 Ry
     estimated scf accuracy    <       0.00211639 Ry

     iteration #  7     ecut=    40.00 Ry     beta= 0.60
     Davidson diagonalization with overlap
     ethr =  2.78E-06,  avg # of iterations =  2.0

     total cpu time spent up to now is     1011.5 secs

     total energy              =    -704.94430121 Ry
     Harris-Foulkes estimate   =    -704.94438004 Ry
     estimated scf accuracy    <       0.00098053 Ry

     iteration #  8     ecut=    40.00 Ry     beta= 0.60
     Davidson diagonalization with overlap
     ethr =  1.29E-06,  avg # of iterations =  2.0

     total cpu time spent up to now is     1018.5 secs

     total energy              =    -704.94432615 Ry
     Harris-Foulkes estimate   =    -704.94433610 Ry
     estimated scf accuracy    <       0.00009696 Ry

     iteration #  9     ecut=    40.00 Ry     beta= 0.60
     Davidson diagonalization with overlap
     ethr =  1.28E-07,  avg # of iterations =  4.0

     total cpu time spent up to now is     1027.9 secs

     total energy              =    -704.94433696 Ry
     Harris-Foulkes estimate   =    -704.94433947 Ry
     estimated scf accuracy    <       0.00005172 Ry

     iteration # 10     ecut=    40.00 Ry     beta= 0.60
     Davidson diagonalization with overlap
     ethr =  6.81E-08,  avg # of iterations =  1.1

     total cpu time spent up to now is     1034.3 secs

     total energy              =    -704.94433177 Ry
     Harris-Foulkes estimate   =    -704.94433755 Ry
     estimated scf accuracy    <       0.00002876 Ry

     iteration # 11     ecut=    40.00 Ry     beta= 0.60
     Davidson diagonalization with overlap
     ethr =  3.78E-08,  avg # of iterations =  3.3

     total cpu time spent up to now is     1042.8 secs

     total energy              =    -704.94433517 Ry
     Harris-Foulkes estimate   =    -704.94433642 Ry
     estimated scf accuracy    <       0.00000851 Ry

     iteration # 12     ecut=    40.00 Ry     beta= 0.60
     Davidson diagonalization with overlap
     ethr =  1.12E-08,  avg # of iterations =  1.8

     total cpu time spent up to now is     1049.7 secs

     total energy              =    -704.94433571 Ry
     Harris-Foulkes estimate   =    -704.94433571 Ry
     estimated scf accuracy    <       0.00000030 Ry

     iteration # 13     ecut=    40.00 Ry     beta= 0.60
     Davidson diagonalization with overlap
     ethr =  3.95E-10,  avg # of iterations =  4.9

     total cpu time spent up to now is     1060.8 secs

     total energy              =    -704.94433587 Ry
     Harris-Foulkes estimate   =    -704.94433587 Ry
     estimated scf accuracy    <       0.00000004 Ry

     iteration # 14     ecut=    40.00 Ry     beta= 0.60
     Davidson diagonalization with overlap
     ethr =  5.13E-11,  avg # of iterations =  4.2

     total cpu time spent up to now is     1071.0 secs

     total energy              =    -704.94433585 Ry
     Harris-Foulkes estimate   =    -704.94433589 Ry
     estimated scf accuracy    <       0.00000030 Ry

     iteration # 15     ecut=    40.00 Ry     beta= 0.60
     Davidson diagonalization with overlap
     ethr =  5.13E-11,  avg # of iterations =  4.1

     total cpu time spent up to now is     1081.0 secs

     total energy              =    -704.94433587 Ry
     Harris-Foulkes estimate   =    -704.94433587 Ry
     estimated scf accuracy    <          3.1E-09 Ry

     iteration # 16     ecut=    40.00 Ry     beta= 0.60
     Davidson diagonalization with overlap
     ethr =  4.03E-12,  avg # of iterations =  2.5

     total cpu time spent up to now is     1088.5 secs

     total energy              =    -704.94433587 Ry
     Harris-Foulkes estimate   =    -704.94433587 Ry
     estimated scf accuracy    <          8.1E-10 Ry

     iteration # 17     ecut=    40.00 Ry     beta= 0.60
     Davidson diagonalization with overlap
     ethr =  1.07E-12,  avg # of iterations =  3.1

     total cpu time spent up to now is     1096.7 secs

     total energy              =    -704.94433587 Ry
     Harris-Foulkes estimate   =    -704.94433587 Ry
     estimated scf accuracy    <          2.5E-10 Ry

     iteration # 18     ecut=    40.00 Ry     beta= 0.60
     Davidson diagonalization with overlap
     ethr =  3.25E-13,  avg # of iterations =  2.1

     total cpu time spent up to now is     1103.8 secs

     total energy              =    -704.94433587 Ry
     Harris-Foulkes estimate   =    -704.94433587 Ry
     estimated scf accuracy    <          1.3E-10 Ry

     iteration # 19     ecut=    40.00 Ry     beta= 0.60
     Davidson diagonalization with overlap
     ethr =  1.68E-13,  avg # of iterations =  2.8

     total cpu time spent up to now is     1111.4 secs

     End of self-consistent calculation

     Number of k-points >= 100: set verbosity='high' to print the bands.

     the Fermi energy is    16.4970 ev

!    total energy              =    -704.94433587 Ry
     Harris-Foulkes estimate   =    -704.94433587 Ry
     estimated scf accuracy    <          8.0E-12 Ry

     The total energy is the sum of the following terms:

     one-electron contribution =    -150.99338911 Ry
     hartree contribution      =     109.97158251 Ry
     xc contribution           =    -102.74744243 Ry
     ewald contribution        =    -561.17381261 Ry
     smearing contrib. (-TS)   =      -0.00127423 Ry

     convergence has been achieved in  19 iterations

     Forces acting on atoms (cartesian axes, Ry/au):

     atom    1 type  2   force =     0.00000000   -0.00000000    0.00463540
     atom    2 type  1   force =     0.00000000    0.00000000    0.01236689
     atom    3 type  2   force =    -0.00000000   -0.00000000   -0.00463540
     atom    4 type  1   force =     0.00000000   -0.00000000   -0.00000000
     atom    5 type  1   force =    -0.00000000    0.00000000    0.00000000
     atom    6 type  1   force =    -0.00000000   -0.00000000   -0.01236689

     Total force =     0.018678     Total SCF correction =     0.000011


     Computing stress (Cartesian axis) and pressure

          total   stress  (Ry/bohr**3)                   (kbar)     P=   10.43
   0.00000481  -0.00000000   0.00000000          0.71     -0.00      0.00
  -0.00000000   0.00000481  -0.00000000         -0.00      0.71     -0.00
  -0.00000000   0.00000000   0.00020318         -0.00      0.00     29.89


     number of scf cycles    =   4
     number of bfgs steps    =   3

     enthalpy old            =    -704.9429429268 Ry
     enthalpy new            =    -704.9443358664 Ry

     CASE: enthalpy_new < enthalpy_old

     new trust radius        =       0.0422948277 bohr
     new conv_thr            =            1.0E-10 Ry

     new unit-cell volume =    731.47114 a.u.^3 (   108.39284 Ang^3 )
     density =      7.15978 g/cm^3

CELL_PARAMETERS (alat=  1.88972599)
  -1.453415343  -2.517389409   0.000000000
   2.906830686   0.000000000  -0.000000000
   0.000000000  -0.000000000  14.812574571

ATOMIC_POSITIONS (angstrom)
Ti       1.453415343  -2.517389409   4.941088151
Nb       0.000001454  -1.678260445   2.521273538
Ti       1.453415343  -2.517389409   9.871486420
Nb       0.000001454  -1.678260445   7.406287285
Nb       1.453415343  -2.517389409  14.812574571
Nb       0.000001454  -1.678260445  12.291301033


     NEW-OLD atomic charge density approx. for the potential

     Check: negative/imaginary core charge=   -0.000001    0.000000
     extrapolated charge   76.17039, renormalised to   76.00000

     total cpu time spent up to now is     1117.3 secs

     Self-consistent Calculation

     iteration #  1     ecut=    40.00 Ry     beta= 0.60
     Davidson diagonalization with overlap
     c_bands:  1 eigenvalues not converged
     c_bands:  1 eigenvalues not converged
     c_bands:  1 eigenvalues not converged
     c_bands:  1 eigenvalues not converged
     c_bands:  2 eigenvalues not converged
     c_bands:  1 eigenvalues not converged
     c_bands:  1 eigenvalues not converged
     ethr =  1.00E-06,  avg # of iterations = 10.5

     total cpu time spent up to now is     1137.8 secs

     total energy              =    -704.76178698 Ry
     Harris-Foulkes estimate   =    -704.70810469 Ry
     estimated scf accuracy    <       0.22396895 Ry

     iteration #  2     ecut=    40.00 Ry     beta= 0.60
     Davidson diagonalization with overlap
     ethr =  2.95E-04,  avg # of iterations =  6.8

     total cpu time spent up to now is     1154.5 secs

     total energy              =    -701.99815215 Ry
     Harris-Foulkes estimate   =    -709.71498090 Ry
     estimated scf accuracy    <     204.57435998 Ry

     iteration #  3     ecut=    40.00 Ry     beta= 0.60
     Davidson diagonalization with overlap
     ethr =  2.95E-04,  avg # of iterations =  6.9

     total cpu time spent up to now is     1171.3 secs

     total energy              =    -704.94569654 Ry
     Harris-Foulkes estimate   =    -704.94637310 Ry
     estimated scf accuracy    <       0.03434698 Ry

     iteration #  4     ecut=    40.00 Ry     beta= 0.60
     Davidson diagonalization with overlap
     ethr =  4.52E-05,  avg # of iterations =  2.0

     total cpu time spent up to now is     1178.3 secs

     total energy              =    -704.94563174 Ry
     Harris-Foulkes estimate   =    -704.94617393 Ry
     estimated scf accuracy    <       0.01805404 Ry

     iteration #  5     ecut=    40.00 Ry     beta= 0.60
     Davidson diagonalization with overlap
     ethr =  2.38E-05,  avg # of iterations =  1.2

     total cpu time spent up to now is     1184.7 secs

     total energy              =    -704.94581696 Ry
     Harris-Foulkes estimate   =    -704.94595249 Ry
     estimated scf accuracy    <       0.00553017 Ry

     iteration #  6     ecut=    40.00 Ry     beta= 0.60
     Davidson diagonalization with overlap
     ethr =  7.28E-06,  avg # of iterations =  2.3

     total cpu time spent up to now is     1191.9 secs

     total energy              =    -704.94582567 Ry
     Harris-Foulkes estimate   =    -704.94591210 Ry
     estimated scf accuracy    <       0.00335942 Ry

     iteration #  7     ecut=    40.00 Ry     beta= 0.60
     Davidson diagonalization with overlap
     ethr =  4.42E-06,  avg # of iterations =  1.3

     total cpu time spent up to now is     1198.5 secs

     total energy              =    -704.94580097 Ry
     Harris-Foulkes estimate   =    -704.94585436 Ry
     estimated scf accuracy    <       0.00149853 Ry

     iteration #  8     ecut=    40.00 Ry     beta= 0.60
     Davidson diagonalization with overlap
     ethr =  1.97E-06,  avg # of iterations =  2.5

     total cpu time spent up to now is     1205.7 secs

     total energy              =    -704.94583200 Ry
     Harris-Foulkes estimate   =    -704.94583227 Ry
     estimated scf accuracy    <       0.00000137 Ry

     iteration #  9     ecut=    40.00 Ry     beta= 0.60
     Davidson diagonalization with overlap
     ethr =  1.80E-09,  avg # of iterations =  6.0

     total cpu time spent up to now is     1220.7 secs

     total energy              =    -704.94584512 Ry
     Harris-Foulkes estimate   =    -704.94584552 Ry
     estimated scf accuracy    <       0.00007400 Ry

     iteration # 10     ecut=    40.00 Ry     beta= 0.60
     Davidson diagonalization with overlap
     ethr =  1.80E-09,  avg # of iterations =  1.1

     total cpu time spent up to now is     1227.1 secs

     total energy              =    -704.94584112 Ry
     Harris-Foulkes estimate   =    -704.94584514 Ry
     estimated scf accuracy    <       0.00006566 Ry

     iteration # 11     ecut=    40.00 Ry     beta= 0.60
     Davidson diagonalization with overlap
     ethr =  1.80E-09,  avg # of iterations =  4.2

     total cpu time spent up to now is     1237.7 secs

     total energy              =    -704.94584300 Ry
     Harris-Foulkes estimate   =    -704.94584301 Ry
     estimated scf accuracy    <       0.00000014 Ry

     iteration # 12     ecut=    40.00 Ry     beta= 0.60
     Davidson diagonalization with overlap
     ethr =  1.87E-10,  avg # of iterations =  3.5

     total cpu time spent up to now is     1245.8 secs

     total energy              =    -704.94584298 Ry
     Harris-Foulkes estimate   =    -704.94584301 Ry
     estimated scf accuracy    <       0.00000014 Ry

     iteration # 13     ecut=    40.00 Ry     beta= 0.60
     Davidson diagonalization with overlap
     ethr =  1.84E-10,  avg # of iterations =  3.7

     total cpu time spent up to now is     1254.4 secs

     total energy              =    -704.94584300 Ry
     Harris-Foulkes estimate   =    -704.94584301 Ry
     estimated scf accuracy    <       0.00000013 Ry

     iteration # 14     ecut=    40.00 Ry     beta= 0.60
     Davidson diagonalization with overlap
     ethr =  1.68E-10,  avg # of iterations =  1.0

     total cpu time spent up to now is     1260.7 secs

     total energy              =    -704.94584300 Ry
     Harris-Foulkes estimate   =    -704.94584300 Ry
     estimated scf accuracy    <       0.00000002 Ry

     iteration # 15     ecut=    40.00 Ry     beta= 0.60
     Davidson diagonalization with overlap
     ethr =  2.81E-11,  avg # of iterations =  3.8

     total cpu time spent up to now is     1269.7 secs

     total energy              =    -704.94584300 Ry
     Harris-Foulkes estimate   =    -704.94584300 Ry
     estimated scf accuracy    <          3.8E-09 Ry

     iteration # 16     ecut=    40.00 Ry     beta= 0.60
     Davidson diagonalization with overlap
     ethr =  4.97E-12,  avg # of iterations =  1.6

     total cpu time spent up to now is     1276.4 secs

     total energy              =    -704.94584300 Ry
     Harris-Foulkes estimate   =    -704.94584300 Ry
     estimated scf accuracy    <          2.0E-09 Ry

     iteration # 17     ecut=    40.00 Ry     beta= 0.60
     Davidson diagonalization with overlap
     ethr =  2.57E-12,  avg # of iterations =  2.0

     total cpu time spent up to now is     1283.3 secs

     total energy              =    -704.94584300 Ry
     Harris-Foulkes estimate   =    -704.94584300 Ry
     estimated scf accuracy    <          5.0E-10 Ry

     iteration # 18     ecut=    40.00 Ry     beta= 0.60
     Davidson diagonalization with overlap
     ethr =  6.59E-13,  avg # of iterations =  3.3

     total cpu time spent up to now is     1291.4 secs

     total energy              =    -704.94584300 Ry
     Harris-Foulkes estimate   =    -704.94584300 Ry
     estimated scf accuracy    <          1.0E-10 Ry

     iteration # 19     ecut=    40.00 Ry     beta= 0.60
     Davidson diagonalization with overlap
     ethr =  1.37E-13,  avg # of iterations =  3.9

     total cpu time spent up to now is     1300.4 secs

     End of self-consistent calculation

     Number of k-points >= 100: set verbosity='high' to print the bands.

     the Fermi energy is    16.4482 ev

!    total energy              =    -704.94584300 Ry
     Harris-Foulkes estimate   =    -704.94584300 Ry
     estimated scf accuracy    <          4.8E-12 Ry

     The total energy is the sum of the following terms:

     one-electron contribution =    -151.54347862 Ry
     hartree contribution      =     110.11371541 Ry
     xc contribution           =    -102.73636584 Ry
     ewald contribution        =    -560.77833368 Ry
     smearing contrib. (-TS)   =      -0.00138028 Ry

     convergence has been achieved in  19 iterations

     Forces acting on atoms (cartesian axes, Ry/au):

     atom    1 type  2   force =    -0.00000000    0.00000000    0.00614095
     atom    2 type  1   force =     0.00000000    0.00000000    0.00650648
     atom    3 type  2   force =     0.00000000   -0.00000000   -0.00614095
     atom    4 type  1   force =     0.00000000   -0.00000000   -0.00000000
     atom    5 type  1   force =     0.00000000    0.00000000    0.00000000
     atom    6 type  1   force =    -0.00000000    0.00000000   -0.00650648

     Total force =     0.012653     Total SCF correction =     0.000007


     Computing stress (Cartesian axis) and pressure

          total   stress  (Ry/bohr**3)                   (kbar)     P=    6.35
   0.00000472  -0.00000000   0.00000000          0.69     -0.00      0.00
  -0.00000000   0.00000472  -0.00000000         -0.00      0.69     -0.00
   0.00000000  -0.00000000   0.00012013          0.00     -0.00     17.67


     number of scf cycles    =   5
     number of bfgs steps    =   4

     enthalpy old            =    -704.9443358664 Ry
     enthalpy new            =    -704.9458430039 Ry

     CASE: enthalpy_new < enthalpy_old

     new trust radius        =       0.0630220731 bohr
     new conv_thr            =            1.0E-10 Ry

     new unit-cell volume =    734.42073 a.u.^3 (   108.82992 Ang^3 )
     density =      7.13102 g/cm^3

CELL_PARAMETERS (alat=  1.88972599)
  -1.447932257  -2.507892425   0.000000000
   2.895864513   0.000000000  -0.000000000
   0.000000000  -0.000000000  14.985156233

ATOMIC_POSITIONS (angstrom)
Ti       1.447932257  -2.507892425   5.009606599
Nb       0.000001448  -1.671929119   2.571429189
Ti       1.447932257  -2.507892425   9.975549633
Nb       0.000001448  -1.671929119   7.492578116
Nb       1.447932257  -2.507892425  14.985156233
Nb       0.000001448  -1.671929119  12.413727044


     NEW-OLD atomic charge density approx. for the potential

     Check: negative/imaginary core charge=   -0.000001    0.000000
     extrapolated charge   76.29716, renormalised to   76.00000

     total cpu time spent up to now is     1306.4 secs

     Self-consistent Calculation

     iteration #  1     ecut=    40.00 Ry     beta= 0.60
     Davidson diagonalization with overlap
     c_bands:  2 eigenvalues not converged
     c_bands:  1 eigenvalues not converged
     c_bands:  1 eigenvalues not converged
     c_bands:  1 eigenvalues not converged
     c_bands:  1 eigenvalues not converged
     ethr =  1.00E-06,  avg # of iterations = 12.5

     total cpu time spent up to now is     1330.6 secs

     total energy              =    -704.26181892 Ry
     Harris-Foulkes estimate   =    -704.53528826 Ry
     estimated scf accuracy    <       0.83509629 Ry

     iteration #  2     ecut=    40.00 Ry     beta= 0.60
     Davidson diagonalization with overlap
     ethr =  1.10E-03,  avg # of iterations =  6.9

     total cpu time spent up to now is     1347.5 secs

     total energy              =    -701.08679045 Ry
     Harris-Foulkes estimate   =    -717.75618390 Ry
     estimated scf accuracy    <     272.86200122 Ry

     iteration #  3     ecut=    40.00 Ry     beta= 0.60
     Davidson diagonalization with overlap
     ethr =  1.10E-03,  avg # of iterations =  6.7

     total cpu time spent up to now is     1363.9 secs

     total energy              =    -704.90951453 Ry
     Harris-Foulkes estimate   =    -705.02700983 Ry
     estimated scf accuracy    <       3.24483171 Ry

     iteration #  4     ecut=    40.00 Ry     beta= 0.60
     Davidson diagonalization with overlap
     ethr =  1.10E-03,  avg # of iterations =  1.5

     total cpu time spent up to now is     1370.6 secs

     total energy              =    -704.93433199 Ry
     Harris-Foulkes estimate   =    -704.95184777 Ry
     estimated scf accuracy    <       1.04906010 Ry

     iteration #  5     ecut=    40.00 Ry     beta= 0.60
     Davidson diagonalization with overlap
     ethr =  1.10E-03,  avg # of iterations =  1.1

     total cpu time spent up to now is     1377.0 secs

     total energy              =    -704.94106377 Ry
     Harris-Foulkes estimate   =    -704.94413839 Ry
     estimated scf accuracy    <       0.19969764 Ry

     iteration #  6     ecut=    40.00 Ry     beta= 0.60
     Davidson diagonalization with overlap
     ethr =  2.63E-04,  avg # of iterations =  3.1

     total cpu time spent up to now is     1384.8 secs

     total energy              =    -704.94535266 Ry
     Harris-Foulkes estimate   =    -704.94582401 Ry
     estimated scf accuracy    <       0.04298511 Ry

     iteration #  7     ecut=    40.00 Ry     beta= 0.60
     Davidson diagonalization with overlap
     ethr =  5.66E-05,  avg # of iterations =  5.3

     total cpu time spent up to now is     1394.5 secs

     total energy              =    -704.94672187 Ry
     Harris-Foulkes estimate   =    -704.94701478 Ry
     estimated scf accuracy    <       0.03329401 Ry

     iteration #  8     ecut=    40.00 Ry     beta= 0.60
     Davidson diagonalization with overlap
     ethr =  4.38E-05,  avg # of iterations =  1.2

     total cpu time spent up to now is     1400.9 secs

     total energy              =    -704.94642508 Ry
     Harris-Foulkes estimate   =    -704.94693114 Ry
     estimated scf accuracy    <       0.02033520 Ry

     iteration #  9     ecut=    40.00 Ry     beta= 0.60
     Davidson diagonalization with overlap
     ethr =  2.68E-05,  avg # of iterations =  1.5

     total cpu time spent up to now is     1407.6 secs

     total energy              =    -704.94671258 Ry
     Harris-Foulkes estimate   =    -704.94672323 Ry
     estimated scf accuracy    <       0.00072050 Ry

     iteration # 10     ecut=    40.00 Ry     beta= 0.60
     Davidson diagonalization with overlap
     ethr =  9.48E-07,  avg # of iterations =  7.3

     total cpu time spent up to now is     1420.2 secs

     total energy              =    -704.94679758 Ry
     Harris-Foulkes estimate   =    -704.94680952 Ry
     estimated scf accuracy    <       0.00063903 Ry

     iteration # 11     ecut=    40.00 Ry     beta= 0.60
     Davidson diagonalization with overlap
     ethr =  8.41E-07,  avg # of iterations =  1.0

     total cpu time spent up to now is     1426.5 secs

     total energy              =    -704.94677614 Ry
     Harris-Foulkes estimate   =    -704.94680015 Ry
     estimated scf accuracy    <       0.00049844 Ry

     iteration # 12     ecut=    40.00 Ry     beta= 0.60
     Davidson diagonalization with overlap
     ethr =  6.56E-07,  avg # of iterations =  1.0

     total cpu time spent up to now is     1432.9 secs

     total energy              =    -704.94678428 Ry
     Harris-Foulkes estimate   =    -704.94678557 Ry
     estimated scf accuracy    <       0.00003048 Ry

     iteration # 13     ecut=    40.00 Ry     beta= 0.60
     Davidson diagonalization with overlap
     ethr =  4.01E-08,  avg # of iterations =  3.9

     total cpu time spent up to now is     1441.6 secs

     total energy              =    -704.94678661 Ry
     Harris-Foulkes estimate   =    -704.94678664 Ry
     estimated scf accuracy    <       0.00000391 Ry

     iteration # 14     ecut=    40.00 Ry     beta= 0.60
     Davidson diagonalization with overlap
     ethr =  5.14E-09,  avg # of iterations =  2.8

     total cpu time spent up to now is     1449.4 secs

     total energy              =    -704.94678661 Ry
     Harris-Foulkes estimate   =    -704.94678684 Ry
     estimated scf accuracy    <       0.00000228 Ry

     iteration # 15     ecut=    40.00 Ry     beta= 0.60
     Davidson diagonalization with overlap
     ethr =  3.01E-09,  avg # of iterations =  1.2

     total cpu time spent up to now is     1455.8 secs

     total energy              =    -704.94678672 Ry
     Harris-Foulkes estimate   =    -704.94678672 Ry
     estimated scf accuracy    <       0.00000004 Ry

     iteration # 16     ecut=    40.00 Ry     beta= 0.60
     Davidson diagonalization with overlap
     ethr =  5.91E-11,  avg # of iterations =  5.2

     total cpu time spent up to now is     1467.6 secs

     total energy              =    -704.94678675 Ry
     Harris-Foulkes estimate   =    -704.94678675 Ry
     estimated scf accuracy    <       0.00000004 Ry

     iteration # 17     ecut=    40.00 Ry     beta= 0.60
     Davidson diagonalization with overlap
     ethr =  4.72E-11,  avg # of iterations =  1.0

     total cpu time spent up to now is     1473.9 secs

     total energy              =    -704.94678675 Ry
     Harris-Foulkes estimate   =    -704.94678675 Ry
     estimated scf accuracy    <          3.0E-09 Ry

     iteration # 18     ecut=    40.00 Ry     beta= 0.60
     Davidson diagonalization with overlap
     ethr =  3.89E-12,  avg # of iterations =  4.2

     total cpu time spent up to now is     1483.7 secs

     total energy              =    -704.94678675 Ry
     Harris-Foulkes estimate   =    -704.94678675 Ry
     estimated scf accuracy    <          1.7E-09 Ry

     iteration # 19     ecut=    40.00 Ry     beta= 0.60
     Davidson diagonalization with overlap
     ethr =  2.18E-12,  avg # of iterations =  1.0

     total cpu time spent up to now is     1490.0 secs

     total energy              =    -704.94678675 Ry
     Harris-Foulkes estimate   =    -704.94678675 Ry
     estimated scf accuracy    <          5.0E-10 Ry

     iteration # 20     ecut=    40.00 Ry     beta= 0.60
     Davidson diagonalization with overlap
     ethr =  6.59E-13,  avg # of iterations =  2.9

     total cpu time spent up to now is     1497.8 secs

     End of self-consistent calculation

     Number of k-points >= 100: set verbosity='high' to print the bands.

     the Fermi energy is    16.3641 ev

!    total energy              =    -704.94678675 Ry
     Harris-Foulkes estimate   =    -704.94678675 Ry
     estimated scf accuracy    <          6.0E-12 Ry

     The total energy is the sum of the following terms:

     one-electron contribution =    -152.73893566 Ry
     hartree contribution      =     110.48165598 Ry
     xc contribution           =    -102.71895738 Ry
     ewald contribution        =    -559.96900575 Ry
     smearing contrib. (-TS)   =      -0.00154394 Ry

     convergence has been achieved in  20 iterations

     Forces acting on atoms (cartesian axes, Ry/au):

     atom    1 type  2   force =    -0.00000000    0.00000000    0.00692536
     atom    2 type  1   force =    -0.00000000    0.00000000   -0.00099688
     atom    3 type  2   force =    -0.00000000   -0.00000000   -0.00692536
     atom    4 type  1   force =     0.00000000   -0.00000000   -0.00000000
     atom    5 type  1   force =    -0.00000000    0.00000000    0.00000000
     atom    6 type  1   force =    -0.00000000    0.00000000    0.00099688

     Total force =     0.009895     Total SCF correction =     0.000012


     Computing stress (Cartesian axis) and pressure

          total   stress  (Ry/bohr**3)                   (kbar)     P=   -0.13
   0.00000218   0.00000000   0.00000000          0.32      0.00      0.00
   0.00000000   0.00000218   0.00000000          0.00      0.32      0.00
  -0.00000000  -0.00000000  -0.00000708         -0.00     -0.00     -1.04


     number of scf cycles    =   6
     number of bfgs steps    =   5

     enthalpy old            =    -704.9458430039 Ry
     enthalpy new            =    -704.9467867489 Ry

     CASE: enthalpy_new < enthalpy_old

     new trust radius        =       0.0093145317 bohr
     new conv_thr            =            1.0E-10 Ry

     new unit-cell volume =    734.93937 a.u.^3 (   108.90678 Ang^3 )
     density =      7.12599 g/cm^3

CELL_PARAMETERS (alat=  1.88972599)
  -1.447620633  -2.507352677   0.000000000
   2.895241265   0.000000000  -0.000000000
   0.000000000  -0.000000000  15.002195536

ATOMIC_POSITIONS (angstrom)
Ti       1.447620633  -2.507352677   5.020237559
Nb       0.000001448  -1.671569287   2.575995658
Ti       1.447620633  -2.507352677   9.981957977
[...]
     c_bands:  2 eigenvalues not converged
     c_bands:  2 eigenvalues not converged
     c_bands:  2 eigenvalues not converged
     c_bands:  2 eigenvalues not converged
     c_bands:  3 eigenvalues not converged
     c_bands:  3 eigenvalues not converged
     c_bands:  3 eigenvalues not converged
     c_bands:  4 eigenvalues not converged
     c_bands:  4 eigenvalues not converged
     c_bands:  4 eigenvalues not converged
     c_bands:  5 eigenvalues not converged
     c_bands:  4 eigenvalues not converged
     c_bands:  5 eigenvalues not converged
     c_bands:  5 eigenvalues not converged
     c_bands:  4 eigenvalues not converged
     c_bands:  3 eigenvalues not converged
     c_bands:  3 eigenvalues not converged
     c_bands:  2 eigenvalues not converged
     c_bands:  3 eigenvalues not converged
     c_bands:  2 eigenvalues not converged
     c_bands:  3 eigenvalues not converged
     c_bands:  4 eigenvalues not converged
     c_bands:  3 eigenvalues not converged
     c_bands:  2 eigenvalues not converged
     c_bands:  2 eigenvalues not converged
     c_bands:  2 eigenvalues not converged
     c_bands:  1 eigenvalues not converged
     c_bands:  2 eigenvalues not converged
     c_bands:  2 eigenvalues not converged
     c_bands:  2 eigenvalues not converged
     c_bands:  1 eigenvalues not converged
     c_bands:  2 eigenvalues not converged
     c_bands:  4 eigenvalues not converged
     c_bands:  3 eigenvalues not converged
     c_bands:  4 eigenvalues not converged
     c_bands:  3 eigenvalues not converged
     c_bands:  3 eigenvalues not converged
     c_bands:  4 eigenvalues not converged
     c_bands:  2 eigenvalues not converged
     c_bands:  2 eigenvalues not converged
     c_bands:  2 eigenvalues not converged
     c_bands:  4 eigenvalues not converged
     c_bands:  1 eigenvalues not converged
     c_bands:  1 eigenvalues not converged
     c_bands:  2 eigenvalues not converged
     c_bands:  3 eigenvalues not converged
     c_bands:  1 eigenvalues not converged
     c_bands:  2 eigenvalues not converged
     c_bands:  2 eigenvalues not converged
     c_bands:  1 eigenvalues not converged
     c_bands:  1 eigenvalues not converged
     c_bands:  1 eigenvalues not converged
     c_bands:  1 eigenvalues not converged
     c_bands:  1 eigenvalues not converged
     c_bands:  3 eigenvalues not converged
     c_bands:  2 eigenvalues not converged
     c_bands:  2 eigenvalues not converged
     c_bands:  2 eigenvalues not converged
     c_bands:  1 eigenvalues not converged
     c_bands:  1 eigenvalues not converged
     c_bands:  1 eigenvalues not converged
     c_bands:  1 eigenvalues not converged
     c_bands:  1 eigenvalues not converged
     c_bands:  2 eigenvalues not converged
     c_bands:  1 eigenvalues not converged
     c_bands:  1 eigenvalues not converged
     c_bands:  1 eigenvalues not converged
     c_bands:  2 eigenvalues not converged
     c_bands:  4 eigenvalues not converged
     c_bands:  5 eigenvalues not converged
     c_bands:  3 eigenvalues not converged
     c_bands:  1 eigenvalues not converged
     c_bands:  1 eigenvalues not converged
     c_bands:  1 eigenvalues not converged
     c_bands:  3 eigenvalues not converged
     c_bands:  5 eigenvalues not converged
     c_bands:  2 eigenvalues not converged
     c_bands:  5 eigenvalues not converged
     c_bands:  1 eigenvalues not converged
     c_bands:  2 eigenvalues not converged
     c_bands:  4 eigenvalues not converged
     c_bands:  5 eigenvalues not converged
     c_bands:  5 eigenvalues not converged
     c_bands:  5 eigenvalues not converged
     c_bands:  4 eigenvalues not converged
     c_bands:  4 eigenvalues not converged
     c_bands:  3 eigenvalues not converged
     c_bands:  4 eigenvalues not converged
     ethr =  1.00E-02,  avg # of iterations = 20.2

     total cpu time spent up to now is     3322.2 secs

     total energy              =    -609.36253651 Ry
     Harris-Foulkes estimate   =   -1928.99231144 Ry
     estimated scf accuracy    <    5887.51497587 Ry

     iteration #  3     ecut=    40.00 Ry     beta= 0.60
     Davidson diagonalization with overlap
     ethr =  1.00E-02,  avg # of iterations =  8.7

     total cpu time spent up to now is     3346.6 secs

     total energy              =    -682.16892255 Ry
     Harris-Foulkes estimate   =    -899.03065603 Ry
     estimated scf accuracy    <    1861.21794475 Ry

     iteration #  4     ecut=    40.00 Ry     beta= 0.60
     Davidson diagonalization with overlap
     ethr =  1.00E-02,  avg # of iterations =  8.1

     total cpu time spent up to now is     3366.6 secs

     total energy              =    -697.95616761 Ry
     Harris-Foulkes estimate   =    -735.27330925 Ry
     estimated scf accuracy    <     433.26236304 Ry

     iteration #  5     ecut=    40.00 Ry     beta= 0.60
     Davidson diagonalization with overlap
     ethr =  1.00E-02,  avg # of iterations =  8.8

     total cpu time spent up to now is     3382.6 secs

     total energy              =    -707.26231915 Ry
     Harris-Foulkes estimate   =    -708.49975706 Ry
     estimated scf accuracy    <      57.63689399 Ry

     iteration #  6     ecut=    40.00 Ry     beta= 0.60
     Davidson diagonalization with overlap
     ethr =  1.00E-02,  avg # of iterations =  1.1

     total cpu time spent up to now is     3388.9 secs

     total energy              =    -708.98097661 Ry
     Harris-Foulkes estimate   =    -707.45934260 Ry
     estimated scf accuracy    <      81.62243733 Ry

     iteration #  7     ecut=    40.00 Ry     beta= 0.60
     Davidson diagonalization with overlap
     ethr =  1.00E-02,  avg # of iterations =  1.0

     total cpu time spent up to now is     3395.2 secs

     total energy              =    -700.49521150 Ry
     Harris-Foulkes estimate   =    -709.33097559 Ry
     estimated scf accuracy    <     161.69379622 Ry

     iteration #  8     ecut=    40.00 Ry     beta= 0.60
     Davidson diagonalization with overlap
     ethr =  1.00E-02,  avg # of iterations =  5.9

     total cpu time spent up to now is     3407.0 secs

     total energy              =    -704.97902843 Ry
     Harris-Foulkes estimate   =    -705.89733690 Ry
     estimated scf accuracy    <      37.07227667 Ry

     iteration #  9     ecut=    40.00 Ry     beta= 0.60
     Davidson diagonalization with overlap
     ethr =  1.00E-02,  avg # of iterations =  1.0

     total cpu time spent up to now is     3413.3 secs

     total energy              =    -705.35123309 Ry
     Harris-Foulkes estimate   =    -705.41725456 Ry
     estimated scf accuracy    <       4.78856213 Ry

     iteration # 10     ecut=    40.00 Ry     beta= 0.60
     Davidson diagonalization with overlap
     ethr =  6.30E-03,  avg # of iterations =  1.0

     total cpu time spent up to now is     3419.5 secs

     total energy              =    -705.18695892 Ry
     Harris-Foulkes estimate   =    -705.37422456 Ry
     estimated scf accuracy    <       6.29513643 Ry

     iteration # 11     ecut=    40.00 Ry     beta= 0.60
     Davidson diagonalization with overlap
     ethr =  6.30E-03,  avg # of iterations =  5.7

     total cpu time spent up to now is     3432.9 secs

     total energy              =    -701.40089057 Ry
     Harris-Foulkes estimate   =    -715.94077589 Ry
     estimated scf accuracy    <     279.68006132 Ry

     iteration # 12     ecut=    40.00 Ry     beta= 0.60
     Davidson diagonalization with overlap
     ethr =  6.30E-03,  avg # of iterations =  5.5

     total cpu time spent up to now is     3445.1 secs

     total energy              =    -704.61917138 Ry
     Harris-Foulkes estimate   =    -705.13780821 Ry
     estimated scf accuracy    <       4.45756759 Ry

     iteration # 13     ecut=    40.00 Ry     beta= 0.60
     Davidson diagonalization with overlap
     ethr =  5.87E-03,  avg # of iterations =  1.7

     total cpu time spent up to now is     3451.8 secs

     total energy              =    -704.72922530 Ry
     Harris-Foulkes estimate   =    -705.05965074 Ry
     estimated scf accuracy    <       6.08835507 Ry

     iteration # 14     ecut=    40.00 Ry     beta= 0.60
     Davidson diagonalization with overlap
     ethr =  5.87E-03,  avg # of iterations =  1.0

     total cpu time spent up to now is     3458.0 secs

     total energy              =    -704.92856611 Ry
     Harris-Foulkes estimate   =    -704.99849569 Ry
     estimated scf accuracy    <       2.95032128 Ry

     iteration # 15     ecut=    40.00 Ry     beta= 0.60
     Davidson diagonalization with overlap
     ethr =  3.88E-03,  avg # of iterations =  1.0

     total cpu time spent up to now is     3464.2 secs

     total energy              =    -704.95611718 Ry
     Harris-Foulkes estimate   =    -704.95358554 Ry
     estimated scf accuracy    <       0.40004665 Ry

     iteration # 16     ecut=    40.00 Ry     beta= 0.60
     Davidson diagonalization with overlap
     ethr =  5.26E-04,  avg # of iterations =  2.1

     total cpu time spent up to now is     3471.2 secs

     total energy              =    -704.92064851 Ry
     Harris-Foulkes estimate   =    -704.96020785 Ry
     estimated scf accuracy    <       0.50674741 Ry

     iteration # 17     ecut=    40.00 Ry     beta= 0.60
     Davidson diagonalization with overlap
     ethr =  5.26E-04,  avg # of iterations =  1.6

     total cpu time spent up to now is     3477.8 secs

     total energy              =    -704.94100725 Ry
     Harris-Foulkes estimate   =    -704.94285613 Ry
     estimated scf accuracy    <       0.06577587 Ry

     iteration # 18     ecut=    40.00 Ry     beta= 0.60
     Davidson diagonalization with overlap
     ethr =  8.65E-05,  avg # of iterations =  6.3

     total cpu time spent up to now is     3489.3 secs

     total energy              =    -704.94026413 Ry
     Harris-Foulkes estimate   =    -704.94930572 Ry
     estimated scf accuracy    <       0.05475593 Ry

     iteration # 19     ecut=    40.00 Ry     beta= 0.60
     Davidson diagonalization with overlap
     ethr =  7.20E-05,  avg # of iterations =  1.3

     total cpu time spent up to now is     3495.7 secs

     total energy              =    -704.94377074 Ry
     Harris-Foulkes estimate   =    -704.94403911 Ry
     estimated scf accuracy    <       0.01026213 Ry

     iteration # 20     ecut=    40.00 Ry     beta= 0.60
     Davidson diagonalization with overlap
     ethr =  1.35E-05,  avg # of iterations =  5.6

     total cpu time spent up to now is     3506.8 secs

     total energy              =    -704.94497595 Ry
     Harris-Foulkes estimate   =    -704.94556759 Ry
     estimated scf accuracy    <       0.02096288 Ry

     iteration # 21     ecut=    40.00 Ry     beta= 0.60
     Davidson diagonalization with overlap
     ethr =  1.35E-05,  avg # of iterations =  1.0

     total cpu time spent up to now is     3513.0 secs

     total energy              =    -704.94455723 Ry
     Harris-Foulkes estimate   =    -704.94514360 Ry
     estimated scf accuracy    <       0.00536237 Ry

     iteration # 22     ecut=    40.00 Ry     beta= 0.60
     Davidson diagonalization with overlap
     ethr =  7.06E-06,  avg # of iterations =  1.1

     total cpu time spent up to now is     3519.2 secs

     total energy              =    -704.94476531 Ry
     Harris-Foulkes estimate   =    -704.94477613 Ry
     estimated scf accuracy    <       0.00023839 Ry

     iteration # 23     ecut=    40.00 Ry     beta= 0.60
     Davidson diagonalization with overlap
     ethr =  3.14E-07,  avg # of iterations =  5.4

     total cpu time spent up to now is     3530.7 secs

     total energy              =    -704.94486795 Ry
     Harris-Foulkes estimate   =    -704.94486835 Ry
     estimated scf accuracy    <       0.00001645 Ry

     iteration # 24     ecut=    40.00 Ry     beta= 0.60
     Davidson diagonalization with overlap
     ethr =  2.16E-08,  avg # of iterations =  1.9

     total cpu time spent up to now is     3537.5 secs

     total energy              =    -704.94486646 Ry
     Harris-Foulkes estimate   =    -704.94486842 Ry
     estimated scf accuracy    <       0.00001651 Ry

     iteration # 25     ecut=    40.00 Ry     beta= 0.60
     Davidson diagonalization with overlap
     ethr =  2.16E-08,  avg # of iterations =  1.1

     total cpu time spent up to now is     3543.8 secs

     total energy              =    -704.94486697 Ry
     Harris-Foulkes estimate   =    -704.94486713 Ry
     estimated scf accuracy    <       0.00000118 Ry

     iteration # 26     ecut=    40.00 Ry     beta= 0.60
     Davidson diagonalization with overlap
     ethr =  1.55E-09,  avg # of iterations =  4.5

     total cpu time spent up to now is     3553.9 secs

     total energy              =    -704.94486731 Ry
     Harris-Foulkes estimate   =    -704.94486734 Ry
     estimated scf accuracy    <       0.00000057 Ry

     iteration # 27     ecut=    40.00 Ry     beta= 0.60
     Davidson diagonalization with overlap
     ethr =  7.44E-10,  avg # of iterations =  1.1

     total cpu time spent up to now is     3560.2 secs

     total energy              =    -704.94486729 Ry
     Harris-Foulkes estimate   =    -704.94486732 Ry
     estimated scf accuracy    <       0.00000036 Ry

     iteration # 28     ecut=    40.00 Ry     beta= 0.60
     Davidson diagonalization with overlap
     ethr =  4.76E-10,  avg # of iterations =  1.4

     total cpu time spent up to now is     3566.6 secs

     total energy              =    -704.94486729 Ry
     Harris-Foulkes estimate   =    -704.94486730 Ry
     estimated scf accuracy    <       0.00000005 Ry

     iteration # 29     ecut=    40.00 Ry     beta= 0.60
     Davidson diagonalization with overlap
     ethr =  6.86E-11,  avg # of iterations =  3.9

     total cpu time spent up to now is     3575.2 secs

     total energy              =    -704.94486730 Ry
     Harris-Foulkes estimate   =    -704.94486730 Ry
     estimated scf accuracy    <          3.2E-09 Ry

     iteration # 30     ecut=    40.00 Ry     beta= 0.60
     Davidson diagonalization with overlap
     ethr =  4.26E-12,  avg # of iterations =  4.4

     total cpu time spent up to now is     3585.2 secs

     total energy              =    -704.94486730 Ry
     Harris-Foulkes estimate   =    -704.94486730 Ry
     estimated scf accuracy    <          7.4E-10 Ry

     iteration # 31     ecut=    40.00 Ry     beta= 0.60
     Davidson diagonalization with overlap
     ethr =  9.69E-13,  avg # of iterations =  1.5

     total cpu time spent up to now is     3591.7 secs

     total energy              =    -704.94486730 Ry
     Harris-Foulkes estimate   =    -704.94486730 Ry
     estimated scf accuracy    <          4.2E-10 Ry

     iteration # 32     ecut=    40.00 Ry     beta= 0.60
     Davidson diagonalization with overlap
     ethr =  5.47E-13,  avg # of iterations =  2.3

     total cpu time spent up to now is     3598.9 secs

     total energy              =    -704.94486730 Ry
     Harris-Foulkes estimate   =    -704.94486730 Ry
     estimated scf accuracy    <          3.9E-12 Ry

     iteration # 33     ecut=    40.00 Ry     beta= 0.60
     Davidson diagonalization with overlap
     ethr =  1.00E-13,  avg # of iterations =  3.0

     total cpu time spent up to now is     3606.7 secs

     total energy              =    -704.94486730 Ry
     Harris-Foulkes estimate   =    -704.94486730 Ry
     estimated scf accuracy    <          3.0E-12 Ry

     iteration # 34     ecut=    40.00 Ry     beta= 0.60
     Davidson diagonalization with overlap
     ethr =  1.00E-13,  avg # of iterations =  1.0

     total cpu time spent up to now is     3612.9 secs

     End of self-consistent calculation

     Number of k-points >= 100: set verbosity='high' to print the bands.

     the Fermi energy is    16.3737 ev

!    total energy              =    -704.94486730 Ry
     Harris-Foulkes estimate   =    -704.94486730 Ry
     estimated scf accuracy    <          5.8E-13 Ry

     The total energy is the sum of the following terms:

     one-electron contribution =    -152.65063596 Ry
     hartree contribution      =     110.46393186 Ry
     xc contribution           =    -102.71824632 Ry
     ewald contribution        =    -560.03850430 Ry
     smearing contrib. (-TS)   =      -0.00141258 Ry

     convergence has been achieved in  34 iterations

     Forces acting on atoms (cartesian axes, Ry/au):

     atom    1 type  2   force =    -0.00000000    0.00000000    0.00001906
     atom    2 type  1   force =    -0.00000000   -0.00000000   -0.00003114
     atom    3 type  2   force =    -0.00000000    0.00000000   -0.00001906
     atom    4 type  1   force =    -0.00000000    0.00000000   -0.00000000
     atom    5 type  1   force =    -0.00000000    0.00000000   -0.00000000
     atom    6 type  1   force =     0.00000000   -0.00000000    0.00003114

     Total force =     0.000052     Total SCF correction =     0.000001


     Computing stress (Cartesian axis) and pressure

          total   stress  (Ry/bohr**3)                   (kbar)     P=   -1.20
  -0.00001072  -0.00000000  -0.00000000         -1.58     -0.00     -0.00
  -0.00000000  -0.00001072   0.00000000         -0.00     -1.58      0.00
  -0.00000000   0.00000000  -0.00000303         -0.00      0.00     -0.45

 
     init_run     :      8.97s CPU      9.30s WALL (       2 calls)
     electrons    :   3399.22s CPU   3496.34s WALL (      19 calls)
     update_pot   :     15.76s CPU     15.84s WALL (      17 calls)
     forces       :     26.06s CPU     27.17s WALL (      19 calls)
     stress       :     61.56s CPU     64.68s WALL (      19 calls)

     Called by init_run:
     wfcinit      :      6.91s CPU      7.10s WALL (       2 calls)
     potinit      :      0.41s CPU      0.42s WALL (       2 calls)
     hinit0       :      0.84s CPU      0.86s WALL (       2 calls)

     Called by electrons:
     c_bands      :   2972.32s CPU   3024.36s WALL (     363 calls)
     sum_band     :    383.58s CPU    409.59s WALL (     363 calls)
     v_of_rho     :      8.95s CPU      9.01s WALL (     379 calls)
     newd         :     34.65s CPU     54.37s WALL (     379 calls)
     mix_rho      :      1.17s CPU      1.18s WALL (     363 calls)

     Called by c_bands:
     init_us_2    :     35.04s CPU     35.42s WALL (   91920 calls)
     cegterg      :   2740.68s CPU   2790.06s WALL (   43572 calls)

     Called by sum_band:
     sum_band:bec :      1.76s CPU      1.78s WALL (   43560 calls)
     addusdens    :     44.30s CPU     61.47s WALL (     363 calls)

     Called by *egterg:
     h_psi        :   1469.46s CPU   1514.48s WALL (  194298 calls)
     s_psi        :     86.65s CPU     86.54s WALL (  194298 calls)
     g_psi        :     15.18s CPU     15.03s WALL (  150486 calls)
     cdiaghg      :    825.87s CPU    826.63s WALL (  191658 calls)

     Called by h_psi:
     h_psi:pot    :   1464.46s CPU   1509.13s WALL (  194298 calls)
     h_psi:calbec :    103.52s CPU    104.56s WALL (  194298 calls)
     vloc_psi     :   1273.61s CPU   1316.63s WALL (  194298 calls)
     add_vuspsi   :     86.56s CPU     86.91s WALL (  194298 calls)

     General routines
     calbec       :    150.57s CPU    151.86s WALL (  249258 calls)
     fft          :      5.59s CPU      5.65s WALL (    5403 calls)
     ffts         :      0.16s CPU      0.16s WALL (     742 calls)
     fftw         :   1355.76s CPU   1400.84s WALL (12530514 calls)
     interpolate  :      0.46s CPU      0.46s WALL (     379 calls)
 
     Parallel routines
     fft_scatt_xy :    248.77s CPU    256.02s WALL (12536659 calls)
     fft_scatt_yz :    393.11s CPU    398.85s WALL (12536659 calls)
 
     PWSCF        : 58m33.62s CPU       58h 1m WALL

       0h
 
   This run was terminated on:  12:24:19  22Feb2020            

=------------------------------------------------------------------------------=
   JOB DONE.
=------------------------------------------------------------------------------=
