
     Program PWSCF v.6.3MaX starts on 13Jan2020 at 19:20:20 

     This program is part of the open-source Quantum ESPRESSO suite
     for quantum simulation of materials; please cite
         "P. Giannozzi et al., J. Phys.:Condens. Matter 21 395502 (2009);
         "P. Giannozzi et al., J. Phys.:Condens. Matter 29 465901 (2017);
          URL http://www.quantum-espresso.org", 
     in publications or presentations arising from this work. More details at
     http://www.quantum-espresso.org/quote

     Parallel version (MPI), running on     1 processors

     MPI processes distributed on     1 nodes
     Waiting for input...
     Reading input from standard input

     Current dimensions of program PWSCF are:
     Max number of different atomic species (ntypx) = 10
     Max number of k-points (npk) =  40000
     Max angular momentum in pseudopotentials (lmaxx) =  3
     Message from routine iosys:
     minimal I/O required, wf_collect reset to FALSE

     Subspace diagonalization in iterative solution of the eigenvalue problem:
     a serial algorithm will be used

 
     G-vector sticks info
     --------------------
     sticks:   dense  smooth     PW     G-vecs:    dense   smooth      PW
     Sum        3049    1213    367                83129    21025    3477
 


     bravais-lattice index     =            0
     lattice parameter (alat)  =       1.8897  a.u.
     unit-cell volume          =     440.0051 (a.u.)^3
     number of atoms/cell      =            3
     number of atomic types    =            2
     number of electrons       =        38.00
     number of Kohn-Sham states=           23
     kinetic-energy cutoff     =      50.0000  Ry
     charge density cutoff     =     500.0000  Ry
     convergence threshold     =      1.0E-10
     mixing beta               =       0.6000
     number of iterations used =            8  plain     mixing
     Exchange-correlation      = SLA PW PBE PBE ( 1  4  3  4 0 0)
     nstep                     =           50


     celldm(1)=   1.889726  celldm(2)=   0.000000  celldm(3)=   0.000000
     celldm(4)=   0.000000  celldm(5)=   0.000000  celldm(6)=   0.000000

     crystal axes: (cart. coord. in units of alat)
               a(1) = (   0.000000  -3.516063  -3.516063 )  
               a(2) = (  -3.516063   3.516063   0.000000 )  
               a(3) = (   1.758031   1.758031  -1.758031 )  

     reciprocal axes: (cart. coord. in units 2 pi/alat)
               b(1) = ( -0.094803 -0.094803 -0.189606 )  
               b(2) = ( -0.189606  0.094803 -0.094803 )  
               b(3) = (  0.189606  0.189606 -0.189606 )  


     PseudoPot. # 1 for Nb read from file:
     /home/u16/abhishekkt/fp/krishna/calculations/pseudopotentials/Nb.pbe-nsp-van.UPF
     MD5 check sum: c44c1a86bf31974e1e832c2ec821fd5f
     Pseudo is Ultrasoft + core correction, Zval = 13.0
     Generated by new atomic code, or converted to UPF format
     Using radial grid of  887 points,  6 beta functions with: 
                l(1) =   0
                l(2) =   0
                l(3) =   1
                l(4) =   1
                l(5) =   2
                l(6) =   2
     Q(r) pseudized with  6 coefficients,  rinner =    1.000   1.000   1.000
                                                       1.000   1.000

     PseudoPot. # 2 for Ti read from file:
     /home/u16/abhishekkt/fp/krishna/calculations/pseudopotentials/Ti.pbe-sp-van_ak.UPF
     MD5 check sum: 84d3ec9e8983e94242673103c800fb48
     Pseudo is Ultrasoft, Zval = 12.0
     Generated by new atomic code, or converted to UPF format
     Using radial grid of  851 points,  6 beta functions with: 
                l(1) =   0
                l(2) =   0
                l(3) =   1
                l(4) =   1
                l(5) =   2
                l(6) =   2
     Q(r) pseudized with  8 coefficients,  rinner =    1.000   1.000   1.000
                                                       1.000   1.000

     atomic species   valence    mass     pseudopotential
        Nb            13.00    92.90638     Nb( 1.00)
        Ti            12.00    47.86700     Ti( 1.00)

     12 Sym. Ops., with inversion, found



   Cartesian axes

     site n.     atom                  positions (alat units)
         1           Ti  tau(   1) = (  -1.7580316   1.7580316  -5.2740949  )
         2           Nb  tau(   2) = (   0.0000000   0.0000000  -3.5160633  )
         3           Nb  tau(   3) = (  -1.7580316   1.7580316  -1.7580316  )

     number of k points=   298  Marzari-Vanderbilt smearing, width (Ry)=  0.0200

     Number of k-points >= 100: set verbosity='high' to print them.

     Dense  grid:    83129 G-vectors     FFT dimensions: (  72,  72,  45)

     Smooth grid:    21025 G-vectors     FFT dimensions: (  45,  45,  25)

     Estimated max dynamical RAM per process >     587.60 MB

     Initial potential from superposition of free atoms

     starting charge   36.99449, renormalised to   38.00000
     Starting wfcs are   36 randomized atomic wfcs

     total cpu time spent up to now is       22.1 secs

     Self-consistent Calculation

     iteration #  1     ecut=    50.00 Ry     beta= 0.60
     Davidson diagonalization with overlap
     ethr =  1.00E-02,  avg # of iterations =  2.5

     total cpu time spent up to now is       59.1 secs

     total energy              =    -338.75545068 Ry
     Harris-Foulkes estimate   =    -353.91750488 Ry
     estimated scf accuracy    <      19.07259294 Ry

     iteration #  2     ecut=    50.00 Ry     beta= 0.60
     Davidson diagonalization with overlap
     ethr =  1.00E-02,  avg # of iterations =  7.3

     total cpu time spent up to now is      123.8 secs

     total energy              =    -341.14720240 Ry
     Harris-Foulkes estimate   =    -372.85755500 Ry
     estimated scf accuracy    <     100.86057864 Ry

     iteration #  3     ecut=    50.00 Ry     beta= 0.60
     Davidson diagonalization with overlap
     ethr =  1.00E-02,  avg # of iterations =  4.9

     total cpu time spent up to now is      173.4 secs

     total energy              =    -353.57694834 Ry
     Harris-Foulkes estimate   =    -354.01831171 Ry
     estimated scf accuracy    <       5.21654027 Ry

     iteration #  4     ecut=    50.00 Ry     beta= 0.60
     Davidson diagonalization with overlap
     ethr =  1.00E-02,  avg # of iterations =  1.0

     total cpu time spent up to now is      205.6 secs

     total energy              =    -352.36092160 Ry
     Harris-Foulkes estimate   =    -353.59015757 Ry
     estimated scf accuracy    <       4.39911687 Ry

     iteration #  5     ecut=    50.00 Ry     beta= 0.60
     Davidson diagonalization with overlap
     ethr =  1.00E-02,  avg # of iterations =  2.1

     total cpu time spent up to now is      237.8 secs

     total energy              =    -352.64502396 Ry
     Harris-Foulkes estimate   =    -352.51042276 Ry
     estimated scf accuracy    <       1.42322178 Ry

     iteration #  6     ecut=    50.00 Ry     beta= 0.60
     Davidson diagonalization with overlap
     ethr =  3.75E-03,  avg # of iterations =  1.2

     total cpu time spent up to now is      268.8 secs

     total energy              =    -352.42750643 Ry
     Harris-Foulkes estimate   =    -352.67397552 Ry
     estimated scf accuracy    <       1.76027660 Ry

     iteration #  7     ecut=    50.00 Ry     beta= 0.60
     Davidson diagonalization with overlap
     ethr =  3.75E-03,  avg # of iterations =  1.2

     total cpu time spent up to now is      299.7 secs

     total energy              =    -352.11953560 Ry
     Harris-Foulkes estimate   =    -352.46084975 Ry
     estimated scf accuracy    <       0.94401429 Ry

     iteration #  8     ecut=    50.00 Ry     beta= 0.60
     Davidson diagonalization with overlap
     ethr =  2.48E-03,  avg # of iterations =  4.1

     total cpu time spent up to now is      345.8 secs

     total energy              =    -352.37282675 Ry
     Harris-Foulkes estimate   =    -352.90766940 Ry
     estimated scf accuracy    <       9.89014709 Ry

     iteration #  9     ecut=    50.00 Ry     beta= 0.60
     Davidson diagonalization with overlap
     ethr =  2.48E-03,  avg # of iterations =  1.1

     total cpu time spent up to now is      376.6 secs

     total energy              =    -352.46788373 Ry
     Harris-Foulkes estimate   =    -352.49637464 Ry
     estimated scf accuracy    <       2.53481504 Ry

     iteration # 10     ecut=    50.00 Ry     beta= 0.60
     Davidson diagonalization with overlap
     ethr =  2.48E-03,  avg # of iterations =  1.4

     total cpu time spent up to now is      409.1 secs

     total energy              =    -352.66740786 Ry
     Harris-Foulkes estimate   =    -352.48411149 Ry
     estimated scf accuracy    <       1.78812817 Ry

     iteration # 11     ecut=    50.00 Ry     beta= 0.60
     Davidson diagonalization with overlap
     ethr =  2.48E-03,  avg # of iterations =  1.0

     total cpu time spent up to now is      439.9 secs

     total energy              =    -352.94764979 Ry
     Harris-Foulkes estimate   =    -352.75239793 Ry
     estimated scf accuracy    <       6.35818205 Ry

     iteration # 12     ecut=    50.00 Ry     beta= 0.60
     Davidson diagonalization with overlap
     ethr =  2.48E-03,  avg # of iterations =  1.4

     total cpu time spent up to now is      475.9 secs

     total energy              =    -352.12563084 Ry
     Harris-Foulkes estimate   =    -352.98461728 Ry
     estimated scf accuracy    <      11.16972475 Ry

     iteration # 13     ecut=    50.00 Ry     beta= 0.60
     Davidson diagonalization with overlap
     ethr =  2.48E-03,  avg # of iterations =  3.6

     total cpu time spent up to now is      512.2 secs

     total energy              =    -352.55095108 Ry
     Harris-Foulkes estimate   =    -352.44718615 Ry
     estimated scf accuracy    <       0.46098835 Ry

     iteration # 14     ecut=    50.00 Ry     beta= 0.60
     Davidson diagonalization with overlap
     ethr =  1.21E-03,  avg # of iterations =  3.3

     total cpu time spent up to now is      548.1 secs

     total energy              =    -351.96301637 Ry
     Harris-Foulkes estimate   =    -352.68322780 Ry
     estimated scf accuracy    <       5.36824866 Ry

     iteration # 15     ecut=    50.00 Ry     beta= 0.60
     Davidson diagonalization with overlap
     ethr =  1.21E-03,  avg # of iterations =  5.8

     total cpu time spent up to now is      593.5 secs

     total energy              =    -352.46115475 Ry
     Harris-Foulkes estimate   =    -352.50053883 Ry
     estimated scf accuracy    <       0.58952896 Ry

     iteration # 16     ecut=    50.00 Ry     beta= 0.60
     Davidson diagonalization with overlap
     ethr =  1.21E-03,  avg # of iterations =  1.0

     total cpu time spent up to now is      624.4 secs

     total energy              =    -352.45083051 Ry
     Harris-Foulkes estimate   =    -352.46621778 Ry
     estimated scf accuracy    <       0.33164164 Ry

     iteration # 17     ecut=    50.00 Ry     beta= 0.60
     Davidson diagonalization with overlap
     ethr =  8.73E-04,  avg # of iterations =  1.0

     total cpu time spent up to now is      655.3 secs

     total energy              =    -352.43690427 Ry
     Harris-Foulkes estimate   =    -352.45354159 Ry
     estimated scf accuracy    <       0.19097125 Ry

     iteration # 18     ecut=    50.00 Ry     beta= 0.60
     Davidson diagonalization with overlap
     ethr =  5.03E-04,  avg # of iterations =  2.3

     total cpu time spent up to now is      687.5 secs

     total energy              =    -352.44290621 Ry
     Harris-Foulkes estimate   =    -352.44455034 Ry
     estimated scf accuracy    <       0.03332570 Ry

     iteration # 19     ecut=    50.00 Ry     beta= 0.60
     Davidson diagonalization with overlap
     ethr =  8.77E-05,  avg # of iterations =  5.2

     total cpu time spent up to now is      728.8 secs

     total energy              =    -352.44684251 Ry
     Harris-Foulkes estimate   =    -352.44762078 Ry
     estimated scf accuracy    <       0.00590378 Ry

     iteration # 20     ecut=    50.00 Ry     beta= 0.60
     Davidson diagonalization with overlap
     ethr =  1.55E-05,  avg # of iterations =  3.3

     total cpu time spent up to now is      763.1 secs

     total energy              =    -352.44697429 Ry
     Harris-Foulkes estimate   =    -352.44717363 Ry
     estimated scf accuracy    <       0.00068923 Ry

     iteration # 21     ecut=    50.00 Ry     beta= 0.60
     Davidson diagonalization with overlap
     ethr =  1.81E-06,  avg # of iterations =  6.3

     total cpu time spent up to now is      815.8 secs

     total energy              =    -352.44664720 Ry
     Harris-Foulkes estimate   =    -352.44751828 Ry
     estimated scf accuracy    <       0.00449981 Ry

     iteration # 22     ecut=    50.00 Ry     beta= 0.60
     Davidson diagonalization with overlap
     ethr =  1.81E-06,  avg # of iterations =  6.4

     total cpu time spent up to now is      873.0 secs

     total energy              =    -352.44775578 Ry
     Harris-Foulkes estimate   =    -352.44788327 Ry
     estimated scf accuracy    <       0.00447765 Ry

     iteration # 23     ecut=    50.00 Ry     beta= 0.60
     Davidson diagonalization with overlap
     ethr =  1.81E-06,  avg # of iterations =  2.8

     total cpu time spent up to now is      908.5 secs

     total energy              =    -352.44679533 Ry
     Harris-Foulkes estimate   =    -352.44787856 Ry
     estimated scf accuracy    <       0.00815945 Ry

     iteration # 24     ecut=    50.00 Ry     beta= 0.60
     Davidson diagonalization with overlap
     ethr =  1.81E-06,  avg # of iterations =  5.2

     total cpu time spent up to now is      956.1 secs

     total energy              =    -352.44721045 Ry
     Harris-Foulkes estimate   =    -352.44722676 Ry
     estimated scf accuracy    <       0.00008592 Ry

     iteration # 25     ecut=    50.00 Ry     beta= 0.60
     Davidson diagonalization with overlap
     ethr =  2.26E-07,  avg # of iterations =  4.3

     total cpu time spent up to now is      993.4 secs

     total energy              =    -352.44722183 Ry
     Harris-Foulkes estimate   =    -352.44722870 Ry
     estimated scf accuracy    <       0.00005912 Ry

     iteration # 26     ecut=    50.00 Ry     beta= 0.60
     Davidson diagonalization with overlap
     ethr =  1.56E-07,  avg # of iterations =  1.1

     total cpu time spent up to now is     1024.3 secs

     total energy              =    -352.44722247 Ry
     Harris-Foulkes estimate   =    -352.44722401 Ry
     estimated scf accuracy    <       0.00001276 Ry

     iteration # 27     ecut=    50.00 Ry     beta= 0.60
     Davidson diagonalization with overlap
     ethr =  3.36E-08,  avg # of iterations =  4.1

     total cpu time spent up to now is     1061.6 secs

     total energy              =    -352.44722424 Ry
     Harris-Foulkes estimate   =    -352.44722430 Ry
     estimated scf accuracy    <       0.00000022 Ry

     iteration # 28     ecut=    50.00 Ry     beta= 0.60
     Davidson diagonalization with overlap
     ethr =  5.72E-10,  avg # of iterations =  5.0

     total cpu time spent up to now is     1105.9 secs

     total energy              =    -352.44722439 Ry
     Harris-Foulkes estimate   =    -352.44722439 Ry
     estimated scf accuracy    <       0.00000001 Ry

     iteration # 29     ecut=    50.00 Ry     beta= 0.60
     Davidson diagonalization with overlap
     ethr =  2.80E-11,  avg # of iterations =  4.2

     total cpu time spent up to now is     1145.1 secs

     total energy              =    -352.44722439 Ry
     Harris-Foulkes estimate   =    -352.44722439 Ry
     estimated scf accuracy    <          2.6E-09 Ry

     iteration # 30     ecut=    50.00 Ry     beta= 0.60
     Davidson diagonalization with overlap
     ethr =  6.95E-12,  avg # of iterations =  2.0

     total cpu time spent up to now is     1177.4 secs

     total energy              =    -352.44722439 Ry
     Harris-Foulkes estimate   =    -352.44722439 Ry
     estimated scf accuracy    <          2.2E-09 Ry

     iteration # 31     ecut=    50.00 Ry     beta= 0.60
     Davidson diagonalization with overlap
     ethr =  5.85E-12,  avg # of iterations =  1.8

     total cpu time spent up to now is     1209.3 secs

     total energy              =    -352.44722439 Ry
     Harris-Foulkes estimate   =    -352.44722439 Ry
     estimated scf accuracy    <          1.9E-10 Ry

     iteration # 32     ecut=    50.00 Ry     beta= 0.60
     Davidson diagonalization with overlap
     ethr =  5.04E-13,  avg # of iterations =  4.1

     total cpu time spent up to now is     1249.0 secs

     End of self-consistent calculation

     Number of k-points >= 100: set verbosity='high' to print the bands.

     the Fermi energy is    12.9065 ev

!    total energy              =    -352.44722439 Ry
     Harris-Foulkes estimate   =    -352.44722439 Ry
     estimated scf accuracy    <          1.4E-11 Ry

     The total energy is the sum of the following terms:

     one-electron contribution =     -99.79567968 Ry
     hartree contribution      =      62.02325757 Ry
     xc contribution           =     -50.87024844 Ry
     ewald contribution        =    -263.80475566 Ry
     smearing contrib. (-TS)   =       0.00020182 Ry

     convergence has been achieved in  32 iterations

     Forces acting on atoms (cartesian axes, Ry/au):

     atom    1 type  2   force =    -0.00000000    0.00000000    0.00000000
     atom    2 type  1   force =    -0.00970585   -0.00970585    0.00970585
     atom    3 type  1   force =     0.00970585    0.00970585   -0.00970585

     Total force =     0.023774     Total SCF correction =     0.000001


     Computing stress (Cartesian axis) and pressure

          total   stress  (Ry/bohr**3)                   (kbar)     P= -207.89
  -0.00141322  -0.00001664   0.00001664       -207.89     -2.45      2.45
  -0.00001664  -0.00141322   0.00001664         -2.45   -207.89      2.45
   0.00001664   0.00001664  -0.00141322          2.45      2.45   -207.89


     BFGS Geometry Optimization

     number of scf cycles    =   1
     number of bfgs steps    =   0

     enthalpy new            =    -352.4472243906 Ry

     new trust radius        =       0.1482409444 bohr
     new conv_thr            =            1.0E-10 Ry

     new unit-cell volume =    394.99644 a.u.^3 (    58.53243 Ang^3 )
     density =      6.62939 g/cm^3

CELL_PARAMETERS (alat=  1.88972599)
  -0.000000000  -3.393301725  -3.393301725
  -3.393301725   3.393301725  -0.000000000
   1.694456666   1.694456666  -1.694456666

ATOMIC_POSITIONS (angstrom)
Ti      -1.698845060   1.694456666  -5.087758391
Nb      -0.006413178  -0.006413178  -3.386888547
Nb      -1.692431881   1.700869844  -1.700869844


     NEW-OLD atomic charge density approx. for the potential
     extrapolated charge   33.78459, renormalised to   38.00000

     total cpu time spent up to now is     1274.6 secs

     Self-consistent Calculation

     iteration #  1     ecut=    50.00 Ry     beta= 0.60
     Davidson diagonalization with overlap
     c_bands:  1 eigenvalues not converged
     c_bands:  1 eigenvalues not converged
     c_bands:  1 eigenvalues not converged
     c_bands:  2 eigenvalues not converged
     c_bands:  1 eigenvalues not converged
     c_bands:  1 eigenvalues not converged
     c_bands:  1 eigenvalues not converged
     c_bands:  1 eigenvalues not converged
     c_bands:  1 eigenvalues not converged
     c_bands:  1 eigenvalues not converged
     c_bands:  1 eigenvalues not converged
     c_bands:  1 eigenvalues not converged
     c_bands:  1 eigenvalues not converged
     c_bands:  1 eigenvalues not converged
     c_bands:  1 eigenvalues not converged
     c_bands:  1 eigenvalues not converged
     c_bands:  1 eigenvalues not converged
     c_bands:  1 eigenvalues not converged
     c_bands:  1 eigenvalues not converged
     c_bands:  1 eigenvalues not converged
     c_bands:  1 eigenvalues not converged
     c_bands:  1 eigenvalues not converged
     c_bands:  1 eigenvalues not converged
     c_bands:  1 eigenvalues not converged
     c_bands:  1 eigenvalues not converged
     c_bands:  1 eigenvalues not converged
     c_bands:  1 eigenvalues not converged
     c_bands:  1 eigenvalues not converged
     c_bands:  1 eigenvalues not converged
     c_bands:  1 eigenvalues not converged
     c_bands:  2 eigenvalues not converged
     c_bands:  1 eigenvalues not converged
     c_bands:  1 eigenvalues not converged
     c_bands:  1 eigenvalues not converged
     c_bands:  2 eigenvalues not converged
     c_bands:  1 eigenvalues not converged
     c_bands:  1 eigenvalues not converged
     c_bands:  1 eigenvalues not converged
     c_bands:  1 eigenvalues not converged
     c_bands:  1 eigenvalues not converged
     c_bands:  1 eigenvalues not converged
     c_bands:  1 eigenvalues not converged
     c_bands:  1 eigenvalues not converged
     c_bands:  1 eigenvalues not converged
     c_bands:  1 eigenvalues not converged
     c_bands:  1 eigenvalues not converged
     c_bands:  1 eigenvalues not converged
     c_bands:  1 eigenvalues not converged
     ethr =  1.00E-06,  avg # of iterations = 15.4

     total cpu time spent up to now is     1386.9 secs

     total energy              =    -331.82982001 Ry
     Harris-Foulkes estimate   =    -360.19650204 Ry
     estimated scf accuracy    <      23.44931072 Ry

     iteration #  2     ecut=    50.00 Ry     beta= 0.60
     Davidson diagonalization with overlap
     ethr =  1.00E-02,  avg # of iterations =  6.5

     total cpu time spent up to now is     1446.9 secs

     total energy              =    -344.50186980 Ry
     Harris-Foulkes estimate   =    -380.69936695 Ry
     estimated scf accuracy    <     113.19101266 Ry

     iteration #  3     ecut=    50.00 Ry     beta= 0.60
     Davidson diagonalization with overlap
     ethr =  1.00E-02,  avg # of iterations =  5.0

     total cpu time spent up to now is     1498.3 secs

     total energy              =    -354.13174962 Ry
     Harris-Foulkes estimate   =    -355.88868538 Ry
     estimated scf accuracy    <       8.42253178 Ry

     iteration #  4     ecut=    50.00 Ry     beta= 0.60
     Davidson diagonalization with overlap
     ethr =  1.00E-02,  avg # of iterations =  1.0

     total cpu time spent up to now is     1529.5 secs

     total energy              =    -352.69418020 Ry
     Harris-Foulkes estimate   =    -354.24006786 Ry
     estimated scf accuracy    <       5.56125232 Ry

     iteration #  5     ecut=    50.00 Ry     beta= 0.60
     Davidson diagonalization with overlap
     ethr =  1.00E-02,  avg # of iterations =  2.0

     total cpu time spent up to now is     1563.1 secs

     total energy              =    -352.86039258 Ry
     Harris-Foulkes estimate   =    -352.89515915 Ry
     estimated scf accuracy    <       2.33897351 Ry

     iteration #  6     ecut=    50.00 Ry     beta= 0.60
     Davidson diagonalization with overlap
     ethr =  6.16E-03,  avg # of iterations =  1.0

     total cpu time spent up to now is     1594.2 secs

     total energy              =    -352.73150276 Ry
     Harris-Foulkes estimate   =    -352.88051421 Ry
     estimated scf accuracy    <       2.16427815 Ry

     iteration #  7     ecut=    50.00 Ry     beta= 0.60
     Davidson diagonalization with overlap
     ethr =  5.70E-03,  avg # of iterations =  1.0

     total cpu time spent up to now is     1625.6 secs

     total energy              =    -352.68418589 Ry
     Harris-Foulkes estimate   =    -352.74892405 Ry
     estimated scf accuracy    <       1.64389358 Ry

     iteration #  8     ecut=    50.00 Ry     beta= 0.60
     Davidson diagonalization with overlap
     ethr =  4.33E-03,  avg # of iterations =  1.0

     total cpu time spent up to now is     1656.8 secs

     total energy              =    -352.42110782 Ry
     Harris-Foulkes estimate   =    -352.69393891 Ry
     estimated scf accuracy    <       1.43375401 Ry

     iteration #  9     ecut=    50.00 Ry     beta= 0.60
     Davidson diagonalization with overlap
     ethr =  3.77E-03,  avg # of iterations =  2.4

     total cpu time spent up to now is     1689.5 secs

     total energy              =    -352.48299941 Ry
     Harris-Foulkes estimate   =    -352.47460790 Ry
     estimated scf accuracy    <       0.43827297 Ry

     iteration # 10     ecut=    50.00 Ry     beta= 0.60
     Davidson diagonalization with overlap
     ethr =  1.15E-03,  avg # of iterations =  4.5

     total cpu time spent up to now is     1729.4 secs

     total energy              =    -352.41389110 Ry
     Harris-Foulkes estimate   =    -352.53046351 Ry
     estimated scf accuracy    <       0.13675856 Ry

     iteration # 11     ecut=    50.00 Ry     beta= 0.60
     Davidson diagonalization with overlap
     ethr =  3.60E-04,  avg # of iterations =  5.0

     total cpu time spent up to now is     1786.2 secs

     total energy              =    -352.65314183 Ry
     Harris-Foulkes estimate   =    -353.44031332 Ry
     estimated scf accuracy    <      17.97498940 Ry

     iteration # 12     ecut=    50.00 Ry     beta= 0.60
     Davidson diagonalization with overlap
     ethr =  3.60E-04,  avg # of iterations =  4.6

     total cpu time spent up to now is     1831.0 secs

     total energy              =    -353.12985312 Ry
     Harris-Foulkes estimate   =    -352.81372634 Ry
     estimated scf accuracy    <       6.11066850 Ry

     iteration # 13     ecut=    50.00 Ry     beta= 0.60
     Davidson diagonalization with overlap
     ethr =  3.60E-04,  avg # of iterations =  4.0

     total cpu time spent up to now is     1871.1 secs

     total energy              =    -352.35525626 Ry
     Harris-Foulkes estimate   =    -353.20603632 Ry
     estimated scf accuracy    <      13.80116650 Ry

     iteration # 14     ecut=    50.00 Ry     beta= 0.60
     Davidson diagonalization with overlap
     ethr =  3.60E-04,  avg # of iterations =  4.8

     total cpu time spent up to now is     1917.4 secs

     total energy              =    -352.63206594 Ry
     Harris-Foulkes estimate   =    -352.60274280 Ry
     estimated scf accuracy    <       2.06027725 Ry

     iteration # 15     ecut=    50.00 Ry     beta= 0.60
     Davidson diagonalization with overlap
     ethr =  3.60E-04,  avg # of iterations =  1.0

     total cpu time spent up to now is     1948.6 secs

     total energy              =    -352.35426098 Ry
     Harris-Foulkes estimate   =    -352.63388518 Ry
     estimated scf accuracy    <       2.54214769 Ry

     iteration # 16     ecut=    50.00 Ry     beta= 0.60
     Davidson diagonalization with overlap
     ethr =  3.60E-04,  avg # of iterations =  5.1

     total cpu time spent up to now is     1997.8 secs

     total energy              =    -352.52979574 Ry
     Harris-Foulkes estimate   =    -352.50825544 Ry
     estimated scf accuracy    <       0.02556903 Ry

     iteration # 17     ecut=    50.00 Ry     beta= 0.60
     Davidson diagonalization with overlap
     ethr =  6.73E-05,  avg # of iterations =  6.3

     total cpu time spent up to now is     2051.7 secs

     total energy              =    -352.51517555 Ry
     Harris-Foulkes estimate   =    -352.55853679 Ry
     estimated scf accuracy    <       0.35866858 Ry

     iteration # 18     ecut=    50.00 Ry     beta= 0.60
     Davidson diagonalization with overlap
     ethr =  6.73E-05,  avg # of iterations =  4.5

     total cpu time spent up to now is     2092.9 secs

     total energy              =    -352.52831607 Ry
     Harris-Foulkes estimate   =    -352.52068271 Ry
     estimated scf accuracy    <       0.14066737 Ry

     iteration # 19     ecut=    50.00 Ry     beta= 0.60
     Davidson diagonalization with overlap
     ethr =  6.73E-05,  avg # of iterations =  1.1

     total cpu time spent up to now is     2124.2 secs

     total energy              =    -352.53178558 Ry
     Harris-Foulkes estimate   =    -352.52932968 Ry
     estimated scf accuracy    <       0.20820857 Ry

     iteration # 20     ecut=    50.00 Ry     beta= 0.60
     Davidson diagonalization with overlap
     ethr =  6.73E-05,  avg # of iterations =  1.6

     total cpu time spent up to now is     2156.1 secs

     total energy              =    -352.50444226 Ry
     Harris-Foulkes estimate   =    -352.53275078 Ry
     estimated scf accuracy    <       0.26248467 Ry

     iteration # 21     ecut=    50.00 Ry     beta= 0.60
     Davidson diagonalization with overlap
     ethr =  6.73E-05,  avg # of iterations =  3.1

     total cpu time spent up to now is     2190.1 secs

     total energy              =    -352.50099123 Ry
     Harris-Foulkes estimate   =    -352.50810886 Ry
     estimated scf accuracy    <       0.10917132 Ry

     iteration # 22     ecut=    50.00 Ry     beta= 0.60
     Davidson diagonalization with overlap
     ethr =  6.73E-05,  avg # of iterations =  3.4

     total cpu time spent up to now is     2225.3 secs

     total energy              =    -352.49144985 Ry
     Harris-Foulkes estimate   =    -352.50273647 Ry
     estimated scf accuracy    <       0.04564330 Ry

     iteration # 23     ecut=    50.00 Ry     beta= 0.60
     Davidson diagonalization with overlap
     ethr =  6.73E-05,  avg # of iterations =  5.2

     total cpu time spent up to now is     2269.6 secs

     total energy              =    -352.49704853 Ry
     Harris-Foulkes estimate   =    -352.50098505 Ry
     estimated scf accuracy    <       0.02992363 Ry

     iteration # 24     ecut=    50.00 Ry     beta= 0.60
     Davidson diagonalization with overlap
     ethr =  6.73E-05,  avg # of iterations =  1.0

     total cpu time spent up to now is     2300.8 secs

     total energy              =    -352.49851598 Ry
     Harris-Foulkes estimate   =    -352.49869728 Ry
     estimated scf accuracy    <       0.00091034 Ry

     iteration # 25     ecut=    50.00 Ry     beta= 0.60
     Davidson diagonalization with overlap
     ethr =  2.40E-06,  avg # of iterations =  5.7

     total cpu time spent up to now is     2351.0 secs

     total energy              =    -352.49937863 Ry
     Harris-Foulkes estimate   =    -352.49919821 Ry
     estimated scf accuracy    <       0.00124719 Ry

     iteration # 26     ecut=    50.00 Ry     beta= 0.60
     Davidson diagonalization with overlap
     ethr =  2.40E-06,  avg # of iterations =  2.4

     total cpu time spent up to now is     2383.8 secs

     total energy              =    -352.49881289 Ry
     Harris-Foulkes estimate   =    -352.49945305 Ry
     estimated scf accuracy    <       0.00401974 Ry

     iteration # 27     ecut=    50.00 Ry     beta= 0.60
     Davidson diagonalization with overlap
     ethr =  2.40E-06,  avg # of iterations =  3.5

     total cpu time spent up to now is     2418.9 secs

     total energy              =    -352.49910704 Ry
     Harris-Foulkes estimate   =    -352.49910775 Ry
     estimated scf accuracy    <       0.00000267 Ry

     iteration # 28     ecut=    50.00 Ry     beta= 0.60
     Davidson diagonalization with overlap
     ethr =  7.02E-09,  avg # of iterations =  5.7

     total cpu time spent up to now is     2470.9 secs

     total energy              =    -352.49911719 Ry
     Harris-Foulkes estimate   =    -352.49911791 Ry
     estimated scf accuracy    <       0.00000699 Ry

     iteration # 29     ecut=    50.00 Ry     beta= 0.60
     Davidson diagonalization with overlap
     ethr =  7.02E-09,  avg # of iterations =  1.3

     total cpu time spent up to now is     2502.5 secs

     total energy              =    -352.49911714 Ry
     Harris-Foulkes estimate   =    -352.49911740 Ry
     estimated scf accuracy    <       0.00000106 Ry

     iteration # 30     ecut=    50.00 Ry     beta= 0.60
     Davidson diagonalization with overlap
     ethr =  2.78E-09,  avg # of iterations =  4.0

     total cpu time spent up to now is     2543.1 secs

     total energy              =    -352.49911740 Ry
     Harris-Foulkes estimate   =    -352.49911756 Ry
     estimated scf accuracy    <       0.00000186 Ry

     iteration # 31     ecut=    50.00 Ry     beta= 0.60
     Davidson diagonalization with overlap
     ethr =  2.78E-09,  avg # of iterations =  1.0

     total cpu time spent up to now is     2574.2 secs

     total energy              =    -352.49911739 Ry
     Harris-Foulkes estimate   =    -352.49911744 Ry
     estimated scf accuracy    <       0.00000048 Ry

     iteration # 32     ecut=    50.00 Ry     beta= 0.60
     Davidson diagonalization with overlap
     ethr =  1.27E-09,  avg # of iterations =  3.0

     total cpu time spent up to now is     2608.6 secs

     total energy              =    -352.49911743 Ry
     Harris-Foulkes estimate   =    -352.49911743 Ry
     estimated scf accuracy    <          4.9E-10 Ry

     iteration # 33     ecut=    50.00 Ry     beta= 0.60
     Davidson diagonalization with overlap
     ethr =  1.29E-12,  avg # of iterations =  6.2

     total cpu time spent up to now is     2661.4 secs

     total energy              =    -352.49911743 Ry
     Harris-Foulkes estimate   =    -352.49911743 Ry
     estimated scf accuracy    <          5.3E-09 Ry

     iteration # 34     ecut=    50.00 Ry     beta= 0.60
     Davidson diagonalization with overlap
     ethr =  1.29E-12,  avg # of iterations =  1.0

     total cpu time spent up to now is     2692.6 secs

     total energy              =    -352.49911743 Ry
     Harris-Foulkes estimate   =    -352.49911743 Ry
     estimated scf accuracy    <          4.3E-09 Ry

     iteration # 35     ecut=    50.00 Ry     beta= 0.60
     Davidson diagonalization with overlap
     ethr =  1.29E-12,  avg # of iterations =  4.0

     total cpu time spent up to now is     2731.8 secs

     total energy              =    -352.49911743 Ry
     Harris-Foulkes estimate   =    -352.49911743 Ry
     estimated scf accuracy    <          1.1E-10 Ry

     iteration # 36     ecut=    50.00 Ry     beta= 0.60
     Davidson diagonalization with overlap
     ethr =  2.91E-13,  avg # of iterations =  2.9

     total cpu time spent up to now is     2766.7 secs

     End of self-consistent calculation

     Number of k-points >= 100: set verbosity='high' to print the bands.

     the Fermi energy is    14.7086 ev

!    total energy              =    -352.49911743 Ry
     Harris-Foulkes estimate   =    -352.49911743 Ry
     estimated scf accuracy    <          8.1E-12 Ry

     The total energy is the sum of the following terms:

     one-electron contribution =     -85.69713975 Ry
     hartree contribution      =      57.80713394 Ry
     xc contribution           =     -51.14538990 Ry
     ewald contribution        =    -273.46341328 Ry
     smearing contrib. (-TS)   =      -0.00030845 Ry

     convergence has been achieved in  36 iterations

     Forces acting on atoms (cartesian axes, Ry/au):

     atom    1 type  2   force =     0.00000000    0.00000000    0.00000000
     atom    2 type  1   force =    -0.00958024   -0.00958024    0.00958024
     atom    3 type  1   force =     0.00958024    0.00958024   -0.00958024

     Total force =     0.023467     Total SCF correction =     0.000001


     Computing stress (Cartesian axis) and pressure

          total   stress  (Ry/bohr**3)                   (kbar)     P= -118.73
  -0.00080713  -0.00000712   0.00000712       -118.73     -1.05      1.05
  -0.00000712  -0.00080713   0.00000712         -1.05   -118.73      1.05
   0.00000712   0.00000712  -0.00080713          1.05      1.05   -118.73


     number of scf cycles    =   2
     number of bfgs steps    =   1

     enthalpy old            =    -352.4472243906 Ry
     enthalpy new            =    -352.4991174330 Ry

     CASE: enthalpy_new < enthalpy_old

     new trust radius        =       0.1674253070 bohr
     new conv_thr            =            1.0E-10 Ry

     new unit-cell volume =    347.16093 a.u.^3 (    51.44394 Ang^3 )
     density =      7.54286 g/cm^3

CELL_PARAMETERS (alat=  1.88972599)
   0.000000000  -3.251774463  -3.251774463
  -3.251774463   3.251774463  -0.000000000
   1.621706487   1.621706487  -1.621706487

ATOMIC_POSITIONS (angstrom)
Ti      -1.630067976   1.621706487  -4.873480950
Nb      -0.017251601  -0.017251601  -3.234522862
Nb      -1.612816375   1.638958088  -1.638958088


     NEW-OLD atomic charge density approx. for the potential
     extrapolated charge   32.90251, renormalised to   38.00000

     total cpu time spent up to now is     2792.9 secs

     Self-consistent Calculation

     iteration #  1     ecut=    50.00 Ry     beta= 0.60
     Davidson diagonalization with overlap
     c_bands:  1 eigenvalues not converged
     c_bands:  1 eigenvalues not converged
     c_bands:  1 eigenvalues not converged
     c_bands:  1 eigenvalues not converged
     c_bands:  1 eigenvalues not converged
     c_bands:  1 eigenvalues not converged
     c_bands:  1 eigenvalues not converged
     c_bands:  1 eigenvalues not converged
     c_bands:  1 eigenvalues not converged
     c_bands:  1 eigenvalues not converged
     c_bands:  1 eigenvalues not converged
     c_bands:  1 eigenvalues not converged
     c_bands:  1 eigenvalues not converged
     c_bands:  1 eigenvalues not converged
     c_bands:  1 eigenvalues not converged
     c_bands:  1 eigenvalues not converged
     c_bands:  1 eigenvalues not converged
     c_bands:  1 eigenvalues not converged
     c_bands:  1 eigenvalues not converged
     c_bands:  1 eigenvalues not converged
     c_bands:  1 eigenvalues not converged
     c_bands:  1 eigenvalues not converged
     c_bands:  1 eigenvalues not converged
     c_bands:  1 eigenvalues not converged
     c_bands:  1 eigenvalues not converged
     c_bands:  1 eigenvalues not converged
     c_bands:  1 eigenvalues not converged
     c_bands:  1 eigenvalues not converged
     c_bands:  1 eigenvalues not converged
     c_bands:  1 eigenvalues not converged
     c_bands:  1 eigenvalues not converged
     c_bands:  1 eigenvalues not converged
     c_bands:  1 eigenvalues not converged
     c_bands:  1 eigenvalues not converged
     c_bands:  1 eigenvalues not converged
     c_bands:  1 eigenvalues not converged
     c_bands:  1 eigenvalues not converged
     c_bands:  1 eigenvalues not converged
     c_bands:  1 eigenvalues not converged
     c_bands:  1 eigenvalues not converged
     c_bands:  1 eigenvalues not converged
     c_bands:  1 eigenvalues not converged
     c_bands:  1 eigenvalues not converged
     c_bands:  1 eigenvalues not converged
     c_bands:  1 eigenvalues not converged
     c_bands:  1 eigenvalues not converged
     c_bands:  1 eigenvalues not converged
     c_bands:  1 eigenvalues not converged
     c_bands:  1 eigenvalues not converged
     c_bands:  1 eigenvalues not converged
     c_bands:  1 eigenvalues not converged
     c_bands:  1 eigenvalues not converged
     c_bands:  1 eigenvalues not converged
     c_bands:  1 eigenvalues not converged
     c_bands:  1 eigenvalues not converged
     ethr =  1.00E-06,  avg # of iterations = 15.2

     total cpu time spent up to now is     2901.6 secs

     total energy              =    -330.33696447 Ry
     Harris-Foulkes estimate   =    -360.40371706 Ry
     estimated scf accuracy    <      24.85974883 Ry

     iteration #  2     ecut=    50.00 Ry     beta= 0.60
     Davidson diagonalization with overlap
     ethr =  1.00E-02,  avg # of iterations =  6.5

     total cpu time spent up to now is     2961.8 secs

     total energy              =    -344.44182613 Ry
     Harris-Foulkes estimate   =    -381.51515116 Ry
     estimated scf accuracy    <     114.34389921 Ry

     iteration #  3     ecut=    50.00 Ry     beta= 0.60
     Davidson diagonalization with overlap
     ethr =  1.00E-02,  avg # of iterations =  4.7

     total cpu time spent up to now is     3012.6 secs

     total energy              =    -354.09664876 Ry
     Harris-Foulkes estimate   =    -355.99150480 Ry
     estimated scf accuracy    <       8.77123338 Ry

     iteration #  4     ecut=    50.00 Ry     beta= 0.60
     Davidson diagonalization with overlap
     ethr =  1.00E-02,  avg # of iterations =  1.0

     total cpu time spent up to now is     3043.8 secs

     total energy              =    -352.68317903 Ry
     Harris-Foulkes estimate   =    -354.21600076 Ry
     estimated scf accuracy    <       5.60758891 Ry

     iteration #  5     ecut=    50.00 Ry     beta= 0.60
     Davidson diagonalization with overlap
     ethr =  1.00E-02,  avg # of iterations =  2.0

     total cpu time spent up to now is     3077.5 secs

     total energy              =    -352.97116869 Ry
     Harris-Foulkes estimate   =    -352.90667486 Ry
     estimated scf accuracy    <       2.18562817 Ry

     iteration #  6     ecut=    50.00 Ry     beta= 0.60
     Davidson diagonalization with overlap
     ethr =  5.75E-03,  avg # of iterations =  1.0

     total cpu time spent up to now is     3108.7 secs

     total energy              =    -352.77556432 Ry
     Harris-Foulkes estimate   =    -352.98821196 Ry
     estimated scf accuracy    <       2.26145608 Ry

     iteration #  7     ecut=    50.00 Ry     beta= 0.60
     Davidson diagonalization with overlap
     ethr =  5.75E-03,  avg # of iterations =  1.0

     total cpu time spent up to now is     3139.9 secs

     total energy              =    -352.63657716 Ry
     Harris-Foulkes estimate   =    -352.79151692 Ry
     estimated scf accuracy    <       1.66085499 Ry

     iteration #  8     ecut=    50.00 Ry     beta= 0.60
     Davidson diagonalization with overlap
     ethr =  4.37E-03,  avg # of iterations =  1.1

     total cpu time spent up to now is     3171.2 secs

     total energy              =    -352.59679188 Ry
     Harris-Foulkes estimate   =    -352.65752495 Ry
     estimated scf accuracy    <       1.11114246 Ry

     iteration #  9     ecut=    50.00 Ry     beta= 0.60
     Davidson diagonalization with overlap
     ethr =  2.92E-03,  avg # of iterations =  1.2

     total cpu time spent up to now is     3202.5 secs

     total energy              =    -352.54862626 Ry
     Harris-Foulkes estimate   =    -352.60834236 Ry
     estimated scf accuracy    <       0.86789735 Ry

     iteration # 10     ecut=    50.00 Ry     beta= 0.60
     Davidson diagonalization with overlap
     ethr =  2.28E-03,  avg # of iterations =  1.8

     total cpu time spent up to now is     3234.5 secs

     total energy              =    -352.32728924 Ry
     Harris-Foulkes estimate   =    -352.56337045 Ry
     estimated scf accuracy    <       0.54514013 Ry

     iteration # 11     ecut=    50.00 Ry     beta= 0.60
     Davidson diagonalization with overlap
     ethr =  1.43E-03,  avg # of iterations =  4.8

     total cpu time spent up to now is     3284.1 secs

     total energy              =    -352.78464773 Ry
     Harris-Foulkes estimate   =    -352.66016362 Ry
     estimated scf accuracy    <       2.46207246 Ry

     iteration # 12     ecut=    50.00 Ry     beta= 0.60
     Davidson diagonalization with overlap
     ethr =  1.43E-03,  avg # of iterations =  1.0

     total cpu time spent up to now is     3315.3 secs

     total energy              =    -352.99830636 Ry
     Harris-Foulkes estimate   =    -352.80406424 Ry
     estimated scf accuracy    <       4.32702496 Ry

     iteration # 13     ecut=    50.00 Ry     beta= 0.60
     Davidson diagonalization with overlap
     ethr =  1.43E-03,  avg # of iterations =  2.1

     total cpu time spent up to now is     3349.6 secs

     total energy              =    -353.24628273 Ry
     Harris-Foulkes estimate   =    -353.05448119 Ry
     estimated scf accuracy    <       9.16182958 Ry

     iteration # 14     ecut=    50.00 Ry     beta= 0.60
     Davidson diagonalization with overlap
     ethr =  1.43E-03,  avg # of iterations =  1.0

     total cpu time spent up to now is     3380.8 secs

     total energy              =    -352.91628018 Ry
     Harris-Foulkes estimate   =    -353.26496448 Ry
     estimated scf accuracy    <      12.24772449 Ry

     iteration # 15     ecut=    50.00 Ry     beta= 0.60
     Davidson diagonalization with overlap
     ethr =  1.43E-03,  avg # of iterations =  1.0

     total cpu time spent up to now is     3412.0 secs

     total energy              =    -352.82869602 Ry
     Harris-Foulkes estimate   =    -352.95091946 Ry
     estimated scf accuracy    <       7.80548188 Ry

     iteration # 16     ecut=    50.00 Ry     beta= 0.60
     Davidson diagonalization with overlap
     ethr =  1.43E-03,  avg # of iterations =  1.0

     total cpu time spent up to now is     3443.0 secs

     total energy              =    -352.86481285 Ry
     Harris-Foulkes estimate   =    -352.83834993 Ry
     estimated scf accuracy    <       5.92061145 Ry

     iteration # 17     ecut=    50.00 Ry     beta= 0.60
     Davidson diagonalization with overlap
     ethr =  1.43E-03,  avg # of iterations =  1.0

     total cpu time spent up to now is     3474.1 secs

     total energy              =    -352.11506667 Ry
     Harris-Foulkes estimate   =    -352.87152368 Ry
     estimated scf accuracy    <       6.27950322 Ry

     iteration # 18     ecut=    50.00 Ry     beta= 0.60
     Davidson diagonalization with overlap
     ethr =  1.43E-03,  avg # of iterations =  4.4

     total cpu time spent up to now is     3515.0 secs

     total energy              =    -352.51205394 Ry
     Harris-Foulkes estimate   =    -352.51330796 Ry
     estimated scf accuracy    <       0.00439465 Ry

     iteration # 19     ecut=    50.00 Ry     beta= 0.60
     Davidson diagonalization with overlap
     ethr =  1.16E-05,  avg # of iterations =  6.8

     total cpu time spent up to now is     3566.2 secs

     total energy              =    -352.51421183 Ry
     Harris-Foulkes estimate   =    -352.51434588 Ry
     estimated scf accuracy    <       0.00427712 Ry

     iteration # 20     ecut=    50.00 Ry     beta= 0.60
     Davidson diagonalization with overlap
     ethr =  1.13E-05,  avg # of iterations =  1.5

     total cpu time spent up to now is     3597.8 secs

     total energy              =    -352.51385989 Ry
     Harris-Foulkes estimate   =    -352.51440914 Ry
     estimated scf accuracy    <       0.00820352 Ry

     iteration # 21     ecut=    50.00 Ry     beta= 0.60
     Davidson diagonalization with overlap
     ethr =  1.13E-05,  avg # of iterations =  1.0

     total cpu time spent up to now is     3628.8 secs

     total energy              =    -352.51325815 Ry
     Harris-Foulkes estimate   =    -352.51397590 Ry
     estimated scf accuracy    <       0.00530231 Ry

     iteration # 22     ecut=    50.00 Ry     beta= 0.60
     Davidson diagonalization with overlap
     ethr =  1.13E-05,  avg # of iterations =  1.0

     total cpu time spent up to now is     3659.8 secs

     total energy              =    -352.51336793 Ry
     Harris-Foulkes estimate   =    -352.51344576 Ry
     estimated scf accuracy    <       0.00087012 Ry

     iteration # 23     ecut=    50.00 Ry     beta= 0.60
     Davidson diagonalization with overlap
     ethr =  2.29E-06,  avg # of iterations =  3.2

     total cpu time spent up to now is     3694.3 secs

     total energy              =    -352.51339701 Ry
     Harris-Foulkes estimate   =    -352.51343300 Ry
     estimated scf accuracy    <       0.00008804 Ry

     iteration # 24     ecut=    50.00 Ry     beta= 0.60
     Davidson diagonalization with overlap
     ethr =  2.32E-07,  avg # of iterations =  4.7

     total cpu time spent up to now is     3740.3 secs

     total energy              =    -352.51341971 Ry
     Harris-Foulkes estimate   =    -352.51344771 Ry
     estimated scf accuracy    <       0.00017507 Ry

     iteration # 25     ecut=    50.00 Ry     beta= 0.60
     Davidson diagonalization with overlap
     ethr =  2.32E-07,  avg # of iterations =  3.1

     total cpu time spent up to now is     3775.8 secs

     total energy              =    -352.51342947 Ry
     Harris-Foulkes estimate   =    -352.51343108 Ry
     estimated scf accuracy    <       0.00000473 Ry

     iteration # 26     ecut=    50.00 Ry     beta= 0.60
     Davidson diagonalization with overlap
     ethr =  1.25E-08,  avg # of iterations =  4.7

     total cpu time spent up to now is     3821.3 secs

     total energy              =    -352.51342792 Ry
     Harris-Foulkes estimate   =    -352.51343682 Ry
     estimated scf accuracy    <       0.00004262 Ry

     iteration # 27     ecut=    50.00 Ry     beta= 0.60
     Davidson diagonalization with overlap
     ethr =  1.25E-08,  avg # of iterations =  4.4

     total cpu time spent up to now is     3866.0 secs

     total energy              =    -352.51343269 Ry
     Harris-Foulkes estimate   =    -352.51343340 Ry
     estimated scf accuracy    <       0.00000440 Ry

     iteration # 28     ecut=    50.00 Ry     beta= 0.60
     Davidson diagonalization with overlap
     ethr =  1.16E-08,  avg # of iterations =  1.0

     total cpu time spent up to now is     3897.0 secs

     total energy              =    -352.51343294 Ry
     Harris-Foulkes estimate   =    -352.51343296 Ry
     estimated scf accuracy    <       0.00000014 Ry

     iteration # 29     ecut=    50.00 Ry     beta= 0.60
     Davidson diagonalization with overlap
     ethr =  3.66E-10,  avg # of iterations =  4.8

     total cpu time spent up to now is     3940.3 secs

     total energy              =    -352.51343305 Ry
     Harris-Foulkes estimate   =    -352.51343307 Ry
     estimated scf accuracy    <       0.00000024 Ry

     iteration # 30     ecut=    50.00 Ry     beta= 0.60
     Davidson diagonalization with overlap
     ethr =  3.66E-10,  avg # of iterations =  1.0

     total cpu time spent up to now is     3971.4 secs

     total energy              =    -352.51343305 Ry
     Harris-Foulkes estimate   =    -352.51343306 Ry
     estimated scf accuracy    <       0.00000009 Ry

     iteration # 31     ecut=    50.00 Ry     beta= 0.60
     Davidson diagonalization with overlap
     ethr =  2.45E-10,  avg # of iterations =  2.5

     total cpu time spent up to now is     4004.5 secs

     total energy              =    -352.51343305 Ry
     Harris-Foulkes estimate   =    -352.51343305 Ry
     estimated scf accuracy    <          4.4E-09 Ry

     iteration # 32     ecut=    50.00 Ry     beta= 0.60
     Davidson diagonalization with overlap
     ethr =  1.17E-11,  avg # of iterations =  3.9

     total cpu time spent up to now is     4043.9 secs

     total energy              =    -352.51343305 Ry
     Harris-Foulkes estimate   =    -352.51343305 Ry
     estimated scf accuracy    <          1.2E-09 Ry

     iteration # 33     ecut=    50.00 Ry     beta= 0.60
     Davidson diagonalization with overlap
     ethr =  3.12E-12,  avg # of iterations =  1.7

     total cpu time spent up to now is     4075.8 secs

     total energy              =    -352.51343305 Ry
     Harris-Foulkes estimate   =    -352.51343305 Ry
     estimated scf accuracy    <          7.2E-10 Ry

     iteration # 34     ecut=    50.00 Ry     beta= 0.60
     Davidson diagonalization with overlap
     ethr =  1.89E-12,  avg # of iterations =  2.6

     total cpu time spent up to now is     4108.9 secs

     End of self-consistent calculation

     Number of k-points >= 100: set verbosity='high' to print the bands.

     the Fermi energy is    17.1123 ev

!    total energy              =    -352.51343305 Ry
     Harris-Foulkes estimate   =    -352.51343305 Ry
     estimated scf accuracy    <          3.0E-11 Ry

     The total energy is the sum of the following terms:

     one-electron contribution =     -68.42252336 Ry
     hartree contribution      =      52.91403091 Ry
     xc contribution           =     -51.52675509 Ry
     ewald contribution        =    -285.47776476 Ry
     smearing contrib. (-TS)   =      -0.00042075 Ry

     convergence has been achieved in  34 iterations

     Forces acting on atoms (cartesian axes, Ry/au):

     atom    1 type  2   force =     0.00000000    0.00000000    0.00000000
     atom    2 type  1   force =    -0.00859083   -0.00859083    0.00859083
     atom    3 type  1   force =     0.00859083    0.00859083   -0.00859083

     Total force =     0.021043     Total SCF correction =     0.000002


     Computing stress (Cartesian axis) and pressure

          total   stress  (Ry/bohr**3)                   (kbar)     P=   54.53
   0.00037070   0.00001549  -0.00001549         54.53      2.28     -2.28
   0.00001549   0.00037070  -0.00001549          2.28     54.53     -2.28
  -0.00001549  -0.00001549   0.00037070         -2.28     -2.28     54.53


     number of scf cycles    =   3
     number of bfgs steps    =   2

     enthalpy old            =    -352.4991174330 Ry
     enthalpy new            =    -352.5134330519 Ry

     CASE: enthalpy_new < enthalpy_old

     new trust radius        =       0.0459592999 bohr
     new conv_thr            =            1.0E-10 Ry

     new unit-cell volume =    360.15530 a.u.^3 (    53.36951 Ang^3 )
     density =      7.27071 g/cm^3

CELL_PARAMETERS (alat=  1.88972599)
   0.000000000  -3.290775122  -3.290775122
  -3.290775122   3.290775122  -0.000000000
   1.642765745   1.642765745  -1.642765745

ATOMIC_POSITIONS (angstrom)
Ti      -1.648009377   1.642765745  -4.933540867
Nb      -0.017824061  -0.017824061  -3.272951060
Nb      -1.630185315   1.660589806  -1.660589806


     NEW-OLD atomic charge density approx. for the potential
     extrapolated charge   39.33476, renormalised to   38.00000

     total cpu time spent up to now is     4139.3 secs

     Self-consistent Calculation

     iteration #  1     ecut=    50.00 Ry     beta= 0.60
     Davidson diagonalization with overlap
     ethr =  1.00E-06,  avg # of iterations = 12.1

     total cpu time spent up to now is     4227.4 secs

     total energy              =    -352.30713576 Ry
     Harris-Foulkes estimate   =    -350.71174272 Ry
     estimated scf accuracy    <       0.17196666 Ry

     iteration #  2     ecut=    50.00 Ry     beta= 0.60
     Davidson diagonalization with overlap
     ethr =  4.53E-04,  avg # of iterations =  5.8

     total cpu time spent up to now is     4289.3 secs

     total energy              =    -351.99654073 Ry
     Harris-Foulkes estimate   =    -353.08436636 Ry
     estimated scf accuracy    <      10.20032835 Ry

     iteration #  3     ecut=    50.00 Ry     beta= 0.60
     Davidson diagonalization with overlap
     ethr =  4.53E-04,  avg # of iterations =  5.3

     total cpu time spent up to now is     4340.3 secs

     total energy              =    -352.51397265 Ry
     Harris-Foulkes estimate   =    -352.55049782 Ry
     estimated scf accuracy    <       0.09761625 Ry

     iteration #  4     ecut=    50.00 Ry     beta= 0.60
     Davidson diagonalization with overlap
     ethr =  2.57E-04,  avg # of iterations =  2.0

     total cpu time spent up to now is     4373.4 secs

     total energy              =    -352.51998318 Ry
     Harris-Foulkes estimate   =    -352.52384872 Ry
     estimated scf accuracy    <       0.03905037 Ry

     iteration #  5     ecut=    50.00 Ry     beta= 0.60
     Davidson diagonalization with overlap
     ethr =  1.03E-04,  avg # of iterations =  1.7

     total cpu time spent up to now is     4408.2 secs

     total energy              =    -352.51778213 Ry
     Harris-Foulkes estimate   =    -352.52098627 Ry
     estimated scf accuracy    <       0.03053713 Ry

     iteration #  6     ecut=    50.00 Ry     beta= 0.60
     Davidson diagonalization with overlap
     ethr =  8.04E-05,  avg # of iterations =  1.0

     total cpu time spent up to now is     4439.4 secs

     total energy              =    -352.51496099 Ry
     Harris-Foulkes estimate   =    -352.51835548 Ry
     estimated scf accuracy    <       0.01839975 Ry

     iteration #  7     ecut=    50.00 Ry     beta= 0.60
     Davidson diagonalization with overlap
     ethr =  4.84E-05,  avg # of iterations =  2.1

     total cpu time spent up to now is     4474.2 secs

     total energy              =    -352.51568829 Ry
     Harris-Foulkes estimate   =    -352.51600767 Ry
     estimated scf accuracy    <       0.00384721 Ry

     iteration #  8     ecut=    50.00 Ry     beta= 0.60
     Davidson diagonalization with overlap
     ethr =  1.01E-05,  avg # of iterations =  2.6

     total cpu time spent up to now is     4508.1 secs

     total energy              =    -352.51580597 Ry
     Harris-Foulkes estimate   =    -352.51585872 Ry
     estimated scf accuracy    <       0.00169436 Ry

     iteration #  9     ecut=    50.00 Ry     beta= 0.60
     Davidson diagonalization with overlap
     ethr =  4.46E-06,  avg # of iterations =  1.5

     total cpu time spent up to now is     4539.8 secs

     total energy              =    -352.51571615 Ry
     Harris-Foulkes estimate   =    -352.51583409 Ry
     estimated scf accuracy    <       0.00121209 Ry

     iteration # 10     ecut=    50.00 Ry     beta= 0.60
     Davidson diagonalization with overlap
     ethr =  3.19E-06,  avg # of iterations =  1.9

     total cpu time spent up to now is     4573.5 secs

     total energy              =    -352.51574098 Ry
     Harris-Foulkes estimate   =    -352.51575870 Ry
     estimated scf accuracy    <       0.00025579 Ry

     iteration # 11     ecut=    50.00 Ry     beta= 0.60
     Davidson diagonalization with overlap
     ethr =  6.73E-07,  avg # of iterations =  4.0

     total cpu time spent up to now is     4611.7 secs

     total energy              =    -352.51576345 Ry
     Harris-Foulkes estimate   =    -352.51576884 Ry
     estimated scf accuracy    <       0.00002285 Ry

     iteration # 12     ecut=    50.00 Ry     beta= 0.60
     Davidson diagonalization with overlap
     ethr =  6.01E-08,  avg # of iterations =  3.5

     total cpu time spent up to now is     4648.7 secs

     total energy              =    -352.51576521 Ry
     Harris-Foulkes estimate   =    -352.51576665 Ry
     estimated scf accuracy    <       0.00000337 Ry

     iteration # 13     ecut=    50.00 Ry     beta= 0.60
     Davidson diagonalization with overlap
     ethr =  8.87E-09,  avg # of iterations =  3.3

     total cpu time spent up to now is     4688.0 secs

     total energy              =    -352.51576570 Ry
     Harris-Foulkes estimate   =    -352.51576586 Ry
     estimated scf accuracy    <       0.00000034 Ry

     iteration # 14     ecut=    50.00 Ry     beta= 0.60
     Davidson diagonalization with overlap
     ethr =  8.91E-10,  avg # of iterations =  3.3

     total cpu time spent up to now is     4732.3 secs

     total energy              =    -352.51576579 Ry
     Harris-Foulkes estimate   =    -352.51576583 Ry
     estimated scf accuracy    <       0.00000049 Ry

     iteration # 15     ecut=    50.00 Ry     beta= 0.60
     Davidson diagonalization with overlap
     ethr =  8.91E-10,  avg # of iterations =  1.0

     total cpu time spent up to now is     4763.5 secs

     total energy              =    -352.51576577 Ry
     Harris-Foulkes estimate   =    -352.51576580 Ry
     estimated scf accuracy    <       0.00000019 Ry

     iteration # 16     ecut=    50.00 Ry     beta= 0.60
     Davidson diagonalization with overlap
     ethr =  5.01E-10,  avg # of iterations =  1.6

     total cpu time spent up to now is     4795.3 secs

     total energy              =    -352.51576578 Ry
     Harris-Foulkes estimate   =    -352.51576578 Ry
     estimated scf accuracy    <       0.00000003 Ry

     iteration # 17     ecut=    50.00 Ry     beta= 0.60
     Davidson diagonalization with overlap
     ethr =  7.14E-11,  avg # of iterations =  3.9

     total cpu time spent up to now is     4835.1 secs

     total energy              =    -352.51576578 Ry
     Harris-Foulkes estimate   =    -352.51576578 Ry
     estimated scf accuracy    <          3.7E-09 Ry

     iteration # 18     ecut=    50.00 Ry     beta= 0.60
     Davidson diagonalization with overlap
     ethr =  9.76E-12,  avg # of iterations =  1.6

     total cpu time spent up to now is     4867.0 secs

     total energy              =    -352.51576578 Ry
     Harris-Foulkes estimate   =    -352.51576578 Ry
     estimated scf accuracy    <          1.5E-09 Ry

     iteration # 19     ecut=    50.00 Ry     beta= 0.60
     Davidson diagonalization with overlap
     ethr =  3.96E-12,  avg # of iterations =  1.5

     total cpu time spent up to now is     4898.6 secs

     total energy              =    -352.51576578 Ry
     Harris-Foulkes estimate   =    -352.51576578 Ry
     estimated scf accuracy    <          3.3E-10 Ry

     iteration # 20     ecut=    50.00 Ry     beta= 0.60
     Davidson diagonalization with overlap
     ethr =  8.64E-13,  avg # of iterations =  3.6

     total cpu time spent up to now is     4934.9 secs

     End of self-consistent calculation

     Number of k-points >= 100: set verbosity='high' to print the bands.

     the Fermi energy is    16.3968 ev

!    total energy              =    -352.51576578 Ry
     Harris-Foulkes estimate   =    -352.51576578 Ry
     estimated scf accuracy    <          7.5E-12 Ry

     The total energy is the sum of the following terms:

     one-electron contribution =     -73.39407254 Ry
     hartree contribution      =      54.29190166 Ry
     xc contribution           =     -51.41238818 Ry
     ewald contribution        =    -282.00086383 Ry
     smearing contrib. (-TS)   =      -0.00034289 Ry

     convergence has been achieved in  20 iterations

     Forces acting on atoms (cartesian axes, Ry/au):

     atom    1 type  2   force =     0.00000000    0.00000000    0.00000000
     atom    2 type  1   force =    -0.00840876   -0.00840876    0.00840876
     atom    3 type  1   force =     0.00840876    0.00840876   -0.00840876

     Total force =     0.020597     Total SCF correction =     0.000001


     Computing stress (Cartesian axis) and pressure

          total   stress  (Ry/bohr**3)                   (kbar)     P=   -3.40
  -0.00002312   0.00001010  -0.00001010         -3.40      1.49     -1.49
   0.00001010  -0.00002312  -0.00001010          1.49     -3.40     -1.49
  -0.00001010  -0.00001010  -0.00002312         -1.49     -1.49     -3.40


     number of scf cycles    =   4
     number of bfgs steps    =   3

     enthalpy old            =    -352.5134330519 Ry
     enthalpy new            =    -352.5157657830 Ry

     CASE: enthalpy_new < enthalpy_old

     new trust radius        =       0.0139613614 bohr
     new conv_thr            =            1.0E-10 Ry

     new unit-cell volume =    359.71982 a.u.^3 (    53.30498 Ang^3 )
     density =      7.27951 g/cm^3

CELL_PARAMETERS (alat=  1.88972599)
   0.000000000  -3.288606838  -3.288606838
  -3.288606838   3.288606838  -0.000000000
   1.642943754   1.642943754  -1.642943754

ATOMIC_POSITIONS (angstrom)
Ti      -1.645663083   1.642943754  -4.931550592
Nb      -0.021250315  -0.021250315  -3.267356523
Nb      -1.624412768   1.664194069  -1.664194069


     NEW-OLD atomic charge density approx. for the potential
     extrapolated charge   37.95521, renormalised to   38.00000

     total cpu time spent up to now is     4961.1 secs

     Self-consistent Calculation

     iteration #  1     ecut=    50.00 Ry     beta= 0.60
     Davidson diagonalization with overlap
     ethr =  1.00E-06,  avg # of iterations =  4.1

     total cpu time spent up to now is     5023.6 secs

     total energy              =    -352.51592176 Ry
     Harris-Foulkes estimate   =    -352.57756521 Ry
     estimated scf accuracy    <       0.00021637 Ry

     iteration #  2     ecut=    50.00 Ry     beta= 0.60
     Davidson diagonalization with overlap
     ethr =  5.69E-07,  avg # of iterations =  5.3

     total cpu time spent up to now is     5088.7 secs

     total energy              =    -352.51586369 Ry
     Harris-Foulkes estimate   =    -352.51663382 Ry
     estimated scf accuracy    <       0.00531546 Ry

     iteration #  3     ecut=    50.00 Ry     beta= 0.60
     Davidson diagonalization with overlap
     ethr =  5.69E-07,  avg # of iterations =  4.6

     total cpu time spent up to now is     5135.7 secs

     total energy              =    -352.51617305 Ry
     Harris-Foulkes estimate   =    -352.51622125 Ry
     estimated scf accuracy    <       0.00012734 Ry

     iteration #  4     ecut=    50.00 Ry     beta= 0.60
     Davidson diagonalization with overlap
     ethr =  3.35E-07,  avg # of iterations =  2.0

     total cpu time spent up to now is     5169.4 secs

     total energy              =    -352.51616177 Ry
     Harris-Foulkes estimate   =    -352.51618683 Ry
     estimated scf accuracy    <       0.00009310 Ry

     iteration #  5     ecut=    50.00 Ry     beta= 0.60
     Davidson diagonalization with overlap
     ethr =  2.45E-07,  avg # of iterations =  2.1

     total cpu time spent up to now is     5203.3 secs

     total energy              =    -352.51617055 Ry
     Harris-Foulkes estimate   =    -352.51617148 Ry
     estimated scf accuracy    <       0.00000579 Ry

     iteration #  6     ecut=    50.00 Ry     beta= 0.60
     Davidson diagonalization with overlap
     ethr =  1.52E-08,  avg # of iterations =  3.8

     total cpu time spent up to now is     5243.3 secs

     total energy              =    -352.51617185 Ry
     Harris-Foulkes estimate   =    -352.51617214 Ry
     estimated scf accuracy    <       0.00000118 Ry

     iteration #  7     ecut=    50.00 Ry     beta= 0.60
     Davidson diagonalization with overlap
     ethr =  3.10E-09,  avg # of iterations =  2.4

     total cpu time spent up to now is     5277.1 secs

     total energy              =    -352.51617181 Ry
     Harris-Foulkes estimate   =    -352.51617193 Ry
     estimated scf accuracy    <       0.00000039 Ry

     iteration #  8     ecut=    50.00 Ry     beta= 0.60
     Davidson diagonalization with overlap
     ethr =  1.03E-09,  avg # of iterations =  3.2

     total cpu time spent up to now is     5313.2 secs

     total energy              =    -352.51617187 Ry
     Harris-Foulkes estimate   =    -352.51617187 Ry
     estimated scf accuracy    <          1.6E-09 Ry

     iteration #  9     ecut=    50.00 Ry     beta= 0.60
     Davidson diagonalization with overlap
     ethr =  4.11E-12,  avg # of iterations =  4.9

     total cpu time spent up to now is     5367.7 secs

     total energy              =    -352.51617187 Ry
     Harris-Foulkes estimate   =    -352.51617187 Ry
     estimated scf accuracy    <          1.9E-09 Ry

     iteration # 10     ecut=    50.00 Ry     beta= 0.60
     Davidson diagonalization with overlap
     ethr =  4.11E-12,  avg # of iterations =  1.0

     total cpu time spent up to now is     5398.7 secs

     total energy              =    -352.51617187 Ry
     Harris-Foulkes estimate   =    -352.51617187 Ry
     estimated scf accuracy    <          5.2E-10 Ry

     iteration # 11     ecut=    50.00 Ry     beta= 0.60
     Davidson diagonalization with overlap
     ethr =  1.36E-12,  avg # of iterations =  3.6

     total cpu time spent up to now is     5436.1 secs

     total energy              =    -352.51617187 Ry
     Harris-Foulkes estimate   =    -352.51617187 Ry
     estimated scf accuracy    <          2.4E-10 Ry

     iteration # 12     ecut=    50.00 Ry     beta= 0.60
     Davidson diagonalization with overlap
     ethr =  6.31E-13,  avg # of iterations =  1.0

     total cpu time spent up to now is     5467.1 secs

     End of self-consistent calculation

     Number of k-points >= 100: set verbosity='high' to print the bands.

     the Fermi energy is    16.4186 ev

!    total energy              =    -352.51617187 Ry
     Harris-Foulkes estimate   =    -352.51617187 Ry
     estimated scf accuracy    <          4.4E-11 Ry

     The total energy is the sum of the following terms:

     one-electron contribution =     -73.23883647 Ry
     hartree contribution      =      54.24845282 Ry
     xc contribution           =     -51.41619273 Ry
     ewald contribution        =    -282.10934128 Ry
     smearing contrib. (-TS)   =      -0.00025422 Ry

     convergence has been achieved in  12 iterations

     Forces acting on atoms (cartesian axes, Ry/au):

     atom    1 type  2   force =     0.00000000    0.00000000    0.00000000
     atom    2 type  1   force =    -0.00781880   -0.00781880    0.00781880
     atom    3 type  1   force =     0.00781880    0.00781880   -0.00781880

     Total force =     0.019152     Total SCF correction =     0.000001


     Computing stress (Cartesian axis) and pressure

          total   stress  (Ry/bohr**3)                   (kbar)     P=   -1.56
  -0.00001061   0.00001181  -0.00001181         -1.56      1.74     -1.74
   0.00001181  -0.00001061  -0.00001181          1.74     -1.56     -1.74
  -0.00001181  -0.00001181  -0.00001061         -1.74     -1.74     -1.56


     number of scf cycles    =   5
     number of bfgs steps    =   4

     enthalpy old            =    -352.5157657831 Ry
     enthalpy new            =    -352.5161718720 Ry

     CASE: enthalpy_new < enthalpy_old


     WARNING: bfgs curvature condition failed, Theta= 0.868
     new trust radius        =       0.0153591617 bohr
     new conv_thr            =            1.0E-10 Ry

     new unit-cell volume =    359.54214 a.u.^3 (    53.27865 Ang^3 )
     density =      7.28311 g/cm^3

CELL_PARAMETERS (alat=  1.88972599)
   0.000000000  -3.286983708  -3.286983708
  -3.286983708   3.286983708  -0.000000000
   1.643754408   1.643754408  -1.643754408

ATOMIC_POSITIONS (angstrom)
Ti      -1.643229300   1.643754408  -4.930738116
Nb      -0.024873730  -0.024873730  -3.262109978
Nb      -1.618355570   1.668628138  -1.668628138


     NEW-OLD atomic charge density approx. for the potential
     extrapolated charge   37.98172, renormalised to   38.00000

     total cpu time spent up to now is     5493.2 secs

     Self-consistent Calculation

     iteration #  1     ecut=    50.00 Ry     beta= 0.60
     Davidson diagonalization with overlap
     ethr =  1.00E-06,  avg # of iterations =  4.1

     total cpu time spent up to now is     5554.0 secs

     total energy              =    -352.51654793 Ry
     Harris-Foulkes estimate   =    -352.54161934 Ry
     estimated scf accuracy    <       0.00004472 Ry

     iteration #  2     ecut=    50.00 Ry     beta= 0.60
     Davidson diagonalization with overlap
     ethr =  1.18E-07,  avg # of iterations =  3.9

     total cpu time spent up to now is     5601.5 secs

     total energy              =    -352.51657367 Ry
     Harris-Foulkes estimate   =    -352.51659195 Ry
     estimated scf accuracy    <       0.00004351 Ry

     iteration #  3     ecut=    50.00 Ry     beta= 0.60
     Davidson diagonalization with overlap
     ethr =  1.14E-07,  avg # of iterations =  3.9

     total cpu time spent up to now is     5639.7 secs

     total energy              =    -352.51656701 Ry
     Harris-Foulkes estimate   =    -352.51658794 Ry
     estimated scf accuracy    <       0.00009530 Ry

     iteration #  4     ecut=    50.00 Ry     beta= 0.60
     Davidson diagonalization with overlap
     ethr =  1.14E-07,  avg # of iterations =  3.6

     total cpu time spent up to now is     5676.8 secs

     total energy              =    -352.51657680 Ry
     Harris-Foulkes estimate   =    -352.51658223 Ry
     estimated scf accuracy    <       0.00002897 Ry

     iteration #  5     ecut=    50.00 Ry     beta= 0.60
     Davidson diagonalization with overlap
     ethr =  7.62E-08,  avg # of iterations =  2.3

     total cpu time spent up to now is     5709.2 secs

     total energy              =    -352.51657914 Ry
     Harris-Foulkes estimate   =    -352.51657922 Ry
     estimated scf accuracy    <       0.00000034 Ry

     iteration #  6     ecut=    50.00 Ry     beta= 0.60
     Davidson diagonalization with overlap
     ethr =  8.94E-10,  avg # of iterations =  4.9

     total cpu time spent up to now is     5757.5 secs

     total energy              =    -352.51657965 Ry
     Harris-Foulkes estimate   =    -352.51657985 Ry
     estimated scf accuracy    <       0.00000163 Ry

     iteration #  7     ecut=    50.00 Ry     beta= 0.60
     Davidson diagonalization with overlap
     ethr =  8.94E-10,  avg # of iterations =  3.4

     total cpu time spent up to now is     5791.7 secs

     total energy              =    -352.51657967 Ry
     Harris-Foulkes estimate   =    -352.51657970 Ry
     estimated scf accuracy    <       0.00000027 Ry

     iteration #  8     ecut=    50.00 Ry     beta= 0.60
     Davidson diagonalization with overlap
     ethr =  7.03E-10,  avg # of iterations =  2.9

     total cpu time spent up to now is     5826.1 secs

     total energy              =    -352.51657969 Ry
     Harris-Foulkes estimate   =    -352.51657969 Ry
     estimated scf accuracy    <          2.2E-09 Ry

     iteration #  9     ecut=    50.00 Ry     beta= 0.60
     Davidson diagonalization with overlap
     ethr =  5.91E-12,  avg # of iterations =  5.1

     total cpu time spent up to now is     5874.5 secs

     total energy              =    -352.51657970 Ry
     Harris-Foulkes estimate   =    -352.51657970 Ry
     estimated scf accuracy    <       0.00000002 Ry

     iteration # 10     ecut=    50.00 Ry     beta= 0.60
     Davidson diagonalization with overlap
     ethr =  5.91E-12,  avg # of iterations =  3.4

     total cpu time spent up to now is     5909.2 secs

     total energy              =    -352.51657970 Ry
     Harris-Foulkes estimate   =    -352.51657970 Ry
     estimated scf accuracy    <          1.6E-09 Ry

     iteration # 11     ecut=    50.00 Ry     beta= 0.60
     Davidson diagonalization with overlap
     ethr =  4.12E-12,  avg # of iterations =  2.7

     total cpu time spent up to now is     5943.2 secs

     End of self-consistent calculation

     Number of k-points >= 100: set verbosity='high' to print the bands.

     the Fermi energy is    16.4271 ev

!    total energy              =    -352.51657970 Ry
     Harris-Foulkes estimate   =    -352.51657970 Ry
     estimated scf accuracy    <          9.3E-12 Ry

     The total energy is the sum of the following terms:

     one-electron contribution =     -73.18240535 Ry
     hartree contribution      =      54.23293664 Ry
     xc contribution           =     -51.41785765 Ry
     ewald contribution        =    -282.14910343 Ry
     smearing contrib. (-TS)   =      -0.00014991 Ry

     convergence has been achieved in  11 iterations

     Forces acting on atoms (cartesian axes, Ry/au):

     atom    1 type  2   force =    -0.00000000    0.00000000    0.00000000
     atom    2 type  1   force =    -0.00710937   -0.00710937    0.00710937
     atom    3 type  1   force =     0.00710937    0.00710937   -0.00710937

     Total force =     0.017414     Total SCF correction =     0.000001


     Computing stress (Cartesian axis) and pressure

          total   stress  (Ry/bohr**3)                   (kbar)     P=   -0.82
  -0.00000555   0.00001298  -0.00001298         -0.82      1.91     -1.91
   0.00001298  -0.00000555  -0.00001298          1.91     -0.82     -1.91
  -0.00001298  -0.00001298  -0.00000555         -1.91     -1.91     -0.82


     number of scf cycles    =   6
     number of bfgs steps    =   5

     enthalpy old            =    -352.5161718720 Ry
     enthalpy new            =    -352.5165796967 Ry

     CASE: enthalpy_new < enthalpy_old

     new trust radius        =       0.0230501103 bohr
     new conv_thr            =            1.0E-10 Ry

     new unit-cell volume =    359.48358 a.u.^3 (    53.26997 Ang^3 )
     density =      7.28430 g/cm^3

CELL_PARAMETERS (alat=  1.88972599)
   0.000000000  -3.284913177  -3.284913177
  -3.284913177   3.284913177  -0.000000000
   1.645559199   1.645559199  -1.645559199

ATOMIC_POSITIONS (angstrom)
Ti      -1.639353978   1.645559199  -4.930472376
Nb      -0.030057877  -0.030057877  -3.254855300
Nb      -1.609296101   1.675617076  -1.675617076


     NEW-OLD atomic charge density approx. for the potential
     extrapolated charge   37.99397, renormalised to   38.00000

     total cpu time spent up to now is     5969.3 secs

     Self-consistent Calculation

     iteration #  1     ecut=    50.00 Ry     beta= 0.60
     Davidson diagonalization with overlap
     ethr =  1.00E-06,  avg # of iterations =  5.0

     total cpu time spent up to now is     6033.2 secs

     total energy              =    -352.51707427 Ry
     Harris-Foulkes estimate   =    -352.52538091 Ry
     estimated scf accuracy    <       0.00010596 Ry

     iteration #  2     ecut=    50.00 Ry     beta= 0.60
     Davidson diagonalization with overlap
     ethr =  2.79E-07,  avg # of iterations =  4.5

     total cpu time spent up to now is     6080.2 secs

     total energy              =    -352.51694035 Ry
     Harris-Foulkes estimate   =    -352.51726048 Ry
     estimated scf accuracy    <       0.00195625 Ry

     iteration #  3     ecut=    50.00 Ry     beta= 0.60
     Davidson diagonalization with overlap
     ethr =  2.79E-07,  avg # of iterations =  4.6

     total cpu time spent up to now is     6124.3 secs

     total energy              =    -352.51711266 Ry
     Harris-Foulkes estimate   =    -352.51712239 Ry
     estimated scf accuracy    <       0.00006438 Ry

     iteration #  4     ecut=    50.00 Ry     beta= 0.60
     Davidson diagonalization with overlap
     ethr =  1.69E-07,  avg # of iterations =  1.0

     total cpu time spent up to now is     6155.4 secs

     total energy              =    -352.51711563 Ry
     Harris-Foulkes estimate   =    -352.51711625 Ry
     estimated scf accuracy    <       0.00000406 Ry

     iteration #  5     ecut=    50.00 Ry     beta= 0.60
     Davidson diagonalization with overlap
     ethr =  1.07E-08,  avg # of iterations =  4.7

     total cpu time spent up to now is     6198.3 secs

     total energy              =    -352.51711725 Ry
     Harris-Foulkes estimate   =    -352.51711794 Ry
     estimated scf accuracy    <       0.00000501 Ry

     iteration #  6     ecut=    50.00 Ry     beta= 0.60
     Davidson diagonalization with overlap
     ethr =  1.07E-08,  avg # of iterations =  1.0

     total cpu time spent up to now is     6229.3 secs

     total energy              =    -352.51711741 Ry
     Harris-Foulkes estimate   =    -352.51711747 Ry
     estimated scf accuracy    <       0.00000050 Ry

     iteration #  7     ecut=    50.00 Ry     beta= 0.60
     Davidson diagonalization with overlap
     ethr =  1.30E-09,  avg # of iterations =  4.1

     total cpu time spent up to now is     6269.6 secs

     total energy              =    -352.51711754 Ry
     Harris-Foulkes estimate   =    -352.51711755 Ry
     estimated scf accuracy    <       0.00000012 Ry

     iteration #  8     ecut=    50.00 Ry     beta= 0.60
     Davidson diagonalization with overlap
     ethr =  3.04E-10,  avg # of iterations =  1.2

     total cpu time spent up to now is     6300.8 secs

     total energy              =    -352.51711754 Ry
     Harris-Foulkes estimate   =    -352.51711755 Ry
     estimated scf accuracy    <       0.00000002 Ry

     iteration #  9     ecut=    50.00 Ry     beta= 0.60
     Davidson diagonalization with overlap
     ethr =  4.89E-11,  avg # of iterations =  3.5

     total cpu time spent up to now is     6337.8 secs

     total energy              =    -352.51711755 Ry
     Harris-Foulkes estimate   =    -352.51711755 Ry
     estimated scf accuracy    <          7.4E-10 Ry

     iteration # 10     ecut=    50.00 Ry     beta= 0.60
     Davidson diagonalization with overlap
     ethr =  1.94E-12,  avg # of iterations =  3.5

     total cpu time spent up to now is     6376.1 secs

     End of self-consistent calculation

     Number of k-points >= 100: set verbosity='high' to print the bands.

     the Fermi energy is    16.4295 ev

[...]

     total energy              =    -352.51804459 Ry
     Harris-Foulkes estimate   =    -352.51804459 Ry
     estimated scf accuracy    <          5.2E-10 Ry

     iteration #  5     ecut=    50.00 Ry     beta= 0.60
     Davidson diagonalization with overlap
     ethr =  1.37E-12,  avg # of iterations =  2.2

     total cpu time spent up to now is     9888.0 secs

     total energy              =    -352.51804459 Ry
     Harris-Foulkes estimate   =    -352.51804459 Ry
     estimated scf accuracy    <          7.0E-11 Ry

     iteration #  6     ecut=    50.00 Ry     beta= 0.60
     Davidson diagonalization with overlap
     ethr =  1.84E-13,  avg # of iterations =  3.8

     total cpu time spent up to now is     9926.6 secs

     total energy              =    -352.51804459 Ry
     Harris-Foulkes estimate   =    -352.51804459 Ry
     estimated scf accuracy    <          9.9E-12 Ry

     iteration #  7     ecut=    50.00 Ry     beta= 0.60
     Davidson diagonalization with overlap
     ethr =  1.00E-13,  avg # of iterations =  1.0

     total cpu time spent up to now is     9957.8 secs

     total energy              =    -352.51804459 Ry
     Harris-Foulkes estimate   =    -352.51804459 Ry
     estimated scf accuracy    <          2.8E-12 Ry

     iteration #  8     ecut=    50.00 Ry     beta= 0.60
     Davidson diagonalization with overlap
     ethr =  1.00E-13,  avg # of iterations =  1.0

     total cpu time spent up to now is     9988.9 secs

     End of self-consistent calculation

     Number of k-points >= 100: set verbosity='high' to print the bands.

     the Fermi energy is    16.4308 ev

!    total energy              =    -352.51804458 Ry
     Harris-Foulkes estimate   =    -352.51804458 Ry
     estimated scf accuracy    <          6.1E-13 Ry

     The total energy is the sum of the following terms:

     one-electron contribution =     -73.32503471 Ry
     hartree contribution      =      54.28684045 Ry
     xc contribution           =     -51.41982597 Ry
     ewald contribution        =    -282.06035608 Ry
     smearing contrib. (-TS)   =       0.00033172 Ry

     convergence has been achieved in   8 iterations

     Forces acting on atoms (cartesian axes, Ry/au):

     atom    1 type  2   force =     0.00000000    0.00000000    0.00000000
     atom    2 type  1   force =     0.00000532    0.00000532   -0.00000532
     atom    3 type  1   force =    -0.00000532   -0.00000532    0.00000532

     Total force =     0.000013     Total SCF correction =     0.000000


     Computing stress (Cartesian axis) and pressure

          total   stress  (Ry/bohr**3)                   (kbar)     P=    0.00
   0.00000003   0.00000006  -0.00000006          0.00      0.01     -0.01
   0.00000006   0.00000003  -0.00000006          0.01      0.00     -0.01
  -0.00000006  -0.00000006   0.00000003         -0.01     -0.01      0.00


     bfgs converged in  16 scf cycles and  15 bfgs steps
     (criteria: energy <  1.0E-10 Ry, force <  1.0E-05Ry/Bohr, cell <  1.0E-03kbar)

     End of BFGS Geometry Optimization

     Final enthalpy =    -352.5180445850 Ry
Begin final coordinates
     new unit-cell volume =    359.61255 a.u.^3 (    53.28908 Ang^3 )
     density =      7.28169 g/cm^3

CELL_PARAMETERS (alat=  1.88972599)
   0.000000000  -3.277251240  -3.277251240
  -3.277251240   3.277251240  -0.000000000
   1.653855673   1.653855673  -1.653855673

ATOMIC_POSITIONS (angstrom)
Ti      -1.623395568   1.653855673  -4.931106913
Nb      -0.046542682  -0.046542682  -3.230708558
Nb      -1.576852885   1.700398355  -1.700398355
End final coordinates



     A final scf calculation at the relaxed structure.
     The G-vectors are recalculated for the final unit cell
     Results may differ from those at the preceding step.
 
     G-vector sticks info
     --------------------
     sticks:   dense  smooth     PW     G-vecs:    dense   smooth      PW
     Sum        2647    1057    313                67905    17197    2881
 


     bravais-lattice index     =            0
     lattice parameter (alat)  =       1.8897  a.u.
     unit-cell volume          =     359.6126 (a.u.)^3
     number of atoms/cell      =            3
     number of atomic types    =            2
     number of electrons       =        38.00
     number of Kohn-Sham states=           23
     kinetic-energy cutoff     =      50.0000  Ry
     charge density cutoff     =     500.0000  Ry
     convergence threshold     =      1.0E-12
     mixing beta               =       0.6000
     number of iterations used =            8  plain     mixing
     Exchange-correlation      = SLA PW PBE PBE ( 1  4  3  4 0 0)

     celldm(1)=   1.889726  celldm(2)=   0.000000  celldm(3)=   0.000000
     celldm(4)=   0.000000  celldm(5)=   0.000000  celldm(6)=   0.000000

     crystal axes: (cart. coord. in units of alat)
               a(1) = (   0.000000  -3.277251  -3.277251 )  
               a(2) = (  -3.277251   3.277251  -0.000000 )  
               a(3) = (   1.653856   1.653856  -1.653856 )  

     reciprocal axes: (cart. coord. in units 2 pi/alat)
               b(1) = ( -0.101711 -0.101711 -0.203423 )  
               b(2) = ( -0.203423  0.101711 -0.101711 )  
               b(3) = (  0.201549  0.201549 -0.201549 )  


     PseudoPot. # 1 for Nb read from file:
     /home/u16/abhishekkt/fp/krishna/calculations/pseudopotentials/Nb.pbe-nsp-van.UPF
     MD5 check sum: c44c1a86bf31974e1e832c2ec821fd5f
     Pseudo is Ultrasoft + core correction, Zval = 13.0
     Generated by new atomic code, or converted to UPF format
     Using radial grid of  887 points,  6 beta functions with: 
                l(1) =   0
                l(2) =   0
                l(3) =   1
                l(4) =   1
                l(5) =   2
                l(6) =   2
     Q(r) pseudized with  6 coefficients,  rinner =    1.000   1.000   1.000
                                                       1.000   1.000

     PseudoPot. # 2 for Ti read from file:
     /home/u16/abhishekkt/fp/krishna/calculations/pseudopotentials/Ti.pbe-sp-van_ak.UPF
     MD5 check sum: 84d3ec9e8983e94242673103c800fb48
     Pseudo is Ultrasoft, Zval = 12.0
     Generated by new atomic code, or converted to UPF format
     Using radial grid of  851 points,  6 beta functions with: 
                l(1) =   0
                l(2) =   0
                l(3) =   1
                l(4) =   1
                l(5) =   2
                l(6) =   2
     Q(r) pseudized with  8 coefficients,  rinner =    1.000   1.000   1.000
                                                       1.000   1.000

     atomic species   valence    mass     pseudopotential
        Nb            13.00    92.90638     Nb( 1.00)
        Ti            12.00    47.86700     Ti( 1.00)

     12 Sym. Ops., with inversion, found



   Cartesian axes

     site n.     atom                  positions (alat units)
         1           Ti  tau(   1) = (  -1.6233957   1.6538558  -4.9311073  )
         2           Nb  tau(   2) = (  -0.0465427  -0.0465427  -3.2307088  )
         3           Nb  tau(   3) = (  -1.5768530   1.7003985  -1.7003985  )

     number of k points=   298  Marzari-Vanderbilt smearing, width (Ry)=  0.0200

     Number of k-points >= 100: set verbosity='high' to print them.

     Dense  grid:    67905 G-vectors     FFT dimensions: (  64,  64,  40)

     Smooth grid:    17197 G-vectors     FFT dimensions: (  40,  40,  25)

     Estimated max dynamical RAM per process >     479.94 MB

     Initial potential from superposition of free atoms

     starting charge   36.99449, renormalised to   38.00000
     Starting wfcs are   36 randomized atomic wfcs

     total cpu time spent up to now is    10024.2 secs

     Self-consistent Calculation

     iteration #  1     ecut=    50.00 Ry     beta= 0.60
     Davidson diagonalization with overlap
     ethr =  1.00E-06,  avg # of iterations = 11.1

     total cpu time spent up to now is    10094.0 secs

     total energy              =    -343.28217168 Ry
     Harris-Foulkes estimate   =    -353.65532001 Ry
     estimated scf accuracy    <      13.10450565 Ry

     iteration #  2     ecut=    50.00 Ry     beta= 0.60
     Davidson diagonalization with overlap
     ethr =  1.00E-02,  avg # of iterations =  5.9

     total cpu time spent up to now is    10138.8 secs

     total energy              =    -342.86703386 Ry
     Harris-Foulkes estimate   =    -364.33774414 Ry
     estimated scf accuracy    <      68.10044559 Ry

     iteration #  3     ecut=    50.00 Ry     beta= 0.60
     Davidson diagonalization with overlap
     ethr =  1.00E-02,  avg # of iterations =  3.1

     total cpu time spent up to now is    10170.1 secs

     total energy              =    -353.03043788 Ry
     Harris-Foulkes estimate   =    -353.39786060 Ry
     estimated scf accuracy    <       3.87174903 Ry

     iteration #  4     ecut=    50.00 Ry     beta= 0.60
     Davidson diagonalization with overlap
     ethr =  1.00E-02,  avg # of iterations =  1.0

     total cpu time spent up to now is    10192.7 secs

     total energy              =    -351.99207510 Ry
     Harris-Foulkes estimate   =    -353.05425649 Ry
     estimated scf accuracy    <       3.05322860 Ry

     iteration #  5     ecut=    50.00 Ry     beta= 0.60
     Davidson diagonalization with overlap
     ethr =  8.03E-03,  avg # of iterations =  4.2

     total cpu time spent up to now is    10224.3 secs

     total energy              =    -352.49096359 Ry
     Harris-Foulkes estimate   =    -352.60101797 Ry
     estimated scf accuracy    <       1.24440604 Ry

     iteration #  6     ecut=    50.00 Ry     beta= 0.60
     Davidson diagonalization with overlap
     ethr =  3.27E-03,  avg # of iterations =  1.1

     total cpu time spent up to now is    10247.0 secs

     total energy              =    -352.45208317 Ry
     Harris-Foulkes estimate   =    -352.52472431 Ry
     estimated scf accuracy    <       0.25184605 Ry

     iteration #  7     ecut=    50.00 Ry     beta= 0.60
     Davidson diagonalization with overlap
     ethr =  6.63E-04,  avg # of iterations =  4.5

     total cpu time spent up to now is    10277.4 secs

     total energy              =    -352.52755299 Ry
     Harris-Foulkes estimate   =    -352.54740846 Ry
     estimated scf accuracy    <       0.29507816 Ry

     iteration #  8     ecut=    50.00 Ry     beta= 0.60
     Davidson diagonalization with overlap
     ethr =  6.63E-04,  avg # of iterations =  1.0

     total cpu time spent up to now is    10300.0 secs

     total energy              =    -352.51355792 Ry
     Harris-Foulkes estimate   =    -352.52991137 Ry
     estimated scf accuracy    <       0.18589552 Ry

     iteration #  9     ecut=    50.00 Ry     beta= 0.60
     Davidson diagonalization with overlap
     ethr =  4.89E-04,  avg # of iterations =  1.7

     total cpu time spent up to now is    10323.2 secs

     total energy              =    -352.51078770 Ry
     Harris-Foulkes estimate   =    -352.51878428 Ry
     estimated scf accuracy    <       0.04617284 Ry

     iteration # 10     ecut=    50.00 Ry     beta= 0.60
     Davidson diagonalization with overlap
     ethr =  1.22E-04,  avg # of iterations =  4.3

     total cpu time spent up to now is    10351.9 secs

     total energy              =    -352.51730059 Ry
     Harris-Foulkes estimate   =    -352.51796084 Ry
     estimated scf accuracy    <       0.00561809 Ry

     iteration # 11     ecut=    50.00 Ry     beta= 0.60
     Davidson diagonalization with overlap
     ethr =  1.48E-05,  avg # of iterations =  3.5

     total cpu time spent up to now is    10378.1 secs

     total energy              =    -352.51786597 Ry
     Harris-Foulkes estimate   =    -352.51772072 Ry
     estimated scf accuracy    <       0.00123391 Ry

     iteration # 12     ecut=    50.00 Ry     beta= 0.60
     Davidson diagonalization with overlap
     ethr =  3.25E-06,  avg # of iterations =  2.7

     total cpu time spent up to now is    10402.2 secs

     total energy              =    -352.51749660 Ry
     Harris-Foulkes estimate   =    -352.51792766 Ry
     estimated scf accuracy    <       0.00328586 Ry

     iteration # 13     ecut=    50.00 Ry     beta= 0.60
     Davidson diagonalization with overlap
     ethr =  3.25E-06,  avg # of iterations =  2.5

     total cpu time spent up to now is    10426.3 secs

     total energy              =    -352.51763838 Ry
     Harris-Foulkes estimate   =    -352.51765862 Ry
     estimated scf accuracy    <       0.00016499 Ry

     iteration # 14     ecut=    50.00 Ry     beta= 0.60
     Davidson diagonalization with overlap
     ethr =  4.34E-07,  avg # of iterations =  4.3

     total cpu time spent up to now is    10456.4 secs

     total energy              =    -352.51768656 Ry
     Harris-Foulkes estimate   =    -352.51768859 Ry
     estimated scf accuracy    <       0.00002503 Ry

     iteration # 15     ecut=    50.00 Ry     beta= 0.60
     Davidson diagonalization with overlap
     ethr =  6.59E-08,  avg # of iterations =  2.2

     total cpu time spent up to now is    10480.2 secs

     total energy              =    -352.51768554 Ry
     Harris-Foulkes estimate   =    -352.51768741 Ry
     estimated scf accuracy    <       0.00001119 Ry

     iteration # 16     ecut=    50.00 Ry     beta= 0.60
     Davidson diagonalization with overlap
     ethr =  2.95E-08,  avg # of iterations =  2.4

     total cpu time spent up to now is    10505.0 secs

     total energy              =    -352.51768680 Ry
     Harris-Foulkes estimate   =    -352.51768680 Ry
     estimated scf accuracy    <       0.00000024 Ry

     iteration # 17     ecut=    50.00 Ry     beta= 0.60
     Davidson diagonalization with overlap
     ethr =  6.23E-10,  avg # of iterations =  4.7

     total cpu time spent up to now is    10536.8 secs

     total energy              =    -352.51768684 Ry
     Harris-Foulkes estimate   =    -352.51768691 Ry
     estimated scf accuracy    <       0.00000070 Ry

     iteration # 18     ecut=    50.00 Ry     beta= 0.60
     Davidson diagonalization with overlap
     ethr =  6.23E-10,  avg # of iterations =  1.3

     total cpu time spent up to now is    10559.6 secs

     total energy              =    -352.51768685 Ry
     Harris-Foulkes estimate   =    -352.51768686 Ry
     estimated scf accuracy    <       0.00000015 Ry

     iteration # 19     ecut=    50.00 Ry     beta= 0.60
     Davidson diagonalization with overlap
     ethr =  3.88E-10,  avg # of iterations =  1.6

     total cpu time spent up to now is    10582.8 secs

     total energy              =    -352.51768685 Ry
     Harris-Foulkes estimate   =    -352.51768685 Ry
     estimated scf accuracy    <       0.00000008 Ry

     iteration # 20     ecut=    50.00 Ry     beta= 0.60
     Davidson diagonalization with overlap
     ethr =  2.00E-10,  avg # of iterations =  2.2

     total cpu time spent up to now is    10606.6 secs

     total energy              =    -352.51768685 Ry
     Harris-Foulkes estimate   =    -352.51768685 Ry
     estimated scf accuracy    <       0.00000004 Ry

     iteration # 21     ecut=    50.00 Ry     beta= 0.60
     Davidson diagonalization with overlap
     ethr =  9.94E-11,  avg # of iterations =  2.8

     total cpu time spent up to now is    10631.4 secs

     total energy              =    -352.51768685 Ry
     Harris-Foulkes estimate   =    -352.51768685 Ry
     estimated scf accuracy    <          7.4E-09 Ry

     iteration # 22     ecut=    50.00 Ry     beta= 0.60
     Davidson diagonalization with overlap
     ethr =  1.95E-11,  avg # of iterations =  3.4

     total cpu time spent up to now is    10657.8 secs

     total energy              =    -352.51768685 Ry
     Harris-Foulkes estimate   =    -352.51768685 Ry
     estimated scf accuracy    <          4.9E-11 Ry

     iteration # 23     ecut=    50.00 Ry     beta= 0.60
     Davidson diagonalization with overlap
     ethr =  1.30E-13,  avg # of iterations =  4.8

     total cpu time spent up to now is    10691.4 secs

     End of self-consistent calculation

     Number of k-points >= 100: set verbosity='high' to print the bands.

     the Fermi energy is    16.4310 ev

!    total energy              =    -352.51768685 Ry
     Harris-Foulkes estimate   =    -352.51768685 Ry
     estimated scf accuracy    <          5.6E-13 Ry

     The total energy is the sum of the following terms:

     one-electron contribution =     -73.32484779 Ry
     hartree contribution      =      54.28697108 Ry
     xc contribution           =     -51.41978577 Ry
     ewald contribution        =    -282.06035608 Ry
     smearing contrib. (-TS)   =       0.00033171 Ry

     convergence has been achieved in  23 iterations

     Forces acting on atoms (cartesian axes, Ry/au):

     atom    1 type  2   force =     0.00000000    0.00000000    0.00000000
     atom    2 type  1   force =     0.00000065    0.00000065   -0.00000065
     atom    3 type  1   force =    -0.00000065   -0.00000065    0.00000065

     Total force =     0.000002     Total SCF correction =     0.000000


     Computing stress (Cartesian axis) and pressure

          total   stress  (Ry/bohr**3)                   (kbar)     P=   -1.19
  -0.00000812  -0.00000004   0.00000004         -1.19     -0.01      0.01
  -0.00000004  -0.00000812   0.00000004         -0.01     -1.19      0.01
   0.00000004   0.00000004  -0.00000812          0.01      0.01     -1.19

 
     init_run     :     34.49s CPU     35.53s WALL (       2 calls)
     electrons    :  10000.30s CPU  10237.31s WALL (      17 calls)
     update_pot   :     61.02s CPU     61.36s WALL (      15 calls)
     forces       :     84.52s CPU     89.68s WALL (      17 calls)
     stress       :    247.84s CPU    263.50s WALL (      17 calls)

     Called by init_run:
     wfcinit      :     29.47s CPU     29.90s WALL (       2 calls)
     potinit      :      1.35s CPU      1.38s WALL (       2 calls)
     hinit0       :      3.16s CPU      3.18s WALL (       2 calls)

     Called by electrons:
     c_bands      :   8404.97s CPU   8487.40s WALL (     262 calls)
     sum_band     :   1469.65s CPU   1546.00s WALL (     262 calls)
     v_of_rho     :     27.65s CPU     29.65s WALL (     272 calls)
     newd         :    102.04s CPU    177.21s WALL (     272 calls)
     mix_rho      :      2.75s CPU      2.82s WALL (     262 calls)

     Called by c_bands:
     init_us_2    :    232.58s CPU    233.19s WALL (  166880 calls)
     cegterg      :   7433.46s CPU   7479.16s WALL (   78076 calls)

     Called by sum_band:
     sum_band:bec :      1.13s CPU      1.17s WALL (   78076 calls)
     addusdens    :    121.75s CPU    190.40s WALL (     262 calls)

     Called by *egterg:
     h_psi        :   6025.88s CPU   6063.81s WALL (  331789 calls)
     s_psi        :    205.09s CPU    206.36s WALL (  331789 calls)
     g_psi        :     61.45s CPU     62.94s WALL (  253117 calls)
     cdiaghg      :    347.94s CPU    349.54s WALL (  324637 calls)

     Called by h_psi:
     h_psi:pot    :   5999.63s CPU   6037.09s WALL (  331789 calls)
     h_psi:calbec :    205.73s CPU    207.46s WALL (  331789 calls)
     vloc_psi     :   5585.60s CPU   5620.27s WALL (  331789 calls)
     add_vuspsi   :    207.01s CPU    207.58s WALL (  331789 calls)

     General routines
     calbec       :    297.42s CPU    299.24s WALL (  435195 calls)
     fft          :     11.63s CPU     11.71s WALL (    3966 calls)
     ffts         :      0.29s CPU      0.29s WALL (     534 calls)
     fftw         :   5939.98s CPU   5977.33s WALL (11346032 calls)
     interpolate  :      1.07s CPU      1.09s WALL (     272 calls)
 
     Parallel routines
 
     PWSCF        :     2h53m CPU       53h 2m WALL

      58h
 
   This run was terminated on:  22:18:44  13Jan2020            

=------------------------------------------------------------------------------=
   JOB DONE.
=------------------------------------------------------------------------------=
