
     Program PWSCF v.5.4.0 starts on 17Sep2019 at 11: 0: 6 

     This program is part of the open-source Quantum ESPRESSO suite
     for quantum simulation of materials; please cite
         "P. Giannozzi et al., J. Phys.:Condens. Matter 21 395502 (2009);
          URL http://www.quantum-espresso.org", 
     in publications or presentations arising from this work. More details at
     http://www.quantum-espresso.org/quote

     Serial version
     Waiting for input...
     Reading input from standard input

     Current dimensions of program PWSCF are:
     Max number of different atomic species (ntypx) = 10
     Max number of k-points (npk) =  40000
     Max angular momentum in pseudopotentials (lmaxx) =  3

     Atomic positions and unit cell read from directory:
     ./output/silicon.save/

     Message from routine setup:
     no reason to have ecutrho>4*ecutwfc

     G-vector sticks info
     --------------------
     sticks:   dense  smooth     PW     G-vecs:    dense   smooth      PW
     Sum         733     361    121                12939     4573     869



     bravais-lattice index     =            2
     lattice parameter (alat)  =      10.2600  a.u.
     unit-cell volume          =     270.0114 (a.u.)^3
     number of atoms/cell      =            2
     number of atomic types    =            1
     number of electrons       =         8.00
     number of Kohn-Sham states=            8
     kinetic-energy cutoff     =      25.0000  Ry
     charge density cutoff     =     200.0000  Ry
     Exchange-correlation      =  SLA  PZ   NOGX NOGC ( 1  1  0  0 0 0)

     celldm(1)=  10.260000  celldm(2)=   0.000000  celldm(3)=   0.000000
     celldm(4)=   0.000000  celldm(5)=   0.000000  celldm(6)=   0.000000

     crystal axes: (cart. coord. in units of alat)
               a(1) = (  -0.500000   0.000000   0.500000 )  
               a(2) = (   0.000000   0.500000   0.500000 )  
               a(3) = (  -0.500000   0.500000   0.000000 )  

     reciprocal axes: (cart. coord. in units 2 pi/alat)
               b(1) = ( -1.000000 -1.000000  1.000000 )  
               b(2) = (  1.000000  1.000000  1.000000 )  
               b(3) = ( -1.000000  1.000000 -1.000000 )  


     PseudoPot. # 1 for Si read from file:
     ../pseudo/Si.pz-vbc.UPF
     MD5 check sum: 6dfa03ddd5817404712e03e4d12deb78
     Pseudo is Norm-conserving, Zval =  4.0
     Generated by new atomic code, or converted to UPF format
     Using radial grid of  431 points,  2 beta functions with: 
                l(1) =   0
                l(2) =   1

     atomic species   valence    mass     pseudopotential
        Si             4.00    28.08600     Si( 1.00)

     48 Sym. Ops., with inversion, found (24 have fractional translation)



   Cartesian axes

     site n.     atom                  positions (alat units)
         1           Si  tau(   1) = (   0.0000000   0.0000000   0.0000000  )
         2           Si  tau(   2) = (   0.2500000   0.2500000   0.2500000  )

     number of k points=    91
                       cart. coord. in units 2pi/alat
        k(    1) = (   0.5000000   0.5000000   0.5000000), wk =   0.0219780
        k(    2) = (   0.4750000   0.4750000   0.4750000), wk =   0.0219780
        k(    3) = (   0.4500000   0.4500000   0.4500000), wk =   0.0219780
        k(    4) = (   0.4250000   0.4250000   0.4250000), wk =   0.0219780
        k(    5) = (   0.4000000   0.4000000   0.4000000), wk =   0.0219780
        k(    6) = (   0.3750000   0.3750000   0.3750000), wk =   0.0219780
        k(    7) = (   0.3500000   0.3500000   0.3500000), wk =   0.0219780
        k(    8) = (   0.3250000   0.3250000   0.3250000), wk =   0.0219780
        k(    9) = (   0.3000000   0.3000000   0.3000000), wk =   0.0219780
        k(   10) = (   0.2750000   0.2750000   0.2750000), wk =   0.0219780
        k(   11) = (   0.2500000   0.2500000   0.2500000), wk =   0.0219780
        k(   12) = (   0.2250000   0.2250000   0.2250000), wk =   0.0219780
        k(   13) = (   0.2000000   0.2000000   0.2000000), wk =   0.0219780
        k(   14) = (   0.1750000   0.1750000   0.1750000), wk =   0.0219780
        k(   15) = (   0.1500000   0.1500000   0.1500000), wk =   0.0219780
        k(   16) = (   0.1250000   0.1250000   0.1250000), wk =   0.0219780
        k(   17) = (   0.1000000   0.1000000   0.1000000), wk =   0.0219780
        k(   18) = (   0.0750000   0.0750000   0.0750000), wk =   0.0219780
        k(   19) = (   0.0500000   0.0500000   0.0500000), wk =   0.0219780
        k(   20) = (   0.0250000   0.0250000   0.0250000), wk =   0.0219780
        k(   21) = (   0.0000000   0.0000000   0.0000000), wk =   0.0219780
        k(   22) = (   0.0333333   0.0000000   0.0000000), wk =   0.0219780
        k(   23) = (   0.0666667   0.0000000   0.0000000), wk =   0.0219780
        k(   24) = (   0.1000000   0.0000000   0.0000000), wk =   0.0219780
        k(   25) = (   0.1333333   0.0000000   0.0000000), wk =   0.0219780
        k(   26) = (   0.1666667   0.0000000   0.0000000), wk =   0.0219780
        k(   27) = (   0.2000000   0.0000000   0.0000000), wk =   0.0219780
        k(   28) = (   0.2333333   0.0000000   0.0000000), wk =   0.0219780
        k(   29) = (   0.2666667   0.0000000   0.0000000), wk =   0.0219780
        k(   30) = (   0.3000000   0.0000000   0.0000000), wk =   0.0219780
        k(   31) = (   0.3333333   0.0000000   0.0000000), wk =   0.0219780
        k(   32) = (   0.3666667   0.0000000   0.0000000), wk =   0.0219780
        k(   33) = (   0.4000000   0.0000000   0.0000000), wk =   0.0219780
        k(   34) = (   0.4333333   0.0000000   0.0000000), wk =   0.0219780
        k(   35) = (   0.4666667   0.0000000   0.0000000), wk =   0.0219780
        k(   36) = (   0.5000000   0.0000000   0.0000000), wk =   0.0219780
        k(   37) = (   0.5333333   0.0000000   0.0000000), wk =   0.0219780
        k(   38) = (   0.5666667   0.0000000   0.0000000), wk =   0.0219780
        k(   39) = (   0.6000000   0.0000000   0.0000000), wk =   0.0219780
        k(   40) = (   0.6333333   0.0000000   0.0000000), wk =   0.0219780
        k(   41) = (   0.6666667   0.0000000   0.0000000), wk =   0.0219780
        k(   42) = (   0.7000000   0.0000000   0.0000000), wk =   0.0219780
        k(   43) = (   0.7333333   0.0000000   0.0000000), wk =   0.0219780
        k(   44) = (   0.7666667   0.0000000   0.0000000), wk =   0.0219780
        k(   45) = (   0.8000000   0.0000000   0.0000000), wk =   0.0219780
        k(   46) = (   0.8333333   0.0000000   0.0000000), wk =   0.0219780
        k(   47) = (   0.8666667   0.0000000   0.0000000), wk =   0.0219780
        k(   48) = (   0.9000000   0.0000000   0.0000000), wk =   0.0219780
        k(   49) = (   0.9333333   0.0000000   0.0000000), wk =   0.0219780
        k(   50) = (   0.9666667   0.0000000   0.0000000), wk =   0.0219780
        k(   51) = (   1.0000000   0.0000000   0.0000000), wk =   0.0219780
        k(   52) = (   1.0000000   0.0250000   0.0250000), wk =   0.0219780
        k(   53) = (   1.0000000   0.0500000   0.0500000), wk =   0.0219780
        k(   54) = (   1.0000000   0.0750000   0.0750000), wk =   0.0219780
        k(   55) = (   1.0000000   0.1000000   0.1000000), wk =   0.0219780
        k(   56) = (   1.0000000   0.1250000   0.1250000), wk =   0.0219780
        k(   57) = (   1.0000000   0.1500000   0.1500000), wk =   0.0219780
        k(   58) = (   1.0000000   0.1750000   0.1750000), wk =   0.0219780
        k(   59) = (   1.0000000   0.2000000   0.2000000), wk =   0.0219780
        k(   60) = (   1.0000000   0.2250000   0.2250000), wk =   0.0219780
        k(   61) = (   1.0000000   0.2500000   0.2500000), wk =   0.0219780
        k(   62) = (   0.9666667   0.2416667   0.2416667), wk =   0.0219780
        k(   63) = (   0.9333333   0.2333333   0.2333333), wk =   0.0219780
        k(   64) = (   0.9000000   0.2250000   0.2250000), wk =   0.0219780
        k(   65) = (   0.8666667   0.2166667   0.2166667), wk =   0.0219780
        k(   66) = (   0.8333333   0.2083333   0.2083333), wk =   0.0219780
        k(   67) = (   0.8000000   0.2000000   0.2000000), wk =   0.0219780
        k(   68) = (   0.7666667   0.1916667   0.1916667), wk =   0.0219780
        k(   69) = (   0.7333333   0.1833333   0.1833333), wk =   0.0219780
        k(   70) = (   0.7000000   0.1750000   0.1750000), wk =   0.0219780
        k(   71) = (   0.6666667   0.1666667   0.1666667), wk =   0.0219780
        k(   72) = (   0.6333333   0.1583333   0.1583333), wk =   0.0219780
        k(   73) = (   0.6000000   0.1500000   0.1500000), wk =   0.0219780
        k(   74) = (   0.5666667   0.1416667   0.1416667), wk =   0.0219780
        k(   75) = (   0.5333333   0.1333333   0.1333333), wk =   0.0219780
        k(   76) = (   0.5000000   0.1250000   0.1250000), wk =   0.0219780
        k(   77) = (   0.4666667   0.1166667   0.1166667), wk =   0.0219780
        k(   78) = (   0.4333333   0.1083333   0.1083333), wk =   0.0219780
        k(   79) = (   0.4000000   0.1000000   0.1000000), wk =   0.0219780
        k(   80) = (   0.3666667   0.0916667   0.0916667), wk =   0.0219780
        k(   81) = (   0.3333333   0.0833333   0.0833333), wk =   0.0219780
        k(   82) = (   0.3000000   0.0750000   0.0750000), wk =   0.0219780
        k(   83) = (   0.2666667   0.0666667   0.0666667), wk =   0.0219780
        k(   84) = (   0.2333333   0.0583333   0.0583333), wk =   0.0219780
        k(   85) = (   0.2000000   0.0500000   0.0500000), wk =   0.0219780
        k(   86) = (   0.1666667   0.0416667   0.0416667), wk =   0.0219780
        k(   87) = (   0.1333333   0.0333333   0.0333333), wk =   0.0219780
        k(   88) = (   0.1000000   0.0250000   0.0250000), wk =   0.0219780
        k(   89) = (   0.0666667   0.0166667   0.0166667), wk =   0.0219780
        k(   90) = (   0.0333333   0.0083333   0.0083333), wk =   0.0219780
        k(   91) = (   0.0000000   0.0000000   0.0000000), wk =   0.0219780

     Dense  grid:    12939 G-vectors     FFT dimensions: (  36,  36,  36)

     Smooth grid:     4573 G-vectors     FFT dimensions: (  24,  24,  24)

     Largest allocated arrays     est. size (Mb)     dimensions
        Kohn-Sham Wavefunctions         0.07 Mb     (     588,    8)
        NL pseudopotentials             0.07 Mb     (     588,    8)
        Each V/rho on FFT grid          0.71 Mb     (   46656)
        Each G-vector array             0.10 Mb     (   12939)
        G-vector shells                 0.00 Mb     (     180)
     Largest temporary arrays     est. size (Mb)     dimensions
        Auxiliary wavefunctions         0.29 Mb     (     588,   32)
        Each subspace H/S matrix        0.02 Mb     (      32,   32)
        Each <psi_i|beta_j> matrix      0.00 Mb     (       8,    8)

     The potential is recalculated from file :
     ./output/silicon.save/charge-density.dat

     Starting wfc are    8 randomized atomic wfcs

     Band Structure Calculation
     Davidson diagonalization with overlap

     ethr =  1.25E-08,  avg # of iterations = 12.2

     total cpu time spent up to now is        1.9 secs

     End of band structure calculation

          k = 0.5000 0.5000 0.5000 (   568 PWs)   bands (ev):

    -3.5373  -0.9283   4.8504   4.8504   7.5527   9.3918   9.3918  13.6164

          k = 0.4750 0.4750 0.4750 (   571 PWs)   bands (ev):

    -3.5735  -0.8767   4.8547   4.8547   7.5578   9.3969   9.3969  13.6245

          k = 0.4500 0.4500 0.4500 (   571 PWs)   bands (ev):

    -3.6741  -0.7296   4.8682   4.8682   7.5731   9.4121   9.4121  13.6485

          k = 0.4250 0.4250 0.4250 (   571 PWs)   bands (ev):

    -3.8211  -0.5054   4.8907   4.8907   7.5987   9.4361   9.4361  13.6859

          k = 0.4000 0.4000 0.4000 (   571 PWs)   bands (ev):

    -3.9959  -0.2232   4.9222   4.9222   7.6342   9.4672   9.4672  13.7317

          k = 0.3750 0.3750 0.3750 (   577 PWs)   bands (ev):

    -4.1842   0.1030   4.9625   4.9625   7.6797   9.5020   9.5020  13.7757

          k = 0.3500 0.3500 0.3500 (   571 PWs)   bands (ev):

    -4.3762   0.4631   5.0117   5.0117   7.7349   9.5369   9.5369  13.7936

          k = 0.3250 0.3250 0.3250 (   568 PWs)   bands (ev):

    -4.5657   0.8500   5.0692   5.0692   7.8000   9.5661   9.5661  13.7355

          k = 0.3000 0.3000 0.3000 (   568 PWs)   bands (ev):

    -4.7484   1.2587   5.1351   5.1351   7.8733   9.5833   9.5833  13.5408

          k = 0.2750 0.2750 0.2750 (   570 PWs)   bands (ev):

    -4.9214   1.6853   5.2090   5.2090   7.9547   9.5814   9.5814  13.2226

          k = 0.2500 0.2500 0.2500 (   570 PWs)   bands (ev):

    -5.0828   2.1274   5.2902   5.2902   8.0434   9.5541   9.5541  12.8369

          k = 0.2250 0.2250 0.2250 (   564 PWs)   bands (ev):

    -5.2312   2.5820   5.3779   5.3779   8.1381   9.4976   9.4976  12.4201

          k = 0.2000 0.2000 0.2000 (   564 PWs)   bands (ev):

    -5.3658   3.0461   5.4709   5.4709   8.2367   9.4112   9.4112  11.9883

          k = 0.1750 0.1750 0.1750 (   564 PWs)   bands (ev):

    -5.4857   3.5162   5.5675   5.5675   8.3369   9.2998   9.2998  11.5492

          k = 0.1500 0.1500 0.1500 (   567 PWs)   bands (ev):

    -5.5904   3.9878   5.6655   5.6655   8.4349   9.1713   9.1713  11.1088

          k = 0.1250 0.1250 0.1250 (   567 PWs)   bands (ev):

    -5.6796   4.4548   5.7617   5.7617   8.5260   9.0358   9.0358  10.6743

          k = 0.1000 0.1000 0.1000 (   555 PWs)   bands (ev):

    -5.7529   4.9075   5.8526   5.8526   8.6032   8.9050   8.9050  10.2579

          k = 0.0750 0.0750 0.0750 (   555 PWs)   bands (ev):

    -5.8101   5.3297   5.9325   5.9325   8.6544   8.7875   8.7875   9.8805

          k = 0.0500 0.0500 0.0500 (   549 PWs)   bands (ev):

    -5.8511   5.6939   5.9959   5.9959   8.6658   8.6945   8.6945   9.5795

          k = 0.0250 0.0250 0.0250 (   546 PWs)   bands (ev):

    -5.8757   5.9541   6.0370   6.0370   8.6345   8.6345   8.6372   9.3960

          k = 0.0000 0.0000 0.0000 (   537 PWs)   bands (ev):

    -5.8839   6.0518   6.0518   6.0518   8.6143   8.6143   8.6143   9.3386

          k = 0.0333 0.0000 0.0000 (   541 PWs)   bands (ev):

    -5.8791   6.0182   6.0303   6.0303   8.6013   8.6411   8.6411   9.3711

          k = 0.0667 0.0000 0.0000 (   549 PWs)   bands (ev):

    -5.8645   5.9214   5.9691   5.9691   8.5636   8.7189   8.7189   9.4641

          k = 0.1000 0.0000 0.0000 (   553 PWs)   bands (ev):

    -5.8402   5.7722   5.8752   5.8752   8.5037   8.8419   8.8419   9.6057

          k = 0.1333 0.0000 0.0000 (   557 PWs)   bands (ev):

    -5.8061   5.5818   5.7564   5.7564   8.4240   9.0010   9.0010   9.7806

          k = 0.1667 0.0000 0.0000 (   556 PWs)   bands (ev):

    -5.7624   5.3610   5.6205   5.6205   8.3286   9.1894   9.1894   9.9714

          k = 0.2000 0.0000 0.0000 (   564 PWs)   bands (ev):

    -5.7090   5.1181   5.4735   5.4735   8.2196   9.3990   9.3990  10.1568

          k = 0.2333 0.0000 0.0000 (   564 PWs)   bands (ev):

    -5.6459   4.8594   5.3205   5.3205   8.1027   9.6271   9.6271  10.3117

          k = 0.2667 0.0000 0.0000 (   564 PWs)   bands (ev):

    -5.5733   4.5893   5.1649   5.1649   7.9801   9.8691   9.8691  10.4023

          k = 0.3000 0.0000 0.0000 (   564 PWs)   bands (ev):

    -5.4911   4.3109   5.0093   5.0093   7.8544  10.1221  10.1221  10.3987

          k = 0.3333 0.0000 0.0000 (   564 PWs)   bands (ev):

    -5.3994   4.0265   4.8556   4.8556   7.7279  10.2966  10.3840  10.3840

          k = 0.3667 0.0000 0.0000 (   568 PWs)   bands (ev):

    -5.2983   3.7376   4.7053   4.7053   7.6023  10.1195  10.6533  10.6533

          k = 0.4000 0.0000 0.0000 (   572 PWs)   bands (ev):

    -5.1878   3.4454   4.5593   4.5593   7.4801   9.8966  10.9287  10.9287

          k = 0.4333 0.0000 0.0000 (   572 PWs)   bands (ev):

    -5.0680   3.1508   4.4188   4.4188   7.3621   9.6515  11.2094  11.2094

          k = 0.4667 0.0000 0.0000 (   576 PWs)   bands (ev):

    -4.9390   2.8545   4.2842   4.2842   7.2496   9.3976  11.4944  11.4944

          k = 0.5000 0.0000 0.0000 (   576 PWs)   bands (ev):

    -4.8009   2.5571   4.1562   4.1562   7.1435   9.1434  11.7835  11.7835

          k = 0.5333 0.0000 0.0000 (   568 PWs)   bands (ev):

    -4.6537   2.2592   4.0352   4.0352   7.0448   8.8951  12.0766  12.0766

          k = 0.5667 0.0000 0.0000 (   568 PWs)   bands (ev):

    -4.4977   1.9609   3.9214   3.9214   6.9540   8.6541  12.3722  12.3722

          k = 0.6000 0.0000 0.0000 (   568 PWs)   bands (ev):

    -4.3329   1.6629   3.8152   3.8152   6.8719   8.4235  12.6705  12.6705

          k = 0.6333 0.0000 0.0000 (   576 PWs)   bands (ev):

    -4.1594   1.3655   3.7168   3.7168   6.7986   8.2049  12.9699  12.9699

          k = 0.6667 0.0000 0.0000 (   576 PWs)   bands (ev):

    -3.9775   1.0692   3.6264   3.6264   6.7353   7.9993  13.2730  13.2730

          k = 0.7000 0.0000 0.0000 (   576 PWs)   bands (ev):

    -3.7872   0.7746   3.5443   3.5443   6.6821   7.8072  13.5784  13.5784

          k = 0.7333 0.0000 0.0000 (   568 PWs)   bands (ev):

    -3.5888   0.4821   3.4709   3.4709   6.6395   7.6292  13.8860  13.8860

          k = 0.7667 0.0000 0.0000 (   568 PWs)   bands (ev):

    -3.3824   0.1919   3.4055   3.4055   6.6076   7.4653  14.1950  14.1950

          k = 0.8000 0.0000 0.0000 (   568 PWs)   bands (ev):

    -3.1683  -0.0955   3.3486   3.3486   6.5869   7.3158  14.5050  14.5050

          k = 0.8333 0.0000 0.0000 (   560 PWs)   bands (ev):

    -2.9465  -0.3795   3.3006   3.3006   6.5777   7.1806  14.8154  14.8154

          k = 0.8667 0.0000 0.0000 (   568 PWs)   bands (ev):

    -2.7176  -0.6598   3.2608   3.2608   6.5802   7.0595  15.1209  15.1209

          k = 0.9000 0.0000 0.0000 (   572 PWs)   bands (ev):

    -2.4817  -0.9359   3.2300   3.2300   6.5945   6.9525  15.4231  15.4231

          k = 0.9333 0.0000 0.0000 (   584 PWs)   bands (ev):

    -2.2391  -1.2074   3.2077   3.2077   6.6214   6.8590  15.7075  15.7075

          k = 0.9667 0.0000 0.0000 (   588 PWs)   bands (ev):

    -1.9900  -1.4738   3.1945   3.1945   6.6608   6.7795  15.9475  15.9475

          k = 1.0000 0.0000 0.0000 (   588 PWs)   bands (ev):

    -1.7348  -1.7348   3.1900   3.1900   6.7136   6.7136  16.0554  16.0554

          k = 1.0000 0.0250 0.0250 (   588 PWs)   bands (ev):

    -1.7369  -1.7289   3.1518   3.1945   6.7187   6.7696  15.9978  16.0219

          k = 1.0000 0.0500 0.0500 (   582 PWs)   bands (ev):

    -1.7434  -1.7112   3.0450   3.2078   6.7340   6.9306  15.8400  15.9268

          k = 1.0000 0.0750 0.0750 (   578 PWs)   bands (ev):

    -1.7553  -1.6817   2.8876   3.2298   6.7595   7.1785  15.6123  15.7806

          k = 1.0000 0.1000 0.1000 (   578 PWs)   bands (ev):

    -1.7737  -1.6405   2.7004   3.2605   6.7950   7.4940  15.3412  15.5961

          k = 1.0000 0.1250 0.1250 (   574 PWs)   bands (ev):

    -1.8006  -1.5875   2.5017   3.2999   6.8406   7.8603  15.0468  15.3866

          k = 1.0000 0.1500 0.1500 (   574 PWs)   bands (ev):

    -1.8381  -1.5228   2.3049   3.3477   6.8960   8.2660  14.7388  15.1585

          k = 1.0000 0.1750 0.1750 (   572 PWs)   bands (ev):

    -1.8885  -1.4463   2.1211   3.4037   6.9610   8.7024  14.4253  14.9198

          k = 1.0000 0.2000 0.2000 (   564 PWs)   bands (ev):

    -1.9544  -1.3582   1.9584   3.4681   7.0358   9.1629  14.1119  14.6390

          k = 1.0000 0.2250 0.2250 (   576 PWs)   bands (ev):

    -2.0378  -1.2587   1.8224   3.5399   7.1190   9.6422  13.7991  14.3058

          k = 1.0000 0.2500 0.2500 (   572 PWs)   bands (ev):

    -2.1397  -1.1472   1.7175   3.6194   7.2116  10.1368  13.4908  13.9845

          k = 0.9667 0.2417 0.2417 (   573 PWs)   bands (ev):

    -2.1440  -1.1485   1.7631   3.5961   7.1855   9.9761  13.5170  13.8484

          k = 0.9333 0.2333 0.2333 (   573 PWs)   bands (ev):

    -2.2309  -1.0718   1.8376   3.5817   7.1723   9.8288  13.4349  13.6336

          k = 0.9000 0.2250 0.2250 (   570 PWs)   bands (ev):

    -2.3779  -0.9350   1.9364   3.5765   7.1716   9.6957  13.3058  13.4144

          k = 0.8667 0.2167 0.2167 (   570 PWs)   bands (ev):

    -2.5590  -0.7608   2.0558   3.5805   7.1827   9.5776  13.1585  13.1953

          k = 0.8333 0.2083 0.2083 (   570 PWs)   bands (ev):

    -2.7576  -0.5629   2.1925   3.5939   7.2050   9.4756  12.9772  13.0049

          k = 0.8000 0.2000 0.2000 (   570 PWs)   bands (ev):

    -2.9642  -0.3486   2.3436   3.6166   7.2377   9.3912  12.7616  12.8500

          k = 0.7667 0.1917 0.1917 (   574 PWs)   bands (ev):

    -3.1733  -0.1216   2.5068   3.6484   7.2797   9.3257  12.5464  12.6949

          k = 0.7333 0.1833 0.1833 (   572 PWs)   bands (ev):

    -3.3814   0.1160   2.6801   3.6900   7.3294   9.2810  12.3333  12.5410

          k = 0.7000 0.1750 0.1750 (   572 PWs)   bands (ev):

    -3.5862   0.3630   2.8616   3.7411   7.3849   9.2590  12.1219  12.3869

          k = 0.6667 0.1667 0.1667 (   572 PWs)   bands (ev):

    -3.7860   0.6185   3.0495   3.8014   7.4441   9.2616  11.9128  12.2315

          k = 0.6333 0.1583 0.1583 (   571 PWs)   bands (ev):

    -3.9797   0.8819   3.2423   3.8708   7.5051   9.2906  11.7066  12.0736

          k = 0.6000 0.1500 0.1500 (   569 PWs)   bands (ev):

    -4.1662   1.1530   3.4387   3.9496   7.5660   9.3467  11.5036  11.9114

          k = 0.5667 0.1417 0.1417 (   570 PWs)   bands (ev):

    -4.3449   1.4312   3.6372   4.0373   7.6258   9.4299  11.3047  11.7433

          k = 0.5333 0.1333 0.1333 (   566 PWs)   bands (ev):

    -4.5153   1.7163   3.8367   4.1340   7.6842   9.5380  11.1125  11.5679

          k = 0.5000 0.1250 0.1250 (   566 PWs)   bands (ev):

    -4.6768   2.0078   4.0356   4.2392   7.7414   9.6649  10.9296  11.3829

          k = 0.4667 0.1167 0.1167 (   568 PWs)   bands (ev):

    -4.8291   2.3055   4.2330   4.3526   7.7982   9.7992  10.7645  11.1877

          k = 0.4333 0.1083 0.1083 (   570 PWs)   bands (ev):

    -4.9719   2.6089   4.4276   4.4739   7.8559   9.9153  10.6379  10.9824

          k = 0.4000 0.1000 0.1000 (   570 PWs)   bands (ev):

    -5.1049   2.9174   4.6026   4.6185   7.9158   9.9616  10.5933  10.7673

          k = 0.3667 0.0917 0.0917 (   569 PWs)   bands (ev):

    -5.2279   3.2304   4.7380   4.8044   7.9789   9.9046  10.5439  10.6508

          k = 0.3333 0.0833 0.0833 (   565 PWs)   bands (ev):

    -5.3407   3.5468   4.8793   4.9839   8.0456   9.7832  10.3147  10.7478

          k = 0.3000 0.0750 0.0750 (   564 PWs)   bands (ev):

    -5.4432   3.8654   5.0254   5.1559   8.1158   9.6386  10.0820  10.8056

          k = 0.2667 0.0667 0.0667 (   562 PWs)   bands (ev):

    -5.5352   4.1845   5.1749   5.3189   8.1889   9.4883   9.8493  10.7665

          k = 0.2333 0.0583 0.0583 (   562 PWs)   bands (ev):

    -5.6166   4.5017   5.3257   5.4712   8.2636   9.3396   9.6205  10.6169

          k = 0.2000 0.0500 0.0500 (   562 PWs)   bands (ev):

    -5.6873   4.8137   5.4754   5.6109   8.3383   9.1963   9.3999  10.3923

          k = 0.1667 0.0417 0.0417 (   557 PWs)   bands (ev):

    -5.7473   5.1153   5.6202   5.7359   8.4105   9.0607   9.1933  10.1369

          k = 0.1333 0.0333 0.0333 (   556 PWs)   bands (ev):

    -5.7964   5.3990   5.7552   5.8438   8.4766   8.9333   9.0060   9.8838

          k = 0.1000 0.0250 0.0250 (   552 PWs)   bands (ev):

    -5.8347   5.6534   5.8739   5.9318   8.5335   8.8164   8.8458   9.6594

          k = 0.0667 0.0167 0.0167 (   545 PWs)   bands (ev):

    -5.8620   5.8616   5.9684   5.9973   8.5771   8.7150   8.7213   9.4850

          k = 0.0333 0.0083 0.0083 (   543 PWs)   bands (ev):

    -5.8785   6.0014   6.0301   6.0378   8.6046   8.6413   8.6417   9.3755

          k = 0.0000 0.0000 0.0000 (   537 PWs)   bands (ev):

    -5.8839   6.0518   6.0518   6.0518   8.6143   8.6143   8.6143   9.3386

     Writing output data file silicon.save

     init_run     :      0.04s CPU      0.04s WALL (       1 calls)
     electrons    :      1.78s CPU      1.81s WALL (       1 calls)

     Called by init_run:
     wfcinit      :      0.00s CPU      0.00s WALL (       1 calls)
     potinit      :      0.01s CPU      0.01s WALL (       1 calls)

     Called by electrons:
     c_bands      :      1.78s CPU      1.81s WALL (       1 calls)
     v_of_rho     :      0.00s CPU      0.00s WALL (       1 calls)

     Called by c_bands:
     init_us_2    :      0.01s CPU      0.01s WALL (      91 calls)
     cegterg      :      1.59s CPU      1.62s WALL (      91 calls)

     Called by sum_band:

     Called by *egterg:
     h_psi        :      1.42s CPU      1.45s WALL (    1296 calls)
     g_psi        :      0.04s CPU      0.04s WALL (    1114 calls)
     cdiaghg      :      0.12s CPU      0.12s WALL (    1205 calls)

     Called by h_psi:
     add_vuspsi   :      0.02s CPU      0.02s WALL (    1296 calls)

     General routines
     calbec       :      0.02s CPU      0.02s WALL (    1296 calls)
     fft          :      0.00s CPU      0.01s WALL (       4 calls)
     ffts         :      0.01s CPU      0.01s WALL (       1 calls)
     fftw         :      1.06s CPU      1.08s WALL (   14748 calls)
     interpolate  :      0.01s CPU      0.01s WALL (       1 calls)
     davcio       :      0.00s CPU      0.00s WALL (      91 calls)


     PWSCF        :     1.90s CPU         1.94s WALL


   This run was terminated on:  11: 0: 8  17Sep2019            

=------------------------------------------------------------------------------=
   JOB DONE.
=------------------------------------------------------------------------------=
