
     Program BANDS v.5.4.0 starts on 17Sep2019 at 11: 1: 3 

     This program is part of the open-source Quantum ESPRESSO suite
     for quantum simulation of materials; please cite
         "P. Giannozzi et al., J. Phys.:Condens. Matter 21 395502 (2009);
          URL http://www.quantum-espresso.org", 
     in publications or presentations arising from this work. More details at
     http://www.quantum-espresso.org/quote

     Serial version

     Reading data from directory:
     ./output/silicon.save

   Info: using nr1, nr2, nr3 values from input

   Info: using nr1, nr2, nr3 values from input

     IMPORTANT: XC functional enforced from input :
     Exchange-correlation      =  SLA  PZ   NOGX NOGC ( 1  1  0  0 0 0)
     Any further DFT definition will be discarded
     Please, verify this is what you really want


     G-vector sticks info
     --------------------
     sticks:   dense  smooth     PW     G-vecs:    dense   smooth      PW
     Sum         733     361    121                12939     4573     869

     high-symmetry point:  0.5000 0.5000 0.5000   x coordinate   0.0000
     high-symmetry point:  0.0000 0.0000 0.0000   x coordinate   0.8660
     high-symmetry point:  1.0000 0.0000 0.0000   x coordinate   1.8660
     high-symmetry point:  1.0000 0.2500 0.2500   x coordinate   2.2196
     high-symmetry point:  0.0000 0.0000 0.0000   x coordinate   3.2802

     Plottable bands written to file sibands.dat.gnu
     Bands written to file sibands.dat

 **************************************************************************

                    xk=(   0.50000,   0.50000,   0.50000  )

     zone border point and non-symmorphic group 
     symmetry decomposition not available

 **************************************************************************

 **************************************************************************

                    xk=(   0.47500,   0.47500,   0.47500  )

     point group C_3v (3m)  
     there are  3 classes
     the character table:

       E     2C3   3s_v 
A_1    1.00  1.00  1.00
A_2    1.00  1.00 -1.00
E      2.00 -1.00  0.00

     the symmetry operations in each class and the name of the first element:

     E        1
                                                                 
     2C3      2    3
                                                                 
     3s_v     4    5    6
                                                                 

     Band symmetry, C_3v (3m)   point group:

     e(  1 -  1) =     -3.57350  eV     1   --> A_1  L_1       
     e(  2 -  2) =     -0.87667  eV     1   --> A_1  L_1       
     e(  3 -  4) =      4.85471  eV     2   --> E    L_3       
     e(  5 -  5) =      7.55779  eV     1   --> A_1  L_1       
     e(  6 -  7) =      9.39686  eV     2   --> E    L_3       
     e(  8 -  8) =     13.62455  eV     1   --> A_1  L_1       

 **************************************************************************

 **************************************************************************

                    xk=(   0.45000,   0.45000,   0.45000  )

     Band symmetry, C_3v (3m)   point group:

     e(  1 -  1) =     -3.67414  eV     1   --> A_1  L_1       
     e(  2 -  2) =     -0.72962  eV     1   --> A_1  L_1       
     e(  3 -  4) =      4.86819  eV     2   --> E    L_3       
     e(  5 -  5) =      7.57314  eV     1   --> A_1  L_1       
     e(  6 -  7) =      9.41207  eV     2   --> E    L_3       
     e(  8 -  8) =     13.64847  eV     1   --> A_1  L_1       

 **************************************************************************

 **************************************************************************

                    xk=(   0.42500,   0.42500,   0.42500  )

     Band symmetry, C_3v (3m)   point group:

     e(  1 -  1) =     -3.82111  eV     1   --> A_1  L_1       
     e(  2 -  2) =     -0.50544  eV     1   --> A_1  L_1       
     e(  3 -  4) =      4.89065  eV     2   --> E    L_3       
     e(  5 -  5) =      7.59866  eV     1   --> A_1  L_1       
     e(  6 -  7) =      9.43614  eV     2   --> E    L_3       
     e(  8 -  8) =     13.68591  eV     1   --> A_1  L_1       

 **************************************************************************

 **************************************************************************

                    xk=(   0.40000,   0.40000,   0.40000  )

     Band symmetry, C_3v (3m)   point group:

     e(  1 -  1) =     -3.99589  eV     1   --> A_1  L_1       
     e(  2 -  2) =     -0.22319  eV     1   --> A_1  L_1       
     e(  3 -  4) =      4.92220  eV     2   --> E    L_3       
     e(  5 -  5) =      7.63422  eV     1   --> A_1  L_1       
     e(  6 -  7) =      9.46724  eV     2   --> E    L_3       
     e(  8 -  8) =     13.73166  eV     1   --> A_1  L_1       

 **************************************************************************

 **************************************************************************

                    xk=(   0.37500,   0.37500,   0.37500  )

     Band symmetry, C_3v (3m)   point group:

     e(  1 -  1) =     -4.18418  eV     1   --> A_1  L_1       
     e(  2 -  2) =      0.10296  eV     1   --> A_1  L_1       
     e(  3 -  4) =      4.96245  eV     2   --> E    L_3       
     e(  5 -  5) =      7.67970  eV     1   --> A_1  L_1       
     e(  6 -  7) =      9.50198  eV     2   --> E    L_3       
     e(  8 -  8) =     13.77572  eV     1   --> A_1  L_1       

 **************************************************************************

 **************************************************************************

                    xk=(   0.35000,   0.35000,   0.35000  )

     Band symmetry, C_3v (3m)   point group:

     e(  1 -  1) =     -4.37624  eV     1   --> A_1  L_1       
     e(  2 -  2) =      0.46306  eV     1   --> A_1  L_1       
     e(  3 -  4) =      5.01165  eV     2   --> E    L_3       
     e(  5 -  5) =      7.73488  eV     1   --> A_1  L_1       
     e(  6 -  7) =      9.53693  eV     2   --> E    L_3       
     e(  8 -  8) =     13.79359  eV     1   --> A_1  L_1       

 **************************************************************************

 **************************************************************************

                    xk=(   0.32500,   0.32500,   0.32500  )

     Band symmetry, C_3v (3m)   point group:

     e(  1 -  1) =     -4.56574  eV     1   --> A_1  L_1       
     e(  2 -  2) =      0.84996  eV     1   --> A_1  L_1       
     e(  3 -  4) =      5.06916  eV     2   --> E    L_3       
     e(  5 -  5) =      7.79996  eV     1   --> A_1  L_1       
     e(  6 -  7) =      9.56609  eV     2   --> E    L_3       
     e(  8 -  8) =     13.73554  eV     1   --> A_1  L_1       

 **************************************************************************

 **************************************************************************

                    xk=(   0.30000,   0.30000,   0.30000  )

     Band symmetry, C_3v (3m)   point group:

     e(  1 -  1) =     -4.74837  eV     1   --> A_1  L_1       
     e(  2 -  2) =      1.25873  eV     1   --> A_1  L_1       
     e(  3 -  4) =      5.13511  eV     2   --> E    L_3       
     e(  5 -  5) =      7.87329  eV     1   --> A_1  L_1       
     e(  6 -  7) =      9.58327  eV     2   --> E    L_3       
     e(  8 -  8) =     13.54085  eV     1   --> A_1  L_1       

 **************************************************************************

 **************************************************************************

                    xk=(   0.27500,   0.27500,   0.27500  )

     Band symmetry, C_3v (3m)   point group:

     e(  1 -  1) =     -4.92136  eV     1   --> A_1  L_1       
     e(  2 -  2) =      1.68526  eV     1   --> A_1  L_1       
     e(  3 -  4) =      5.20899  eV     2   --> E    L_3       
     e(  5 -  5) =      7.95470  eV     1   --> A_1  L_1       
     e(  6 -  7) =      9.58143  eV     2   --> E    L_3       
     e(  8 -  8) =     13.22261  eV     1   --> A_1  L_1       

 **************************************************************************

 **************************************************************************

                    xk=(   0.25000,   0.25000,   0.25000  )

     Band symmetry, C_3v (3m)   point group:

     e(  1 -  1) =     -5.08276  eV     1   --> A_1  L_1       
     e(  2 -  2) =      2.12745  eV     1   --> A_1  L_1       
     e(  3 -  4) =      5.29019  eV     2   --> E    L_3       
     e(  5 -  5) =      8.04338  eV     1   --> A_1  L_1       
     e(  6 -  7) =      9.55412  eV     2   --> E    L_3       
     e(  8 -  8) =     12.83693  eV     1   --> A_1  L_1       

 **************************************************************************

 **************************************************************************

                    xk=(   0.22500,   0.22500,   0.22500  )

     Band symmetry, C_3v (3m)   point group:

     e(  1 -  1) =     -5.23122  eV     1   --> A_1  L_1       
     e(  2 -  2) =      2.58204  eV     1   --> A_1  L_1       
     e(  3 -  4) =      5.37791  eV     2   --> E    L_3       
     e(  5 -  5) =      8.13810  eV     1   --> A_1  L_1       
     e(  6 -  7) =      9.49756  eV     2   --> E    L_3       
     e(  8 -  8) =     12.42014  eV     1   --> A_1  L_1       

 **************************************************************************

 **************************************************************************

                    xk=(   0.20000,   0.20000,   0.20000  )

     Band symmetry, C_3v (3m)   point group:

     e(  1 -  1) =     -5.36576  eV     1   --> A_1  L_1       
     e(  2 -  2) =      3.04609  eV     1   --> A_1  L_1       
     e(  3 -  4) =      5.47088  eV     2   --> E    L_3       
     e(  5 -  5) =      8.23672  eV     1   --> A_1  L_1       
     e(  6 -  7) =      9.41122  eV     2   --> E    L_3       
     e(  8 -  8) =     11.98826  eV     1   --> A_1  L_1       

 **************************************************************************

 **************************************************************************

                    xk=(   0.17500,   0.17500,   0.17500  )

     Band symmetry, C_3v (3m)   point group:

     e(  1 -  1) =     -5.48567  eV     1   --> A_1  L_1       
     e(  2 -  2) =      3.51618  eV     1   --> A_1  L_1       
     e(  3 -  4) =      5.56749  eV     2   --> E    L_3       
     e(  5 -  5) =      8.33686  eV     1   --> A_1  L_1       
     e(  6 -  7) =      9.29979  eV     2   --> E    L_3       
     e(  8 -  8) =     11.54920  eV     1   --> A_1  L_1       

 **************************************************************************

 **************************************************************************

                    xk=(   0.15000,   0.15000,   0.15000  )

     Band symmetry, C_3v (3m)   point group:

     e(  1 -  1) =     -5.59043  eV     1   --> A_1  L_1       
     e(  2 -  2) =      3.98783  eV     1   --> A_1  L_1       
     e(  3 -  4) =      5.66545  eV     2   --> E    L_3       
     e(  5 -  5) =      8.43492  eV     1   --> A_1  L_1       
     e(  6 -  7) =      9.17128  eV     2   --> E    L_3       
     e(  8 -  8) =     11.10879  eV     1   --> A_1  L_1       

 **************************************************************************

 **************************************************************************

                    xk=(   0.12500,   0.12500,   0.12500  )

     Band symmetry, C_3v (3m)   point group:

     e(  1 -  1) =     -5.67961  eV     1   --> A_1  L_1       
     e(  2 -  2) =      4.45481  eV     1   --> A_1  L_1       
     e(  3 -  4) =      5.76174  eV     2   --> E    L_3       
     e(  5 -  5) =      8.52602  eV     1   --> A_1  L_1       
     e(  6 -  7) =      9.03576  eV     2   --> E    L_3       
     e(  8 -  8) =     10.67425  eV     1   --> A_1  L_1       

 **************************************************************************

 **************************************************************************

                    xk=(   0.10000,   0.10000,   0.10000  )

     Band symmetry, C_3v (3m)   point group:

     e(  1 -  1) =     -5.75291  eV     1   --> A_1  L_1       
     e(  2 -  2) =      4.90751  eV     1   --> A_1  L_1       
     e(  3 -  4) =      5.85261  eV     2   --> E    L_3       
     e(  5 -  5) =      8.60318  eV     1   --> A_1  L_1       
     e(  6 -  7) =      8.90502  eV     2   --> E    L_3       
     e(  8 -  8) =     10.25786  eV     1   --> A_1  L_1       

 **************************************************************************

 **************************************************************************

                    xk=(   0.07500,   0.07500,   0.07500  )

     Band symmetry, C_3v (3m)   point group:

     e(  1 -  1) =     -5.81013  eV     1   --> A_1  L_1       
     e(  2 -  2) =      5.32971  eV     1   --> A_1  L_1       
     e(  3 -  4) =      5.93250  eV     2   --> E    L_3       
     e(  5 -  5) =      8.65442  eV     1   --> A_1  L_1       
     e(  6 -  7) =      8.78749  eV     2   --> E    L_3       
     e(  8 -  8) =      9.88049  eV     1   --> A_1  L_1       

 **************************************************************************

 **************************************************************************

                    xk=(   0.05000,   0.05000,   0.05000  )

     Band symmetry, C_3v (3m)   point group:

     e(  1 -  1) =     -5.85111  eV     1   --> A_1  L_1       
     e(  2 -  2) =      5.69391  eV     1   --> A_1  L_1       
     e(  3 -  4) =      5.99595  eV     2   --> E    L_3       
     e(  5 -  5) =      8.66579  eV     1   --> A_1  L_1       
     e(  6 -  7) =      8.69447  eV     2   --> E    L_3       
     e(  8 -  8) =      9.57946  eV     1   --> A_1  L_1       

 **************************************************************************

 **************************************************************************

                    xk=(   0.02500,   0.02500,   0.02500  )

     Band symmetry, C_3v (3m)   point group:

     e(  1 -  1) =     -5.87573  eV     1   --> A_1  L_1       
     e(  2 -  2) =      5.95406  eV     1   --> A_1  L_1       
     e(  3 -  4) =      6.03700  eV     2   --> E    L_3       
     e(  5 -  6) =      8.63450  eV     2   --> E    L_3       
     e(  7 -  7) =      8.63718  eV     1   --> A_1  L_1       
     e(  8 -  8) =      9.39597  eV     1   --> A_1  L_1       

 **************************************************************************

 **************************************************************************

                    xk=(   0.00000,   0.00000,   0.00000  )

     point group O_h (m-3m) 
     there are 10 classes
     the character table:

       E     8C3   3C2   6C4   6C2'  i     8S6   3s_h  6S4   6s_d 
A_1g   1.00  1.00  1.00  1.00  1.00  1.00  1.00  1.00  1.00  1.00
A_2g   1.00  1.00  1.00 -1.00 -1.00  1.00  1.00  1.00 -1.00 -1.00
E_g    2.00 -1.00  2.00  0.00  0.00  2.00 -1.00  2.00  0.00  0.00
T_1g   3.00  0.00 -1.00  1.00 -1.00  3.00  0.00 -1.00  1.00 -1.00
T_2g   3.00  0.00 -1.00 -1.00  1.00  3.00  0.00 -1.00 -1.00  1.00
A_1u   1.00  1.00  1.00  1.00  1.00 -1.00 -1.00 -1.00 -1.00 -1.00
A_2u   1.00  1.00  1.00 -1.00 -1.00 -1.00 -1.00 -1.00  1.00  1.00
E_u    2.00 -1.00  2.00  0.00  0.00 -2.00  1.00 -2.00  0.00  0.00
T_1u   3.00  0.00 -1.00  1.00 -1.00 -3.00  0.00  1.00 -1.00  1.00
T_2u   3.00  0.00 -1.00 -1.00  1.00 -3.00  0.00  1.00  1.00 -1.00

     the symmetry operations in each class and the name of the first element:

     E        1
                                                                 
     8C3     17   19   20   18   24   21   22   23
                                                                 
     3C2      2    4    3
                                                                 
     6C4      7    8   15   16   12   11
                                                                 
     6C2'     5    6   14   13   10    9
                                                                 
     i       25
                                                                 
     8S6     41   43   44   42   48   45   46   47
                                                                 
     3s_h    26   28   27
                                                                 
     6S4     31   32   39   40   36   35
                                                                 
     6s_d    29   30   38   37   34   33
                                                                 

     Band symmetry, O_h (m-3m)  point group:

     e(  1 -  1) =     -5.88392  eV     1   --> A_1g G_1   G_1+
     e(  2 -  4) =      6.05178  eV     3   --> T_2g G_25' G_5+
     e(  5 -  7) =      8.61428  eV     3   --> T_1u G_15  G_4-
     e(  8 -  8) =      9.33862  eV     1   --> A_2u G_2'  G_2-

 **************************************************************************

 **************************************************************************

                    xk=(   0.03333,   0.00000,   0.00000  )

     point group C_4v (4mm) 
     there are  5 classes
     the character table:

       E     2C4   C2    2s_v  2s_d 
A_1    1.00  1.00  1.00  1.00  1.00
A_2    1.00  1.00  1.00 -1.00 -1.00
B_1    1.00 -1.00  1.00  1.00 -1.00
B_2    1.00 -1.00  1.00 -1.00  1.00
E      2.00  0.00 -2.00  0.00  0.00

     the symmetry operations in each class and the name of the first element:

     E        1
                                                                 
     2C4      3    4
                                                                 
     C2       2
                                                                 
     2s_v     5    6
                                                                 
     2s_d     7    8
                                                                 

     Band symmetry, C_4v (4mm)  point group:

     e(  1 -  1) =     -5.87906  eV     1   --> A_1  G_1 D_1   
     e(  2 -  2) =      6.01820  eV     1   --> B_2  G_4 D_2'  
     e(  3 -  4) =      6.03033  eV     2   --> E    G_5 D_5   
     e(  5 -  5) =      8.60134  eV     1   --> A_1  G_1 D_1   
     e(  6 -  7) =      8.64106  eV     2   --> E    G_5 D_5   
     e(  8 -  8) =      9.37112  eV     1   --> B_2  G_4 D_2'  

 **************************************************************************

 **************************************************************************

                    xk=(   0.06667,   0.00000,   0.00000  )

     Band symmetry, C_4v (4mm)  point group:

     e(  1 -  1) =     -5.86449  eV     1   --> A_1  G_1 D_1   
     e(  2 -  2) =      5.92145  eV     1   --> B_2  G_4 D_2'  
     e(  3 -  4) =      5.96907  eV     2   --> E    G_5 D_5   
     e(  5 -  5) =      8.56361  eV     1   --> A_1  G_1 D_1   
     e(  6 -  7) =      8.71887  eV     2   --> E    G_5 D_5   
     e(  8 -  8) =      9.46408  eV     1   --> B_2  G_4 D_2'  

 **************************************************************************

 **************************************************************************

                    xk=(   0.10000,   0.00000,   0.00000  )

     Band symmetry, C_4v (4mm)  point group:

     e(  1 -  1) =     -5.84015  eV     1   --> A_1  G_1 D_1   
     e(  2 -  2) =      5.77217  eV     1   --> B_2  G_4 D_2'  
     e(  3 -  4) =      5.87519  eV     2   --> E    G_5 D_5   
     e(  5 -  5) =      8.50373  eV     1   --> A_1  G_1 D_1   
     e(  6 -  7) =      8.84193  eV     2   --> E    G_5 D_5   
     e(  8 -  8) =      9.60574  eV     1   --> B_2  G_4 D_2'  

 **************************************************************************

 **************************************************************************

                    xk=(   0.13333,   0.00000,   0.00000  )

     Band symmetry, C_4v (4mm)  point group:

     e(  1 -  1) =     -5.80611  eV     1   --> A_1  G_1 D_1   
     e(  2 -  2) =      5.58177  eV     1   --> B_2  G_4 D_2'  
     e(  3 -  4) =      5.75642  eV     2   --> E    G_5 D_5   
     e(  5 -  5) =      8.42402  eV     1   --> A_1  G_1 D_1   
     e(  6 -  7) =      9.00100  eV     2   --> E    G_5 D_5   
     e(  8 -  8) =      9.78062  eV     1   --> B_2  G_4 D_2'  

 **************************************************************************

 **************************************************************************

                    xk=(   0.16667,   0.00000,   0.00000  )

     Band symmetry, C_4v (4mm)  point group:

     e(  1 -  1) =     -5.76236  eV     1   --> A_1  G_1 D_1   
     e(  2 -  2) =      5.36099  eV     1   --> B_2  G_4 D_2'  
     e(  3 -  4) =      5.62049  eV     2   --> E    G_5 D_5   
     e(  5 -  5) =      8.32855  eV     1   --> A_1  G_1 D_1   
     e(  6 -  7) =      9.18937  eV     2   --> E    G_5 D_5   
     e(  8 -  8) =      9.97141  eV     1   --> B_2  G_4 D_2'  

 **************************************************************************

 **************************************************************************

                    xk=(   0.20000,   0.00000,   0.00000  )

     Band symmetry, C_4v (4mm)  point group:

     e(  1 -  1) =     -5.70896  eV     1   --> A_1  G_1 D_1   
     e(  2 -  2) =      5.11805  eV     1   --> B_2  G_4 D_2'  
     e(  3 -  4) =      5.47353  eV     2   --> E    G_5 D_5   
     e(  5 -  5) =      8.21962  eV     1   --> A_1  G_1 D_1   
     e(  6 -  7) =      9.39897  eV     2   --> E    G_5 D_5   
     e(  8 -  8) =     10.15681  eV     1   --> B_2  G_4 D_2'  

 **************************************************************************

 **************************************************************************

                    xk=(   0.23333,   0.00000,   0.00000  )

     Band symmetry, C_4v (4mm)  point group:

     e(  1 -  1) =     -5.64592  eV     1   --> A_1  G_1 D_1   
     e(  2 -  2) =      4.85938  eV     1   --> B_2  G_4 D_2'  
     e(  3 -  4) =      5.32054  eV     2   --> E    G_5 D_5   
     e(  5 -  5) =      8.10274  eV     1   --> A_1  G_1 D_1   
     e(  6 -  7) =      9.62711  eV     2   --> E    G_5 D_5   
     e(  8 -  8) =     10.31173  eV     1   --> B_2  G_4 D_2'  

 **************************************************************************

 **************************************************************************

                    xk=(   0.26667,   0.00000,   0.00000  )

     Band symmetry, C_4v (4mm)  point group:

     e(  1 -  1) =     -5.57329  eV     1   --> A_1  G_1 D_1   
     e(  2 -  2) =      4.58929  eV     1   --> B_2  G_4 D_2'  
     e(  3 -  4) =      5.16493  eV     2   --> E    G_5 D_5   
     e(  5 -  5) =      7.98008  eV     1   --> A_1  G_1 D_1   
     e(  6 -  7) =      9.86905  eV     2   --> E    G_5 D_5   
     e(  8 -  8) =     10.40229  eV     1   --> B_2  G_4 D_2'  

 **************************************************************************

 **************************************************************************

                    xk=(   0.30000,   0.00000,   0.00000  )

     Band symmetry, C_4v (4mm)  point group:

     e(  1 -  1) =     -5.49110  eV     1   --> A_1  G_1 D_1   
     e(  2 -  2) =      4.31093  eV     1   --> B_2  G_4 D_2'  
     e(  3 -  4) =      5.00931  eV     2   --> E    G_5 D_5   
     e(  5 -  5) =      7.85436  eV     1   --> A_1  G_1 D_1   
     e(  6 -  7) =     10.12205  eV     2   --> E    G_5 D_5   
     e(  8 -  8) =     10.39873  eV     1   --> B_2  G_4 D_2'  

 **************************************************************************

 **************************************************************************

                    xk=(   0.33333,   0.00000,   0.00000  )

     Band symmetry, C_4v (4mm)  point group:

     e(  1 -  1) =     -5.39941  eV     1   --> A_1  G_1 D_1   
     e(  2 -  2) =      4.02650  eV     1   --> B_2  G_4 D_2'  
     e(  3 -  4) =      4.85562  eV     2   --> E    G_5 D_5   
     e(  5 -  5) =      7.72794  eV     1   --> A_1  G_1 D_1   
     e(  6 -  6) =     10.29663  eV     1   --> B_2  G_4 D_2'  
     e(  7 -  8) =     10.38403  eV     2   --> E    G_5 D_5   

 **************************************************************************

 **************************************************************************

                    xk=(   0.36667,   0.00000,   0.00000  )

     Band symmetry, C_4v (4mm)  point group:

     e(  1 -  1) =     -5.29829  eV     1   --> A_1  G_1 D_1   
     e(  2 -  2) =      3.73761  eV     1   --> B_2  G_4 D_2'  
     e(  3 -  4) =      4.70526  eV     2   --> E    G_5 D_5   
     e(  5 -  5) =      7.60233  eV     1   --> A_1  G_1 D_1   
     e(  6 -  6) =     10.11949  eV     1   --> B_2  G_4 D_2'  
     e(  7 -  8) =     10.65331  eV     2   --> E    G_5 D_5   

 **************************************************************************

 **************************************************************************

                    xk=(   0.40000,   0.00000,   0.00000  )

     Band symmetry, C_4v (4mm)  point group:

     e(  1 -  1) =     -5.18780  eV     1   --> A_1  G_1 D_1   
     e(  2 -  2) =      3.44540  eV     1   --> B_2  G_4 D_2'  
     e(  3 -  4) =      4.55933  eV     2   --> E    G_5 D_5   
     e(  5 -  5) =      7.48006  eV     1   --> A_1  G_1 D_1   
     e(  6 -  6) =      9.89657  eV     1   --> B_2  G_4 D_2'  
     e(  7 -  8) =     10.92866  eV     2   --> E    G_5 D_5   

 **************************************************************************

 **************************************************************************

                    xk=(   0.43333,   0.00000,   0.00000  )

     Band symmetry, C_4v (4mm)  point group:

     e(  1 -  1) =     -5.06801  eV     1   --> A_1  G_1 D_1   
     e(  2 -  2) =      3.15081  eV     1   --> B_2  G_4 D_2'  
     e(  3 -  4) =      4.41880  eV     2   --> E    G_5 D_5   
     e(  5 -  5) =      7.36210  eV     1   --> A_1  G_1 D_1   
     e(  6 -  6) =      9.65149  eV     1   --> B_2  G_4 D_2'  
     e(  7 -  8) =     11.20943  eV     2   --> E    G_5 D_5   

 **************************************************************************

 **************************************************************************

                    xk=(   0.46667,   0.00000,   0.00000  )

     Band symmetry, C_4v (4mm)  point group:

     e(  1 -  1) =     -4.93901  eV     1   --> A_1  G_1 D_1   
     e(  2 -  2) =      2.85451  eV     1   --> B_2  G_4 D_2'  
     e(  3 -  4) =      4.28422  eV     2   --> E    G_5 D_5   
     e(  5 -  5) =      7.24956  eV     1   --> A_1  G_1 D_1   
     e(  6 -  6) =      9.39760  eV     1   --> B_2  G_4 D_2'  
     e(  7 -  8) =     11.49437  eV     2   --> E    G_5 D_5   

 **************************************************************************

 **************************************************************************

                    xk=(   0.50000,   0.00000,   0.00000  )

     Band symmetry, C_4v (4mm)  point group:

     e(  1 -  1) =     -4.80089  eV     1   --> A_1  G_1 D_1   
     e(  2 -  2) =      2.55707  eV     1   --> B_2  G_4 D_2'  
     e(  3 -  4) =      4.15620  eV     2   --> E    G_5 D_5   
     e(  5 -  5) =      7.14351  eV     1   --> A_1  G_1 D_1   
     e(  6 -  6) =      9.14339  eV     1   --> B_2  G_4 D_2'  
     e(  7 -  8) =     11.78348  eV     2   --> E    G_5 D_5   

 **************************************************************************

 **************************************************************************

                    xk=(   0.53333,   0.00000,   0.00000  )

     Band symmetry, C_4v (4mm)  point group:

     e(  1 -  1) =     -4.65371  eV     1   --> A_1  G_1 D_1   
     e(  2 -  2) =      2.25919  eV     1   --> B_2  G_4 D_2'  
     e(  3 -  4) =      4.03521  eV     2   --> E    G_5 D_5   
     e(  5 -  5) =      7.04475  eV     1   --> A_1  G_1 D_1   
     e(  6 -  6) =      8.89510  eV     1   --> B_2  G_4 D_2'  
     e(  7 -  8) =     12.07658  eV     2   --> E    G_5 D_5   

 **************************************************************************

 **************************************************************************

                    xk=(   0.56667,   0.00000,   0.00000  )

     Band symmetry, C_4v (4mm)  point group:

     e(  1 -  1) =     -4.49769  eV     1   --> A_1  G_1 D_1   
     e(  2 -  2) =      1.96092  eV     1   --> B_2  G_4 D_2'  
     e(  3 -  4) =      3.92142  eV     2   --> E    G_5 D_5   
     e(  5 -  5) =      6.95399  eV     1   --> A_1  G_1 D_1   
     e(  6 -  6) =      8.65406  eV     1   --> B_2  G_4 D_2'  
     e(  7 -  8) =     12.37218  eV     2   --> E    G_5 D_5   

 **************************************************************************

 **************************************************************************

                    xk=(   0.60000,   0.00000,   0.00000  )

     Band symmetry, C_4v (4mm)  point group:

     e(  1 -  1) =     -4.33288  eV     1   --> A_1  G_1 D_1   
     e(  2 -  2) =      1.66290  eV     1   --> B_2  G_4 D_2'  
     e(  3 -  4) =      3.81523  eV     2   --> E    G_5 D_5   
     e(  5 -  5) =      6.87185  eV     1   --> A_1  G_1 D_1   
     e(  6 -  6) =      8.42353  eV     1   --> B_2  G_4 D_2'  
     e(  7 -  8) =     12.67054  eV     2   --> E    G_5 D_5   

 **************************************************************************

 **************************************************************************

                    xk=(   0.63333,   0.00000,   0.00000  )

     Band symmetry, C_4v (4mm)  point group:

     e(  1 -  1) =     -4.15944  eV     1   --> A_1  G_1 D_1   
     e(  2 -  2) =      1.36548  eV     1   --> B_2  G_4 D_2'  
     e(  3 -  4) =      3.71677  eV     2   --> E    G_5 D_5   
     e(  5 -  5) =      6.79862  eV     1   --> A_1  G_1 D_1   
     e(  6 -  6) =      8.20487  eV     1   --> B_2  G_4 D_2'  
     e(  7 -  8) =     12.96986  eV     2   --> E    G_5 D_5   

 **************************************************************************

 **************************************************************************

                    xk=(   0.66667,   0.00000,   0.00000  )

     Band symmetry, C_4v (4mm)  point group:

     e(  1 -  1) =     -3.97751  eV     1   --> A_1  G_1 D_1   
     e(  2 -  2) =      1.06925  eV     1   --> B_2  G_4 D_2'  
     e(  3 -  4) =      3.62642  eV     2   --> E    G_5 D_5   
     e(  5 -  5) =      6.73529  eV     1   --> A_1  G_1 D_1   
     e(  6 -  6) =      7.99925  eV     1   --> B_2  G_4 D_2'  
     e(  7 -  8) =     13.27304  eV     2   --> E    G_5 D_5   

 **************************************************************************

 **************************************************************************

                    xk=(   0.70000,   0.00000,   0.00000  )

     Band symmetry, C_4v (4mm)  point group:

     e(  1 -  1) =     -3.78724  eV     1   --> A_1  G_1 D_1   
     e(  2 -  2) =      0.77458  eV     1   --> B_2  G_4 D_2'  
     e(  3 -  4) =      3.54427  eV     2   --> E    G_5 D_5   
     e(  5 -  5) =      6.68205  eV     1   --> A_1  G_1 D_1   
     e(  6 -  6) =      7.80722  eV     1   --> B_2  G_4 D_2'  
     e(  7 -  8) =     13.57839  eV     2   --> E    G_5 D_5   

 **************************************************************************

 **************************************************************************

                    xk=(   0.73333,   0.00000,   0.00000  )

     Band symmetry, C_4v (4mm)  point group:

     e(  1 -  1) =     -3.58877  eV     1   --> A_1  G_1 D_1   
     e(  2 -  2) =      0.48212  eV     1   --> B_2  G_4 D_2'  
     e(  3 -  4) =      3.47088  eV     2   --> E    G_5 D_5   
     e(  5 -  5) =      6.63950  eV     1   --> A_1  G_1 D_1   
     e(  6 -  6) =      7.62918  eV     1   --> B_2  G_4 D_2'  
     e(  7 -  8) =     13.88600  eV     2   --> E    G_5 D_5   

 **************************************************************************

 **************************************************************************

                    xk=(   0.76667,   0.00000,   0.00000  )

     Band symmetry, C_4v (4mm)  point group:

     e(  1 -  1) =     -3.38240  eV     1   --> A_1  G_1 D_1   
     e(  2 -  2) =      0.19188  eV     1   --> B_2  G_4 D_2'  
     e(  3 -  4) =      3.40546  eV     2   --> E    G_5 D_5   
     e(  5 -  5) =      6.60760  eV     1   --> A_1  G_1 D_1   
     e(  6 -  6) =      7.46534  eV     1   --> B_2  G_4 D_2'  
     e(  7 -  8) =     14.19496  eV     2   --> E    G_5 D_5   

 **************************************************************************

 **************************************************************************

                    xk=(   0.80000,   0.00000,   0.00000  )

     Band symmetry, C_4v (4mm)  point group:

     e(  1 -  1) =     -3.16827  eV     1   --> A_1  G_1 D_1   
     e(  2 -  2) =     -0.09547  eV     1   --> B_2  G_4 D_2'  
     e(  3 -  4) =      3.34859  eV     2   --> E    G_5 D_5   
     e(  5 -  5) =      6.58689  eV     1   --> A_1  G_1 D_1   
     e(  6 -  6) =      7.31579  eV     1   --> B_2  G_4 D_2'  
     e(  7 -  8) =     14.50502  eV     2   --> E    G_5 D_5   

 **************************************************************************

 **************************************************************************

                    xk=(   0.83333,   0.00000,   0.00000  )

     Band symmetry, C_4v (4mm)  point group:

     e(  1 -  1) =     -2.94650  eV     1   --> A_1  G_1 D_1   
     e(  2 -  2) =     -0.37946  eV     1   --> B_2  G_4 D_2'  
     e(  3 -  4) =      3.30063  eV     2   --> E    G_5 D_5   
     e(  5 -  5) =      6.57771  eV     1   --> A_1  G_1 D_1   
     e(  6 -  6) =      7.18059  eV     1   --> B_2  G_4 D_2'  
     e(  7 -  8) =     14.81540  eV     2   --> E    G_5 D_5   

 **************************************************************************

 **************************************************************************

                    xk=(   0.86667,   0.00000,   0.00000  )

     Band symmetry, C_4v (4mm)  point group:

     e(  1 -  1) =     -2.71760  eV     1   --> A_1  G_1 D_1   
     e(  2 -  2) =     -0.65984  eV     1   --> B_2  G_4 D_2'  
     e(  3 -  4) =      3.26084  eV     2   --> E    G_5 D_5   
     e(  5 -  5) =      6.58017  eV     1   --> A_1  G_1 D_1   
     e(  6 -  6) =      7.05951  eV     1   --> B_2  G_4 D_2'  
     e(  7 -  8) =     15.12090  eV     2   --> E    G_5 D_5   

 **************************************************************************

 **************************************************************************

                    xk=(   0.90000,   0.00000,   0.00000  )

     Band symmetry, C_4v (4mm)  point group:

     e(  1 -  1) =     -2.48171  eV     1   --> A_1  G_1 D_1   
     e(  2 -  2) =     -0.93588  eV     1   --> B_2  G_4 D_2'  
     e(  3 -  4) =      3.23000  eV     2   --> E    G_5 D_5   
     e(  5 -  5) =      6.59454  eV     1   --> A_1  G_1 D_1   
     e(  6 -  6) =      6.95253  eV     1   --> B_2  G_4 D_2'  
     e(  7 -  8) =     15.42313  eV     2   --> E    G_5 D_5   

 **************************************************************************

 **************************************************************************

                    xk=(   0.93333,   0.00000,   0.00000  )

     Band symmetry, C_4v (4mm)  point group:

     e(  1 -  1) =     -2.23907  eV     1   --> A_1  G_1 D_1   
     e(  2 -  2) =     -1.20739  eV     1   --> B_2  G_4 D_2'  
     e(  3 -  4) =      3.20772  eV     2   --> E    G_5 D_5   
     e(  5 -  5) =      6.62145  eV     1   --> A_1  G_1 D_1   
     e(  6 -  6) =      6.85904  eV     1   --> B_2  G_4 D_2'  
     e(  7 -  8) =     15.70752  eV     2   --> E    G_5 D_5   

 **************************************************************************

 **************************************************************************

                    xk=(   0.96667,   0.00000,   0.00000  )

     Band symmetry, C_4v (4mm)  point group:

     e(  1 -  1) =     -1.99001  eV     1   --> A_1  G_1 D_1   
     e(  2 -  2) =     -1.47381  eV     1   --> B_2  G_4 D_2'  
     e(  3 -  4) =      3.19446  eV     2   --> E    G_5 D_5   
     e(  5 -  5) =      6.66085  eV     1   --> A_1  G_1 D_1   
     e(  6 -  6) =      6.77954  eV     1   --> B_2  G_4 D_2'  
     e(  7 -  8) =     15.94748  eV     2   --> E    G_5 D_5   

 **************************************************************************

 **************************************************************************

                    xk=(   1.00000,   0.00000,   0.00000  )

     zone border point and non-symmorphic group 
     symmetry decomposition not available

 **************************************************************************

 **************************************************************************

                    xk=(   1.00000,   0.02500,   0.02500  )

     zone border point and non-symmorphic group 
     symmetry decomposition not available

 **************************************************************************

 **************************************************************************

                    xk=(   1.00000,   0.05000,   0.05000  )

     zone border point and non-symmorphic group 
     symmetry decomposition not available

 **************************************************************************

 **************************************************************************

                    xk=(   1.00000,   0.07500,   0.07500  )

     zone border point and non-symmorphic group 
     symmetry decomposition not available

 **************************************************************************

 **************************************************************************

                    xk=(   1.00000,   0.10000,   0.10000  )

     zone border point and non-symmorphic group 
     symmetry decomposition not available

 **************************************************************************

 **************************************************************************

                    xk=(   1.00000,   0.12500,   0.12500  )

     zone border point and non-symmorphic group 
     symmetry decomposition not available

 **************************************************************************

 **************************************************************************

                    xk=(   1.00000,   0.15000,   0.15000  )

     zone border point and non-symmorphic group 
     symmetry decomposition not available

 **************************************************************************

 **************************************************************************

                    xk=(   1.00000,   0.17500,   0.17500  )

     zone border point and non-symmorphic group 
     symmetry decomposition not available

 **************************************************************************

 **************************************************************************

                    xk=(   1.00000,   0.20000,   0.20000  )

     zone border point and non-symmorphic group 
     symmetry decomposition not available

 **************************************************************************

 **************************************************************************

                    xk=(   1.00000,   0.22500,   0.22500  )

     zone border point and non-symmorphic group 
     symmetry decomposition not available

 **************************************************************************

 **************************************************************************

                    xk=(   1.00000,   0.25000,   0.25000  )

     zone border point and non-symmorphic group 
     symmetry decomposition not available

 **************************************************************************

 **************************************************************************

                    xk=(   0.96667,   0.24167,   0.24167  )

     point group C_s (m)    
     there are  2 classes
     the character table:

       E     s    
A'     1.00  1.00
A''    1.00 -1.00

     the symmetry operations in each class and the name of the first element:

     E        1
                                                                 
     s        2
                                                                 

     Band symmetry, C_s (m)     point group:

     e(  1 -  1) =     -2.14403  eV     1   --> A'             
     e(  2 -  2) =     -1.14855  eV     1   --> A'             
     e(  3 -  3) =      1.76308  eV     1   --> A'             
     e(  4 -  4) =      3.59609  eV     1   --> A''            
     e(  5 -  5) =      7.18552  eV     1   --> A'             
     e(  6 -  6) =      9.97612  eV     1   --> A'             
     e(  7 -  7) =     13.51697  eV     1   --> A''            
     e(  8 -  8) =     13.84844  eV     1   --> A'             

 **************************************************************************

 **************************************************************************

                    xk=(   0.93333,   0.23333,   0.23333  )

     Band symmetry, C_s (m)     point group:

     e(  1 -  1) =     -2.23087  eV     1   --> A'             
     e(  2 -  2) =     -1.07179  eV     1   --> A'             
     e(  3 -  3) =      1.83755  eV     1   --> A'             
     e(  4 -  4) =      3.58167  eV     1   --> A''            
     e(  5 -  5) =      7.17233  eV     1   --> A'             
     e(  6 -  6) =      9.82881  eV     1   --> A'             
     e(  7 -  7) =     13.43492  eV     1   --> A''            
     e(  8 -  8) =     13.63356  eV     1   --> A'             

 **************************************************************************

 **************************************************************************

                    xk=(   0.90000,   0.22500,   0.22500  )

     Band symmetry, C_s (m)     point group:

     e(  1 -  1) =     -2.37786  eV     1   --> A'             
     e(  2 -  2) =     -0.93504  eV     1   --> A'             
     e(  3 -  3) =      1.93642  eV     1   --> A'             
     e(  4 -  4) =      3.57655  eV     1   --> A''            
     e(  5 -  5) =      7.17163  eV     1   --> A'             
     e(  6 -  6) =      9.69569  eV     1   --> A'             
     e(  7 -  7) =     13.30580  eV     1   --> A''            
     e(  8 -  8) =     13.41441  eV     1   --> A'             

 **************************************************************************

 **************************************************************************

                    xk=(   0.86667,   0.21667,   0.21667  )

     Band symmetry, C_s (m)     point group:

     e(  1 -  1) =     -2.55902  eV     1   --> A'             
     e(  2 -  2) =     -0.76081  eV     1   --> A'             
     e(  3 -  3) =      2.05581  eV     1   --> A'             
     e(  4 -  4) =      3.58051  eV     1   --> A''            
     e(  5 -  5) =      7.18272  eV     1   --> A'             
     e(  6 -  6) =      9.57755  eV     1   --> A'             
     e(  7 -  7) =     13.15846  eV     1   --> A''            
     e(  8 -  8) =     13.19532  eV     1   --> A'             

 **************************************************************************

 **************************************************************************

                    xk=(   0.83333,   0.20833,   0.20833  )

     Band symmetry, C_s (m)     point group:

     e(  1 -  1) =     -2.75760  eV     1   --> A'             
     e(  2 -  2) =     -0.56294  eV     1   --> A'             
     e(  3 -  3) =      2.19246  eV     1   --> A'             
     e(  4 -  4) =      3.59386  eV     1   --> A''            
     e(  5 -  5) =      7.20498  eV     1   --> A'             
     e(  6 -  6) =      9.47561  eV     1   --> A'             
     e(  7 -  7) =     12.97718  eV     1   --> A'             
     e(  8 -  8) =     13.00494  eV     1   --> A''            

 **************************************************************************

 **************************************************************************

                    xk=(   0.80000,   0.20000,   0.20000  )

     Band symmetry, C_s (m)     point group:

     e(  1 -  1) =     -2.96420  eV     1   --> A'             
     e(  2 -  2) =     -0.34865  eV     1   --> A'             
     e(  3 -  3) =      2.34359  eV     1   --> A'             
     e(  4 -  4) =      3.61659  eV     1   --> A''            
     e(  5 -  5) =      7.23773  eV     1   --> A'             
     e(  6 -  6) =      9.39117  eV     1   --> A'             
     e(  7 -  7) =     12.76158  eV     1   --> A'             
     e(  8 -  8) =     12.85003  eV     1   --> A''            

 **************************************************************************

 **************************************************************************

                    xk=(   0.76667,   0.19167,   0.19167  )

     Band symmetry, C_s (m)     point group:

     e(  1 -  1) =     -3.17332  eV     1   --> A'             
     e(  2 -  2) =     -0.12164  eV     1   --> A'             
     e(  3 -  3) =      2.50676  eV     1   --> A'             
     e(  4 -  4) =      3.64842  eV     1   --> A''            
     e(  5 -  5) =      7.27973  eV     1   --> A'             
     e(  6 -  6) =      9.32569  eV     1   --> A'             
     e(  7 -  7) =     12.54645  eV     1   --> A'             
     e(  8 -  8) =     12.69485  eV     1   --> A''            

 **************************************************************************

 **************************************************************************

                    xk=(   0.73333,   0.18333,   0.18333  )

     Band symmetry, C_s (m)     point group:

     e(  1 -  1) =     -3.38141  eV     1   --> A'             
     e(  2 -  2) =      0.11600  eV     1   --> A'             
     e(  3 -  3) =      2.68007  eV     1   --> A'             
     e(  4 -  4) =      3.69004  eV     1   --> A''            
     e(  5 -  5) =      7.32936  eV     1   --> A'             
     e(  6 -  6) =      9.28105  eV     1   --> A'             
     e(  7 -  7) =     12.33328  eV     1   --> A'             
     e(  8 -  8) =     12.54103  eV     1   --> A''            

 **************************************************************************

 **************************************************************************

                    xk=(   0.70000,   0.17500,   0.17500  )

     Band symmetry, C_s (m)     point group:

     e(  1 -  1) =     -3.58620  eV     1   --> A'             
     e(  2 -  2) =      0.36302  eV     1   --> A'             
     e(  3 -  3) =      2.86156  eV     1   --> A'             
     e(  4 -  4) =      3.74106  eV     1   --> A''            
     e(  5 -  5) =      7.38487  eV     1   --> A'             
     e(  6 -  6) =      9.25900  eV     1   --> A'             
     e(  7 -  7) =     12.12191  eV     1   --> A'             
     e(  8 -  8) =     12.38690  eV     1   --> A''            

 **************************************************************************

 **************************************************************************

                    xk=(   0.66667,   0.16667,   0.16667  )

     Band symmetry, C_s (m)     point group:

     e(  1 -  1) =     -3.78602  eV     1   --> A'             
     e(  2 -  2) =      0.61852  eV     1   --> A'             
     e(  3 -  3) =      3.04948  eV     1   --> A'             
     e(  4 -  4) =      3.80141  eV     1   --> A''            
     e(  5 -  5) =      7.44409  eV     1   --> A'             
     e(  6 -  6) =      9.26159  eV     1   --> A'             
     e(  7 -  7) =     11.91283  eV     1   --> A'             
     e(  8 -  8) =     12.23153  eV     1   --> A''            

 **************************************************************************

 **************************************************************************

                    xk=(   0.63333,   0.15833,   0.15833  )

     Band symmetry, C_s (m)     point group:

     e(  1 -  1) =     -3.97967  eV     1   --> A'             
     e(  2 -  2) =      0.88189  eV     1   --> A'             
     e(  3 -  3) =      3.24230  eV     1   --> A'             
     e(  4 -  4) =      3.87081  eV     1   --> A''            
     e(  5 -  5) =      7.50506  eV     1   --> A'             
     e(  6 -  6) =      9.29057  eV     1   --> A'             
     e(  7 -  7) =     11.70657  eV     1   --> A'             
     e(  8 -  8) =     12.07359  eV     1   --> A''            

 **************************************************************************

 **************************************************************************

                    xk=(   0.60000,   0.15000,   0.15000  )

     Band symmetry, C_s (m)     point group:

     e(  1 -  1) =     -4.16621  eV     1   --> A'             
     e(  2 -  2) =      1.15298  eV     1   --> A'             
     e(  3 -  3) =      3.43869  eV     1   --> A'             
     e(  4 -  4) =      3.94959  eV     1   --> A''            
     e(  5 -  5) =      7.56604  eV     1   --> A'             
     e(  6 -  6) =      9.34668  eV     1   --> A'             
     e(  7 -  7) =     11.50357  eV     1   --> A'             
     e(  8 -  8) =     11.91144  eV     1   --> A''            

 **************************************************************************

 **************************************************************************

                    xk=(   0.56667,   0.14167,   0.14167  )

     Band symmetry, C_s (m)     point group:

     e(  1 -  1) =     -4.34495  eV     1   --> A'             
     e(  2 -  2) =      1.43119  eV     1   --> A'             
     e(  3 -  3) =      3.63721  eV     1   --> A'             
     e(  4 -  4) =      4.03733  eV     1   --> A''            
     e(  5 -  5) =      7.62581  eV     1   --> A'             
     e(  6 -  6) =      9.42994  eV     1   --> A'             
     e(  7 -  7) =     11.30471  eV     1   --> A'             
     e(  8 -  8) =     11.74333  eV     1   --> A''            

 **************************************************************************

 **************************************************************************

                    xk=(   0.53333,   0.13333,   0.13333  )

     Band symmetry, C_s (m)     point group:

     e(  1 -  1) =     -4.51530  eV     1   --> A'             
     e(  2 -  2) =      1.71635  eV     1   --> A'             
     e(  3 -  3) =      3.83667  eV     1   --> A'             
     e(  4 -  4) =      4.13405  eV     1   --> A''            
     e(  5 -  5) =      7.68422  eV     1   --> A'             
     e(  6 -  6) =      9.53796  eV     1   --> A'             
     e(  7 -  7) =     11.11255  eV     1   --> A'             
     e(  8 -  8) =     11.56791  eV     1   --> A''            

 **************************************************************************

 **************************************************************************

                    xk=(   0.50000,   0.12500,   0.12500  )

     Band symmetry, C_s (m)     point group:

     e(  1 -  1) =     -4.67682  eV     1   --> A'             
     e(  2 -  2) =      2.00777  eV     1   --> A'             
     e(  3 -  3) =      4.03557  eV     1   --> A'             
     e(  4 -  4) =      4.23922  eV     1   --> A''            
     e(  5 -  5) =      7.74138  eV     1   --> A'             
     e(  6 -  6) =      9.66491  eV     1   --> A'             
     e(  7 -  7) =     10.92963  eV     1   --> A'             
     e(  8 -  8) =     11.38295  eV     1   --> A''            

 **************************************************************************

 **************************************************************************

                    xk=(   0.46667,   0.11667,   0.11667  )

     Band symmetry, C_s (m)     point group:

     e(  1 -  1) =     -4.82914  eV     1   --> A'             
     e(  2 -  2) =      2.30545  eV     1   --> A'             
     e(  3 -  3) =      4.23301  eV     1   --> A'             
     e(  4 -  4) =      4.35265  eV     1   --> A''            
     e(  5 -  5) =      7.79818  eV     1   --> A'             
     e(  6 -  6) =      9.79922  eV     1   --> A'             
     e(  7 -  7) =     10.76450  eV     1   --> A'             
     e(  8 -  8) =     11.18773  eV     1   --> A''            

 **************************************************************************

 **************************************************************************

                    xk=(   0.43333,   0.10833,   0.10833  )

     Band symmetry, C_s (m)     point group:

     e(  1 -  1) =     -4.97193  eV     1   --> A'             
     e(  2 -  2) =      2.60889  eV     1   --> A'             
     e(  3 -  3) =      4.42765  eV     1   --> A'             
     e(  4 -  4) =      4.47391  eV     1   --> A''            
     e(  5 -  5) =      7.85592  eV     1   --> A'             
     e(  6 -  6) =      9.91527  eV     1   --> A'             
     e(  7 -  7) =     10.63793  eV     1   --> A'             
     e(  8 -  8) =     10.98235  eV     1   --> A''            

 **************************************************************************

 **************************************************************************

                    xk=(   0.40000,   0.10000,   0.10000  )

     Band symmetry, C_s (m)     point group:

     e(  1 -  1) =     -5.10493  eV     1   --> A'             
     e(  2 -  2) =      2.91744  eV     1   --> A'             
     e(  3 -  3) =      4.60258  eV     1   --> A''            
     e(  4 -  4) =      4.61850  eV     1   --> A'             
     e(  5 -  5) =      7.91583  eV     1   --> A'             
     e(  6 -  6) =      9.96165  eV     1   --> A'             
     e(  7 -  7) =     10.59333  eV     1   --> A'             
     e(  8 -  8) =     10.76726  eV     1   --> A''            

 **************************************************************************

 **************************************************************************

                    xk=(   0.36667,   0.09167,   0.09167  )

     Band symmetry, C_s (m)     point group:

     e(  1 -  1) =     -5.22792  eV     1   --> A'             
     e(  2 -  2) =      3.23039  eV     1   --> A'             
     e(  3 -  3) =      4.73798  eV     1   --> A''            
     e(  4 -  4) =      4.80436  eV     1   --> A'             
     e(  5 -  5) =      7.97886  eV     1   --> A'             
     e(  6 -  6) =      9.90455  eV     1   --> A'             
     e(  7 -  7) =     10.54390  eV     1   --> A''            
     e(  8 -  8) =     10.65085  eV     1   --> A'             

 **************************************************************************

 **************************************************************************

                    xk=(   0.33333,   0.08333,   0.08333  )

     Band symmetry, C_s (m)     point group:

     e(  1 -  1) =     -5.34073  eV     1   --> A'             
     e(  2 -  2) =      3.54680  eV     1   --> A'             
     e(  3 -  3) =      4.87933  eV     1   --> A''            
     e(  4 -  4) =      4.98394  eV     1   --> A'             
     e(  5 -  5) =      8.04560  eV     1   --> A'             
     e(  6 -  6) =      9.78324  eV     1   --> A'             
     e(  7 -  7) =     10.31467  eV     1   --> A''            
     e(  8 -  8) =     10.74778  eV     1   --> A'             

 **************************************************************************

 **************************************************************************

                    xk=(   0.30000,   0.07500,   0.07500  )

     Band symmetry, C_s (m)     point group:

     e(  1 -  1) =     -5.44319  eV     1   --> A'             
     e(  2 -  2) =      3.86541  eV     1   --> A'             
     e(  3 -  3) =      5.02543  eV     1   --> A''            
     e(  4 -  4) =      5.15591  eV     1   --> A'             
     e(  5 -  5) =      8.11578  eV     1   --> A'             
     e(  6 -  6) =      9.63857  eV     1   --> A'             
     e(  7 -  7) =     10.08195  eV     1   --> A''            
     e(  8 -  8) =     10.80561  eV     1   --> A'             

 **************************************************************************

 **************************************************************************

                    xk=(   0.26667,   0.06667,   0.06667  )

     Band symmetry, C_s (m)     point group:

     e(  1 -  1) =     -5.53518  eV     1   --> A'             
     e(  2 -  2) =      4.18452  eV     1   --> A'             
     e(  3 -  3) =      5.17490  eV     1   --> A''            
     e(  4 -  4) =      5.31889  eV     1   --> A'             
     e(  5 -  5) =      8.18888  eV     1   --> A'             
     e(  6 -  6) =      9.48826  eV     1   --> A'             
     e(  7 -  7) =      9.84930  eV     1   --> A''            
     e(  8 -  8) =     10.76649  eV     1   --> A'             

 **************************************************************************

 **************************************************************************

                    xk=(   0.23333,   0.05833,   0.05833  )

     Band symmetry, C_s (m)     point group:

     e(  1 -  1) =     -5.61658  eV     1   --> A'             
     e(  2 -  2) =      4.50175  eV     1   --> A'             
     e(  3 -  3) =      5.32575  eV     1   --> A''            
     e(  4 -  4) =      5.47116  eV     1   --> A'             
     e(  5 -  5) =      8.26365  eV     1   --> A'             
     e(  6 -  6) =      9.33965  eV     1   --> A'             
     e(  7 -  7) =      9.62049  eV     1   --> A''            
     e(  8 -  8) =     10.61688  eV     1   --> A'             

 **************************************************************************

 **************************************************************************

                    xk=(   0.20000,   0.05000,   0.05000  )

     Band symmetry, C_s (m)     point group:

     e(  1 -  1) =     -5.68730  eV     1   --> A'             
     e(  2 -  2) =      4.81367  eV     1   --> A'             
     e(  3 -  3) =      5.47535  eV     1   --> A''            
     e(  4 -  4) =      5.61087  eV     1   --> A'             
     e(  5 -  5) =      8.33826  eV     1   --> A'             
     e(  6 -  6) =      9.19635  eV     1   --> A'             
     e(  7 -  7) =      9.39991  eV     1   --> A''            
     e(  8 -  8) =     10.39226  eV     1   --> A'             

 **************************************************************************

 **************************************************************************

                    xk=(   0.16667,   0.04167,   0.04167  )

     Band symmetry, C_s (m)     point group:

     e(  1 -  1) =     -5.74726  eV     1   --> A'             
     e(  2 -  2) =      5.11530  eV     1   --> A'             
     e(  3 -  3) =      5.62019  eV     1   --> A''            
     e(  4 -  4) =      5.73594  eV     1   --> A'             
     e(  5 -  5) =      8.41047  eV     1   --> A'             
     e(  6 -  6) =      9.06074  eV     1   --> A'             
     e(  7 -  7) =      9.19328  eV     1   --> A''            
     e(  8 -  8) =     10.13688  eV     1   --> A'             

 **************************************************************************

 **************************************************************************

                    xk=(   0.13333,   0.03333,   0.03333  )

     Band symmetry, C_s (m)     point group:

     e(  1 -  1) =     -5.79641  eV     1   --> A'             
     e(  2 -  2) =      5.39899  eV     1   --> A'             
     e(  3 -  3) =      5.75520  eV     1   --> A''            
     e(  4 -  4) =      5.84378  eV     1   --> A'             
     e(  5 -  5) =      8.47663  eV     1   --> A'             
     e(  6 -  6) =      8.93326  eV     1   --> A'             
     e(  7 -  7) =      9.00601  eV     1   --> A''            
     e(  8 -  8) =      9.88380  eV     1   --> A'             

 **************************************************************************

 **************************************************************************

                    xk=(   0.10000,   0.02500,   0.02500  )

     Band symmetry, C_s (m)     point group:

     e(  1 -  1) =     -5.83468  eV     1   --> A'             
     e(  2 -  2) =      5.65335  eV     1   --> A'             
     e(  3 -  3) =      5.87390  eV     1   --> A''            
     e(  4 -  4) =      5.93180  eV     1   --> A'             
     e(  5 -  5) =      8.53349  eV     1   --> A'             
     e(  6 -  6) =      8.81643  eV     1   --> A'             
     e(  7 -  7) =      8.84584  eV     1   --> A''            
     e(  8 -  8) =      9.65942  eV     1   --> A'             

 **************************************************************************

 **************************************************************************

                    xk=(   0.06667,   0.01667,   0.01667  )

     Band symmetry, C_s (m)     point group:

     e(  1 -  1) =     -5.86204  eV     1   --> A'             
     e(  2 -  2) =      5.86160  eV     1   --> A'             
     e(  3 -  3) =      5.96844  eV     1   --> A''            
     e(  4 -  4) =      5.99734  eV     1   --> A'             
     e(  5 -  5) =      8.57708  eV     1   --> A'             
     e(  6 -  6) =      8.71498  eV     1   --> A'             
     e(  7 -  7) =      8.72134  eV     1   --> A''            
     e(  8 -  8) =      9.48496  eV     1   --> A'             

 **************************************************************************

 **************************************************************************

                    xk=(   0.03333,   0.00833,   0.00833  )

     Band symmetry, C_s (m)     point group:

     e(  1 -  1) =     -5.87846  eV     1   --> A'             
     e(  2 -  2) =      6.00142  eV     1   --> A'             
     e(  3 -  3) =      6.03008  eV     1   --> A''            
     e(  4 -  4) =      6.03782  eV     1   --> A'             
     e(  5 -  5) =      8.60457  eV     1   --> A'             
     e(  6 -  6) =      8.64133  eV     1   --> A'             
     e(  7 -  7) =      8.64166  eV     1   --> A''            
     e(  8 -  8) =      9.37553  eV     1   --> A'             

 **************************************************************************

 **************************************************************************

                    xk=(   0.00000,   0.00000,   0.00000  )

     point group O_h (m-3m) 
     there are 10 classes
     the character table:

       E     8C3   3C2   6C4   6C2'  i     8S6   3s_h  6S4   6s_d 
A_1g   1.00  1.00  1.00  1.00  1.00  1.00  1.00  1.00  1.00  1.00
A_2g   1.00  1.00  1.00 -1.00 -1.00  1.00  1.00  1.00 -1.00 -1.00
E_g    2.00 -1.00  2.00  0.00  0.00  2.00 -1.00  2.00  0.00  0.00
T_1g   3.00  0.00 -1.00  1.00 -1.00  3.00  0.00 -1.00  1.00 -1.00
T_2g   3.00  0.00 -1.00 -1.00  1.00  3.00  0.00 -1.00 -1.00  1.00
A_1u   1.00  1.00  1.00  1.00  1.00 -1.00 -1.00 -1.00 -1.00 -1.00
A_2u   1.00  1.00  1.00 -1.00 -1.00 -1.00 -1.00 -1.00  1.00  1.00
E_u    2.00 -1.00  2.00  0.00  0.00 -2.00  1.00 -2.00  0.00  0.00
T_1u   3.00  0.00 -1.00  1.00 -1.00 -3.00  0.00  1.00 -1.00  1.00
T_2u   3.00  0.00 -1.00 -1.00  1.00 -3.00  0.00  1.00  1.00 -1.00

     the symmetry operations in each class and the name of the first element:

     E        1
                                                                 
     8C3     17   19   20   18   24   21   22   23
                                                                 
     3C2      2    4    3
                                                                 
     6C4      7    8   15   16   12   11
                                                                 
     6C2'     5    6   14   13   10    9
                                                                 
     i       25
                                                                 
     8S6     41   43   44   42   48   45   46   47
                                                                 
     3s_h    26   28   27
                                                                 
     6S4     31   32   39   40   36   35
                                                                 
     6s_d    29   30   38   37   34   33
                                                                 

     Band symmetry, O_h (m-3m)  point group:

     e(  1 -  1) =     -5.88392  eV     1   --> A_1g G_1   G_1+
     e(  2 -  4) =      6.05178  eV     3   --> T_2g G_25' G_5+
     e(  5 -  7) =      8.61428  eV     3   --> T_1u G_15  G_4-
     e(  8 -  8) =      9.33862  eV     1   --> A_2u G_2'  G_2-

 **************************************************************************

     BANDS        :     3.55s CPU         3.58s WALL


   This run was terminated on:  11: 1: 7  17Sep2019            

=------------------------------------------------------------------------------=
   JOB DONE.
=------------------------------------------------------------------------------=
