
     Program PWSCF v.5.4.0 starts on 27Aug2019 at 17: 9:11 

     This program is part of the open-source Quantum ESPRESSO suite
     for quantum simulation of materials; please cite
         "P. Giannozzi et al., J. Phys.:Condens. Matter 21 395502 (2009);
          URL http://www.quantum-espresso.org", 
     in publications or presentations arising from this work. More details at
     http://www.quantum-espresso.org/quote

     Serial version
     Reading input from si.scf.in

     Current dimensions of program PWSCF are:
     Max number of different atomic species (ntypx) = 10
     Max number of k-points (npk) =  40000
     Max angular momentum in pseudopotentials (lmaxx) =  3

     G-vector sticks info
     --------------------
     sticks:   dense  smooth     PW     G-vecs:    dense   smooth      PW
     Sum         163     163     61                 1459     1459     331



     bravais-lattice index     =            2
     lattice parameter (alat)  =      10.2000  a.u.
     unit-cell volume          =     265.3020 (a.u.)^3
     number of atoms/cell      =            2
     number of atomic types    =            1
     number of electrons       =         8.00
     number of Kohn-Sham states=            4
     kinetic-energy cutoff     =      12.0000  Ry
     charge density cutoff     =      48.0000  Ry
     convergence threshold     =      1.0E-06
     mixing beta               =       0.7000
     number of iterations used =            8  plain     mixing
     Exchange-correlation      =  SLA  PZ   NOGX NOGC ( 1  1  0  0 0 0)

     celldm(1)=  10.200000  celldm(2)=   0.000000  celldm(3)=   0.000000
     celldm(4)=   0.000000  celldm(5)=   0.000000  celldm(6)=   0.000000

     crystal axes: (cart. coord. in units of alat)
               a(1) = (  -0.500000   0.000000   0.500000 )  
               a(2) = (   0.000000   0.500000   0.500000 )  
               a(3) = (  -0.500000   0.500000   0.000000 )  

     reciprocal axes: (cart. coord. in units 2 pi/alat)
               b(1) = ( -1.000000 -1.000000  1.000000 )  
               b(2) = (  1.000000  1.000000  1.000000 )  
               b(3) = ( -1.000000  1.000000 -1.000000 )  


     PseudoPot. # 1 for Si read from file:
     ../pseudo/Si.pz-vbc.UPF
     MD5 check sum: 6dfa03ddd5817404712e03e4d12deb78
     Pseudo is Norm-conserving, Zval =  4.0
     Generated by new atomic code, or converted to UPF format
     Using radial grid of  431 points,  2 beta functions with: 
                l(1) =   0
                l(2) =   1

     atomic species   valence    mass     pseudopotential
        Si             4.00    28.08600     Si( 1.00)

     24 Sym. Ops. (no inversion) found
          (note: 24 additional sym.ops. were found but ignored
           their fractional translations are incommensurate with FFT grid)


   Cartesian axes

     site n.     atom                  positions (alat units)
         1           Si  tau(   1) = (   0.0000000   0.0000000   0.0000000  )
         2           Si  tau(   2) = (   0.2500000   0.2500000   0.2500000  )

     number of k points=    22
                       cart. coord. in units 2pi/alat
        k(    1) = (  -0.2083333  -0.0416667   0.2916667), wk =   0.0833333
        k(    2) = (  -0.3750000   0.1250000   0.1250000), wk =   0.0833333
        k(    3) = (  -0.5416667   0.2916667  -0.0416667), wk =   0.0833333
        k(    4) = (   0.2916667  -0.5416667   0.7916667), wk =   0.0833333
        k(    5) = (   0.1250000  -0.3750000   0.6250000), wk =   0.1666667
        k(    6) = (  -0.0416667  -0.2083333   0.4583333), wk =   0.0833333
        k(    7) = (   0.0416667   0.2083333   0.5416667), wk =   0.0833333
        k(    8) = (  -0.1250000   0.3750000   0.3750000), wk =   0.0833333
        k(    9) = (  -0.2916667   0.5416667   0.2083333), wk =   0.0833333
        k(   10) = (   0.5416667  -0.2916667   1.0416667), wk =   0.0833333
        k(   11) = (   0.3750000  -0.1250000   0.8750000), wk =   0.1666667
        k(   12) = (   0.2083333   0.0416667   0.7083333), wk =   0.0833333
        k(   13) = (  -0.7083333  -0.5416667  -0.2083333), wk =   0.0833333
        k(   14) = (  -0.8750000  -0.3750000  -0.3750000), wk =   0.0833333
        k(   15) = (  -1.0416667  -0.2083333  -0.5416667), wk =   0.0833333
        k(   16) = (  -0.2083333  -1.0416667   0.2916667), wk =   0.0833333
        k(   17) = (  -0.5416667  -0.7083333  -0.0416667), wk =   0.0833333
        k(   18) = (  -0.4583333  -0.2916667   0.0416667), wk =   0.0833333
        k(   19) = (  -0.6250000  -0.1250000  -0.1250000), wk =   0.0833333
        k(   20) = (  -0.7916667   0.0416667  -0.2916667), wk =   0.0833333
        k(   21) = (   0.0416667  -0.7916667   0.5416667), wk =   0.0833333
        k(   22) = (  -0.2916667  -0.4583333   0.2083333), wk =   0.0833333

     Dense  grid:     1459 G-vectors     FFT dimensions: (  15,  15,  15)

     Largest allocated arrays     est. size (Mb)     dimensions
        Kohn-Sham Wavefunctions         0.01 Mb     (     191,    4)
        NL pseudopotentials             0.02 Mb     (     191,    8)
        Each V/rho on FFT grid          0.05 Mb     (    3375)
        Each G-vector array             0.01 Mb     (    1459)
        G-vector shells                 0.00 Mb     (      43)
     Largest temporary arrays     est. size (Mb)     dimensions
        Auxiliary wavefunctions         0.05 Mb     (     191,   16)
        Each subspace H/S matrix        0.00 Mb     (      16,   16)
        Each <psi_i|beta_j> matrix      0.00 Mb     (       8,    4)
        Arrays for rho mixing           0.41 Mb     (    3375,    8)

     Initial potential from superposition of free atoms

     starting charge    7.99901, renormalised to    8.00000
     Starting wfc are    8 randomized atomic wfcs

     total cpu time spent up to now is        0.0 secs

     per-process dynamical memory:     1.6 Mb

     Self-consistent Calculation

     iteration #  1     ecut=    12.00 Ry     beta=0.70
     Davidson diagonalization with overlap
     ethr =  1.00E-02,  avg # of iterations =  2.0

     Threshold (ethr) on eigenvalues was too large:
     Diagonalizing with lowered threshold

     Davidson diagonalization with overlap
     ethr =  6.58E-04,  avg # of iterations =  1.0

     total cpu time spent up to now is        0.0 secs

     total energy              =     -15.83434363 Ry
     Harris-Foulkes estimate   =     -15.85129229 Ry
     estimated scf accuracy    <       0.05271533 Ry

     iteration #  2     ecut=    12.00 Ry     beta=0.70
     Davidson diagonalization with overlap
     ethr =  6.59E-04,  avg # of iterations =  1.0

     total cpu time spent up to now is        0.1 secs

     total energy              =     -15.83693433 Ry
     Harris-Foulkes estimate   =     -15.83718464 Ry
     estimated scf accuracy    <       0.00193014 Ry

     iteration #  3     ecut=    12.00 Ry     beta=0.70
     Davidson diagonalization with overlap
     ethr =  2.41E-05,  avg # of iterations =  2.8

     total cpu time spent up to now is        0.1 secs

     total energy              =     -15.83735030 Ry
     Harris-Foulkes estimate   =     -15.83737613 Ry
     estimated scf accuracy    <       0.00006063 Ry

     iteration #  4     ecut=    12.00 Ry     beta=0.70
     Davidson diagonalization with overlap
     ethr =  7.58E-07,  avg # of iterations =  2.0

     total cpu time spent up to now is        0.1 secs

     total energy              =     -15.83736168 Ry
     Harris-Foulkes estimate   =     -15.83736397 Ry
     estimated scf accuracy    <       0.00000545 Ry

     iteration #  5     ecut=    12.00 Ry     beta=0.70
     Davidson diagonalization with overlap
     ethr =  6.81E-08,  avg # of iterations =  2.0

     total cpu time spent up to now is        0.1 secs

     End of self-consistent calculation

          k =-0.2083-0.0417 0.2917 (   180 PWs)   bands (ev):

    -5.1787   3.5118   4.6468   5.8118

          k =-0.3750 0.1250 0.1250 (   180 PWs)   bands (ev):

    -4.9957   3.0548   4.8872   4.9954

          k =-0.5417 0.2917-0.0417 (   185 PWs)   bands (ev):

    -4.1222   1.4901   3.1651   4.6059

          k = 0.2917-0.5417 0.7917 (   189 PWs)   bands (ev):

    -2.9213  -0.4351   2.7411   4.0466

          k = 0.1250-0.3750 0.6250 (   188 PWs)   bands (ev):

    -3.4968   0.4055   2.8518   4.2591

          k =-0.0417-0.2083 0.4583 (   185 PWs)   bands (ev):

    -4.6416   2.4188   3.8769   4.9200

          k = 0.0417 0.2083 0.5417 (   186 PWs)   bands (ev):

    -4.2882   1.8619   3.5458   4.4320

          k =-0.1250 0.3750 0.3750 (   187 PWs)   bands (ev):

    -4.4818   1.6148   3.8865   5.4475

          k =-0.2917 0.5417 0.2083 (   186 PWs)   bands (ev):

    -3.9771   0.7521   3.9110   4.5657

          k = 0.5417-0.2917 1.0417 (   189 PWs)   bands (ev):

    -2.8911  -0.0196   2.0801   3.7966

          k = 0.3750-0.1250 0.8750 (   189 PWs)   bands (ev):

    -2.2217  -0.6549   2.0669   3.1945

          k = 0.2083 0.0417 0.7083 (   189 PWs)   bands (ev):

    -3.4275   0.6933   3.0306   3.6198

          k =-0.7083-0.5417-0.2083 (   188 PWs)   bands (ev):

    -2.8081  -0.5524   2.6255   4.1023

          k =-0.8750-0.3750-0.3750 (   184 PWs)   bands (ev):

    -2.7510  -0.4062   2.1561   4.3032

          k =-1.0417-0.2083-0.5417 (   191 PWs)   bands (ev):

    -2.4766  -0.3813   2.0046   3.2815

          k =-0.2083-1.0417 0.2917 (   187 PWs)   bands (ev):

    -1.9802  -0.9137   1.8473   3.6547

          k =-0.5417-0.7083-0.0417 (   186 PWs)   bands (ev):

    -2.6512  -0.2761   1.8721   3.9140

          k =-0.4583-0.2917 0.0417 (   186 PWs)   bands (ev):

    -4.4734   1.9828   3.4837   5.1162

          k =-0.6250-0.1250-0.1250 (   186 PWs)   bands (ev):

    -3.9326   1.3534   3.5078   3.9696

          k =-0.7917 0.0417-0.2917 (   191 PWs)   bands (ev):

    -2.8007  -0.0418   2.5335   3.2458

          k = 0.0417-0.7917 0.5417 (   189 PWs)   bands (ev):

    -2.2954  -0.5712   1.8464   3.4066

          k =-0.2917-0.4583 0.2083 (   186 PWs)   bands (ev):

    -4.3122   1.1541   4.3638   4.9653

     highest occupied level (ev):     5.8118

!    total energy              =     -15.83736242 Ry
     Harris-Foulkes estimate   =     -15.83736244 Ry
     estimated scf accuracy    <       0.00000003 Ry

     The total energy is the sum of the following terms:

     one-electron contribution =       4.81503062 Ry
     hartree contribution      =       1.04373318 Ry
     xc contribution           =      -4.79636764 Ry
     ewald contribution        =     -16.89975858 Ry

     convergence has been achieved in   5 iterations

     Writing output data file silicon.save

     init_run     :      0.02s CPU      0.02s WALL (       1 calls)
     electrons    :      0.06s CPU      0.07s WALL (       1 calls)

     Called by init_run:
     wfcinit      :      0.01s CPU      0.01s WALL (       1 calls)
     potinit      :      0.00s CPU      0.00s WALL (       1 calls)

     Called by electrons:
     c_bands      :      0.05s CPU      0.05s WALL (       6 calls)
     sum_band     :      0.01s CPU      0.01s WALL (       6 calls)
     v_of_rho     :      0.00s CPU      0.00s WALL (       6 calls)
     mix_rho      :      0.00s CPU      0.00s WALL (       6 calls)

     Called by c_bands:
     init_us_2    :      0.01s CPU      0.01s WALL (     286 calls)
     cegterg      :      0.04s CPU      0.05s WALL (     132 calls)

     Called by sum_band:

     Called by *egterg:
     h_psi        :      0.04s CPU      0.04s WALL (     391 calls)
     g_psi        :      0.00s CPU      0.00s WALL (     237 calls)
     cdiaghg      :      0.01s CPU      0.01s WALL (     347 calls)

     Called by h_psi:
     add_vuspsi   :      0.00s CPU      0.00s WALL (     391 calls)

     General routines
     calbec       :      0.00s CPU      0.00s WALL (     391 calls)
     fft          :      0.00s CPU      0.00s WALL (      25 calls)
     fftw         :      0.03s CPU      0.03s WALL (    3604 calls)
     davcio       :      0.00s CPU      0.00s WALL (      22 calls)


     PWSCF        :     0.11s CPU         0.15s WALL


   This run was terminated on:  17: 9:11  27Aug2019            

=------------------------------------------------------------------------------=
   JOB DONE.
=------------------------------------------------------------------------------=
