
     Program PWSCF v.5.4.0 starts on 17Sep2019 at 10:17:54 

     This program is part of the open-source Quantum ESPRESSO suite
     for quantum simulation of materials; please cite
         "P. Giannozzi et al., J. Phys.:Condens. Matter 21 395502 (2009);
          URL http://www.quantum-espresso.org", 
     in publications or presentations arising from this work. More details at
     http://www.quantum-espresso.org/quote

     Serial version
     Waiting for input...
     Reading input from standard input

     Current dimensions of program PWSCF are:
     Max number of different atomic species (ntypx) = 10
     Max number of k-points (npk) =  40000
     Max angular momentum in pseudopotentials (lmaxx) =  3
     Message from routine setup:
     no reason to have ecutrho>4*ecutwfc

     G-vector sticks info
     --------------------
     sticks:   dense  smooth     PW     G-vecs:    dense   smooth      PW
     Sum         733     361    121                12939     4573     893



     bravais-lattice index     =            2
     lattice parameter (alat)  =      10.2600  a.u.
     unit-cell volume          =     270.0114 (a.u.)^3
     number of atoms/cell      =            2
     number of atomic types    =            1
     number of electrons       =         8.00
     number of Kohn-Sham states=            8
     kinetic-energy cutoff     =      25.0000  Ry
     charge density cutoff     =     200.0000  Ry
     convergence threshold     =      1.0E-08
     mixing beta               =       0.7000
     number of iterations used =            8  plain     mixing
     Exchange-correlation      =  SLA  PZ   NOGX NOGC ( 1  1  0  0 0 0)

     celldm(1)=  10.260000  celldm(2)=   0.000000  celldm(3)=   0.000000
     celldm(4)=   0.000000  celldm(5)=   0.000000  celldm(6)=   0.000000

     crystal axes: (cart. coord. in units of alat)
               a(1) = (  -0.500000   0.000000   0.500000 )  
               a(2) = (   0.000000   0.500000   0.500000 )  
               a(3) = (  -0.500000   0.500000   0.000000 )  

     reciprocal axes: (cart. coord. in units 2 pi/alat)
               b(1) = ( -1.000000 -1.000000  1.000000 )  
               b(2) = (  1.000000  1.000000  1.000000 )  
               b(3) = ( -1.000000  1.000000 -1.000000 )  


     PseudoPot. # 1 for Si read from file:
     ../pseudo/Si.pz-vbc.UPF
     MD5 check sum: 6dfa03ddd5817404712e03e4d12deb78
     Pseudo is Norm-conserving, Zval =  4.0
     Generated by new atomic code, or converted to UPF format
     Using radial grid of  431 points,  2 beta functions with: 
                l(1) =   0
                l(2) =   1

     atomic species   valence    mass     pseudopotential
        Si             4.00    28.08600     Si( 1.00)

     48 Sym. Ops., with inversion, found (24 have fractional translation)



   Cartesian axes

     site n.     atom                  positions (alat units)
         1           Si  tau(   1) = (   0.0000000   0.0000000   0.0000000  )
         2           Si  tau(   2) = (   0.2500000   0.2500000   0.2500000  )

     number of k points=    10
                       cart. coord. in units 2pi/alat
        k(    1) = (  -0.1250000   0.1250000   0.1250000), wk =   0.0625000
        k(    2) = (  -0.3750000   0.3750000  -0.1250000), wk =   0.1875000
        k(    3) = (   0.3750000  -0.3750000   0.6250000), wk =   0.1875000
        k(    4) = (   0.1250000  -0.1250000   0.3750000), wk =   0.1875000
        k(    5) = (  -0.1250000   0.6250000   0.1250000), wk =   0.1875000
        k(    6) = (   0.6250000  -0.1250000   0.8750000), wk =   0.3750000
        k(    7) = (   0.3750000   0.1250000   0.6250000), wk =   0.3750000
        k(    8) = (  -0.1250000  -0.8750000   0.1250000), wk =   0.1875000
        k(    9) = (  -0.3750000   0.3750000   0.3750000), wk =   0.0625000
        k(   10) = (   0.3750000  -0.3750000   1.1250000), wk =   0.1875000

     Dense  grid:    12939 G-vectors     FFT dimensions: (  36,  36,  36)

     Smooth grid:     4573 G-vectors     FFT dimensions: (  24,  24,  24)

     Largest allocated arrays     est. size (Mb)     dimensions
        Kohn-Sham Wavefunctions         0.07 Mb     (     577,    8)
        NL pseudopotentials             0.07 Mb     (     577,    8)
        Each V/rho on FFT grid          0.71 Mb     (   46656)
        Each G-vector array             0.10 Mb     (   12939)
        G-vector shells                 0.00 Mb     (     180)
     Largest temporary arrays     est. size (Mb)     dimensions
        Auxiliary wavefunctions         0.28 Mb     (     577,   32)
        Each subspace H/S matrix        0.02 Mb     (      32,   32)
        Each <psi_i|beta_j> matrix      0.00 Mb     (       8,    8)
        Arrays for rho mixing           5.70 Mb     (   46656,    8)

     Initial potential from superposition of free atoms

     starting charge    7.99901, renormalised to    8.00000
     Starting wfc are    8 randomized atomic wfcs

     total cpu time spent up to now is        0.1 secs

     per-process dynamical memory:     7.8 Mb

     Self-consistent Calculation

     iteration #  1     ecut=    25.00 Ry     beta=0.70
     Davidson diagonalization with overlap
     ethr =  1.00E-02,  avg # of iterations =  3.8

     Threshold (ethr) on eigenvalues was too large:
     Diagonalizing with lowered threshold

     Davidson diagonalization with overlap
     ethr =  7.78E-04,  avg # of iterations =  1.1

     total cpu time spent up to now is        0.2 secs

     total energy              =     -15.84738470 Ry
     Harris-Foulkes estimate   =     -15.86789248 Ry
     estimated scf accuracy    <       0.06100309 Ry

     iteration #  2     ecut=    25.00 Ry     beta=0.70
     Davidson diagonalization with overlap
     ethr =  7.63E-04,  avg # of iterations =  1.0

     total cpu time spent up to now is        0.3 secs

     total energy              =     -15.85094548 Ry
     Harris-Foulkes estimate   =     -15.85116335 Ry
     estimated scf accuracy    <       0.00183268 Ry

     iteration #  3     ecut=    25.00 Ry     beta=0.70
     Davidson diagonalization with overlap
     ethr =  2.29E-05,  avg # of iterations =  3.0

     total cpu time spent up to now is        0.3 secs

     total energy              =     -15.85103681 Ry
     Harris-Foulkes estimate   =     -15.85104123 Ry
     estimated scf accuracy    <       0.00005190 Ry

     iteration #  4     ecut=    25.00 Ry     beta=0.70
     Davidson diagonalization with overlap
     ethr =  6.49E-07,  avg # of iterations =  2.2

     total cpu time spent up to now is        0.4 secs

     total energy              =     -15.85104354 Ry
     Harris-Foulkes estimate   =     -15.85104355 Ry
     estimated scf accuracy    <       0.00000015 Ry

     iteration #  5     ecut=    25.00 Ry     beta=0.70
     Davidson diagonalization with overlap
     ethr =  1.90E-09,  avg # of iterations =  3.0

     total cpu time spent up to now is        0.5 secs

     End of self-consistent calculation

          k =-0.1250 0.1250 0.1250 (   567 PWs)   bands (ev):

    -5.6797   4.4547   5.7616   5.7616   8.5259   9.0357   9.0357  10.6741

          k =-0.3750 0.3750-0.1250 (   574 PWs)   bands (ev):

    -4.6311   1.4337   3.7314   5.2760   8.7406   9.7257   9.8762  12.2675

          k = 0.3750-0.3750 0.6250 (   571 PWs)   bands (ev):

    -3.4531  -0.7001   3.7655   4.4854   8.2124   9.5365  10.1495  13.3518

          k = 0.1250-0.1250 0.3750 (   569 PWs)   bands (ev):

    -5.1415   2.8365   4.7295   4.8062   8.1712   9.7318  10.5081  10.7678

          k =-0.1250 0.6250 0.1250 (   570 PWs)   bands (ev):

    -4.0893   1.1352   3.3684   3.8368   7.3637   8.9055  12.0028  12.2995

          k = 0.6250-0.1250 0.8750 (   566 PWs)   bands (ev):

    -2.4048  -0.8512   1.9637   3.0749   8.4013  10.2871  11.2936  13.4357

          k = 0.3750 0.1250 0.6250 (   570 PWs)   bands (ev):

    -3.6599   0.2253   2.7154   4.1146   8.8961   9.5750  11.0289  11.9584

          k =-0.1250-0.8750 0.1250 (   570 PWs)   bands (ev):

    -2.5867  -0.7470   2.5957   3.3607   6.9009   7.9772  14.2798  14.3248

          k =-0.3750 0.3750 0.3750 (   577 PWs)   bands (ev):

    -4.1843   0.1029   4.9624   4.9624   7.6796   9.5019   9.5019  13.7757

          k = 0.3750-0.3750 1.1250 (   570 PWs)   bands (ev):

    -2.9492  -0.5750   2.0365   4.1602   7.8590  11.4511  11.5225  12.9545

     highest occupied, lowest unoccupied level (ev):     5.7616    6.9009

!    total energy              =     -15.85104376 Ry
     Harris-Foulkes estimate   =     -15.85104376 Ry
     estimated scf accuracy    <          5.8E-09 Ry

     The total energy is the sum of the following terms:

     one-electron contribution =       4.65470294 Ry
     hartree contribution      =       1.09302591 Ry
     xc contribution           =      -4.79784300 Ry
     ewald contribution        =     -16.80092961 Ry

     convergence has been achieved in   5 iterations

     Writing output data file silicon.save

     init_run     :      0.05s CPU      0.06s WALL (       1 calls)
     electrons    :      0.42s CPU      0.42s WALL (       1 calls)

     Called by init_run:
     wfcinit      :      0.02s CPU      0.02s WALL (       1 calls)
     potinit      :      0.01s CPU      0.01s WALL (       1 calls)

     Called by electrons:
     c_bands      :      0.28s CPU      0.28s WALL (       6 calls)
     sum_band     :      0.11s CPU      0.11s WALL (       6 calls)
     v_of_rho     :      0.02s CPU      0.02s WALL (       6 calls)
     mix_rho      :      0.01s CPU      0.01s WALL (       6 calls)

     Called by c_bands:
     init_us_2    :      0.01s CPU      0.01s WALL (     130 calls)
     cegterg      :      0.27s CPU      0.28s WALL (      60 calls)

     Called by sum_band:

     Called by *egterg:
     h_psi        :      0.25s CPU      0.25s WALL (     211 calls)
     g_psi        :      0.00s CPU      0.00s WALL (     141 calls)
     cdiaghg      :      0.01s CPU      0.01s WALL (     191 calls)

     Called by h_psi:
     add_vuspsi   :      0.00s CPU      0.00s WALL (     211 calls)

     General routines
     calbec       :      0.00s CPU      0.00s WALL (     211 calls)
     fft          :      0.03s CPU      0.03s WALL (      41 calls)
     ffts         :      0.01s CPU      0.01s WALL (      12 calls)
     fftw         :      0.22s CPU      0.22s WALL (    3052 calls)
     interpolate  :      0.01s CPU      0.01s WALL (      12 calls)
     davcio       :      0.00s CPU      0.00s WALL (      10 calls)


     PWSCF        :     0.50s CPU         0.51s WALL


   This run was terminated on:  10:17:54  17Sep2019            

=------------------------------------------------------------------------------=
   JOB DONE.
=------------------------------------------------------------------------------=
