
     Program PWSCF v.6.0 (svn rev. 13079) starts on 26Apr2018 at 12:26: 8 

     This program is part of the open-source Quantum ESPRESSO suite
     for quantum simulation of materials; please cite
         "P. Giannozzi et al., J. Phys.:Condens. Matter 21 395502 (2009);
          URL http://www.quantum-espresso.org", 
     in publications or presentations arising from this work. More details at
     http://www.quantum-espresso.org/quote

     Parallel version (MPI), running on     4 processors
     R & G space division:  proc/nbgrp/npool/nimage =       4
     Waiting for input...
     Reading input from standard input

     Current dimensions of program PWSCF are:
     Max number of different atomic species (ntypx) = 10
     Max number of k-points (npk) =  40000
     Max angular momentum in pseudopotentials (lmaxx) =  3

     Subspace diagonalization in iterative solution of the eigenvalue problem:
     a serial algorithm will be used


     Parallelization info
     --------------------
     sticks:   dense  smooth     PW     G-vecs:    dense   smooth      PW
     Min         439     174     55                13865     3486     617
     Max         440     175     56                13868     3489     618
     Sum        1757     697    221                55467    13949    2469



     bravais-lattice index     =            0
     lattice parameter (alat)  =       1.8897  a.u.
     unit-cell volume          =     293.3367 (a.u.)^3
     number of atoms/cell      =            2
     number of atomic types    =            2
     number of electrons       =        25.00
     number of Kohn-Sham states=           17
     kinetic-energy cutoff     =      50.0000  Ry
     charge density cutoff     =     500.0000  Ry
     convergence threshold     =      1.0E-10
     mixing beta               =       0.6000
     number of iterations used =            8  plain     mixing
     Exchange-correlation      = SLA  PW   PBE  PBE ( 1  4  3  4 0 0)
     nstep                     =           50


     celldm(1)=   1.889726  celldm(2)=   0.000000  celldm(3)=   0.000000
     celldm(4)=   0.000000  celldm(5)=   0.000000  celldm(6)=   0.000000

     crystal axes: (cart. coord. in units of alat)
               a(1) = (  -3.516063   0.000000   0.000000 )  
               a(2) = (   0.000000   0.000000   3.516063 )  
               a(3) = (   0.000000   3.516063   0.000000 )  

     reciprocal axes: (cart. coord. in units 2 pi/alat)
               b(1) = ( -0.284409  0.000000  0.000000 )  
               b(2) = (  0.000000 -0.000000  0.284409 )  
               b(3) = (  0.000000  0.284409 -0.000000 )  


     PseudoPot. # 1 for Nb read from file:
     ./Nb.pbe-nsp-van.UPF
     MD5 check sum: 0a22fc7fb0ba19a08ca5db297a5d2854
     Pseudo is Ultrasoft + core correction, Zval = 13.0
     Generated by new atomic code, or converted to UPF format
     Using radial grid of  887 points,  6 beta functions with: 
                l(1) =   0
                l(2) =   0
                l(3) =   1
                l(4) =   1
                l(5) =   2
                l(6) =   2
     Q(r) pseudized with  6 coefficients,  rinner =    1.000   1.000   1.000
                                                       1.000   1.000

     PseudoPot. # 2 for Ti read from file:
     ./Ti.pbe-sp-van_ak.UPF
     MD5 check sum: f98fea3e8887528921fefa5636a534ca
     Pseudo is Ultrasoft, Zval = 12.0
     Generated by new atomic code, or converted to UPF format
     Using radial grid of  851 points,  6 beta functions with: 
                l(1) =   0
                l(2) =   0
                l(3) =   1
                l(4) =   1
                l(5) =   2
                l(6) =   2
     Q(r) pseudized with  8 coefficients,  rinner =    1.000   1.000   1.000
                                                       1.000   1.000

     atomic species   valence    mass     pseudopotential
        Nb            13.00    92.90638     Nb( 1.00)
        Ti            12.00    47.86700     Ti( 1.00)

     48 Sym. Ops., with inversion, found



   Cartesian axes

     site n.     atom                  positions (alat units)
         1           Ti  tau(   1) = (  -1.7580316   1.7580316   1.7580316  )
         2           Nb  tau(   2) = (  -3.5160633   3.5160633   3.5160633  )

     number of k points=   165  Marzari-Vanderbilt smearing, width (Ry)=  0.0200

     Number of k-points >= 100: set verbosity='high' to print them.

     Dense  grid:    55467 G-vectors     FFT dimensions: (  48,  48,  48)

     Smooth grid:    13949 G-vectors     FFT dimensions: (  30,  30,  30)

     Estimated max dynamical RAM per process >      27.70Mb

     Estimated total allocated dynamical RAM >     110.80Mb

     Initial potential from superposition of free atoms

     starting charge   23.99722, renormalised to   25.00000
     Starting wfc are   23 randomized atomic wfcs

     total cpu time spent up to now is        4.1 secs

     per-process dynamical memory:    93.8 Mb

     Self-consistent Calculation

     iteration #  1     ecut=    50.00 Ry     beta=0.60
     Davidson diagonalization with overlap
     ethr =  1.00E-02,  avg # of iterations =  3.0

     total cpu time spent up to now is       10.2 secs

     total energy              =    -232.68266953 Ry
     Harris-Foulkes estimate   =    -235.11935501 Ry
     estimated scf accuracy    <       3.15104338 Ry

     iteration #  2     ecut=    50.00 Ry     beta=0.60
     Davidson diagonalization with overlap
     ethr =  1.00E-02,  avg # of iterations =  4.4

     total cpu time spent up to now is       18.6 secs

     total energy              =    -233.50416859 Ry
     Harris-Foulkes estimate   =    -237.50599265 Ry
     estimated scf accuracy    <      11.70487237 Ry

     iteration #  3     ecut=    50.00 Ry     beta=0.60
     Davidson diagonalization with overlap
     ethr =  1.00E-02,  avg # of iterations =  3.6

     total cpu time spent up to now is       24.8 secs

     total energy              =    -234.66781378 Ry
     Harris-Foulkes estimate   =    -234.65167450 Ry
     estimated scf accuracy    <       0.96632031 Ry

     iteration #  4     ecut=    50.00 Ry     beta=0.60
     Davidson diagonalization with overlap
     ethr =  3.87E-03,  avg # of iterations =  2.1

     total cpu time spent up to now is       29.8 secs

     total energy              =    -234.65683368 Ry
     Harris-Foulkes estimate   =    -234.69294720 Ry
     estimated scf accuracy    <       0.90428959 Ry

     iteration #  5     ecut=    50.00 Ry     beta=0.60
     Davidson diagonalization with overlap
     ethr =  3.62E-03,  avg # of iterations =  1.1

     total cpu time spent up to now is       34.5 secs

     total energy              =    -234.39302349 Ry
     Harris-Foulkes estimate   =    -234.66282721 Ry
     estimated scf accuracy    <       0.73472644 Ry

     iteration #  6     ecut=    50.00 Ry     beta=0.60
     Davidson diagonalization with overlap
     ethr =  2.94E-03,  avg # of iterations =  4.2

     total cpu time spent up to now is       41.0 secs

     total energy              =    -234.64799395 Ry
     Harris-Foulkes estimate   =    -234.56981973 Ry
     estimated scf accuracy    <       0.40588261 Ry

     iteration #  7     ecut=    50.00 Ry     beta=0.60
     Davidson diagonalization with overlap
     ethr =  1.62E-03,  avg # of iterations =  3.9

     total cpu time spent up to now is       47.1 secs

     total energy              =    -234.38312361 Ry
     Harris-Foulkes estimate   =    -234.73497983 Ry
     estimated scf accuracy    <       2.74050283 Ry

     iteration #  8     ecut=    50.00 Ry     beta=0.60
     Davidson diagonalization with overlap
     ethr =  1.62E-03,  avg # of iterations =  3.9

     total cpu time spent up to now is       52.8 secs

     total energy              =    -234.51833013 Ry
     Harris-Foulkes estimate   =    -234.53291494 Ry
     estimated scf accuracy    <       0.08498944 Ry

     iteration #  9     ecut=    50.00 Ry     beta=0.60
     Davidson diagonalization with overlap
     ethr =  3.40E-04,  avg # of iterations =  3.0

     total cpu time spent up to now is       58.1 secs

     total energy              =    -234.53018255 Ry
     Harris-Foulkes estimate   =    -234.52698169 Ry
     estimated scf accuracy    <       0.00174734 Ry

     iteration # 10     ecut=    50.00 Ry     beta=0.60
     Davidson diagonalization with overlap
     ethr =  6.99E-06,  avg # of iterations =  6.5

     total cpu time spent up to now is       68.4 secs

     total energy              =    -234.51370542 Ry
     Harris-Foulkes estimate   =    -234.55368264 Ry
     estimated scf accuracy    <       0.22494084 Ry

     iteration # 11     ecut=    50.00 Ry     beta=0.60
     Davidson diagonalization with overlap
     ethr =  6.99E-06,  avg # of iterations =  5.5

     total cpu time spent up to now is       78.1 secs

     total energy              =    -234.52754168 Ry
     Harris-Foulkes estimate   =    -234.52829009 Ry
     estimated scf accuracy    <       0.00408744 Ry

     iteration # 12     ecut=    50.00 Ry     beta=0.60
     Davidson diagonalization with overlap
     ethr =  6.99E-06,  avg # of iterations =  3.4

     total cpu time spent up to now is       83.6 secs

     total energy              =    -234.52791030 Ry
     Harris-Foulkes estimate   =    -234.52792264 Ry
     estimated scf accuracy    <       0.00014107 Ry

     iteration # 13     ecut=    50.00 Ry     beta=0.60
     Davidson diagonalization with overlap
     ethr =  5.64E-07,  avg # of iterations =  3.6

     total cpu time spent up to now is       89.3 secs

     total energy              =    -234.52792757 Ry
     Harris-Foulkes estimate   =    -234.52793427 Ry
     estimated scf accuracy    <       0.00006175 Ry

     iteration # 14     ecut=    50.00 Ry     beta=0.60
     Davidson diagonalization with overlap
     ethr =  2.47E-07,  avg # of iterations =  1.2

     total cpu time spent up to now is       94.0 secs

     total energy              =    -234.52792720 Ry
     Harris-Foulkes estimate   =    -234.52793006 Ry
     estimated scf accuracy    <       0.00002256 Ry

     iteration # 15     ecut=    50.00 Ry     beta=0.60
     Davidson diagonalization with overlap
     ethr =  9.03E-08,  avg # of iterations =  2.3

     total cpu time spent up to now is       99.1 secs

     total energy              =    -234.52793086 Ry
     Harris-Foulkes estimate   =    -234.52793024 Ry
     estimated scf accuracy    <       0.00004182 Ry

     iteration # 16     ecut=    50.00 Ry     beta=0.60
     Davidson diagonalization with overlap
     ethr =  9.03E-08,  avg # of iterations =  1.0

     total cpu time spent up to now is      103.8 secs

     total energy              =    -234.52792008 Ry
     Harris-Foulkes estimate   =    -234.52793100 Ry
     estimated scf accuracy    <       0.00004670 Ry

     iteration # 17     ecut=    50.00 Ry     beta=0.60
     Davidson diagonalization with overlap
     ethr =  9.03E-08,  avg # of iterations =  3.4

     total cpu time spent up to now is      109.5 secs

     total energy              =    -234.52792478 Ry
     Harris-Foulkes estimate   =    -234.52792486 Ry
     estimated scf accuracy    <       0.00000031 Ry

     iteration # 18     ecut=    50.00 Ry     beta=0.60
     Davidson diagonalization with overlap
     ethr =  1.23E-09,  avg # of iterations =  4.5

     total cpu time spent up to now is      116.7 secs

     total energy              =    -234.52792502 Ry
     Harris-Foulkes estimate   =    -234.52792503 Ry
     estimated scf accuracy    <       0.00000004 Ry

     iteration # 19     ecut=    50.00 Ry     beta=0.60
     Davidson diagonalization with overlap
     ethr =  1.62E-10,  avg # of iterations =  3.5

     total cpu time spent up to now is      122.3 secs

     total energy              =    -234.52792504 Ry
     Harris-Foulkes estimate   =    -234.52792503 Ry
     estimated scf accuracy    <       0.00000006 Ry

     iteration # 20     ecut=    50.00 Ry     beta=0.60
     Davidson diagonalization with overlap
     ethr =  1.62E-10,  avg # of iterations =  1.3

     total cpu time spent up to now is      127.0 secs

     total energy              =    -234.52792502 Ry
     Harris-Foulkes estimate   =    -234.52792504 Ry
     estimated scf accuracy    <       0.00000009 Ry

     iteration # 21     ecut=    50.00 Ry     beta=0.60
     Davidson diagonalization with overlap
     ethr =  1.62E-10,  avg # of iterations =  2.9

     total cpu time spent up to now is      132.8 secs

     total energy              =    -234.52792502 Ry
     Harris-Foulkes estimate   =    -234.52792503 Ry
     estimated scf accuracy    <       0.00000003 Ry

     iteration # 22     ecut=    50.00 Ry     beta=0.60
     Davidson diagonalization with overlap
     ethr =  1.36E-10,  avg # of iterations =  1.0

     total cpu time spent up to now is      138.4 secs

     total energy              =    -234.52792502 Ry
     Harris-Foulkes estimate   =    -234.52792503 Ry
     estimated scf accuracy    <       0.00000002 Ry

     iteration # 23     ecut=    50.00 Ry     beta=0.60
     Davidson diagonalization with overlap
     ethr =  8.33E-11,  avg # of iterations =  3.8

     total cpu time spent up to now is      144.4 secs

     total energy              =    -234.52792502 Ry
     Harris-Foulkes estimate   =    -234.52792503 Ry
     estimated scf accuracy    <       0.00000007 Ry

     iteration # 24     ecut=    50.00 Ry     beta=0.60
     Davidson diagonalization with overlap
     ethr =  8.33E-11,  avg # of iterations =  1.0

     total cpu time spent up to now is      149.0 secs

     total energy              =    -234.52792502 Ry
     Harris-Foulkes estimate   =    -234.52792502 Ry
     estimated scf accuracy    <       0.00000002 Ry

     iteration # 25     ecut=    50.00 Ry     beta=0.60
     Davidson diagonalization with overlap
     ethr =  7.52E-11,  avg # of iterations =  2.9

     total cpu time spent up to now is      154.4 secs

     total energy              =    -234.52792502 Ry
     Harris-Foulkes estimate   =    -234.52792502 Ry
     estimated scf accuracy    <          1.4E-10 Ry

     iteration # 26     ecut=    50.00 Ry     beta=0.60
     Davidson diagonalization with overlap
     ethr =  5.72E-13,  avg # of iterations =  4.8

     total cpu time spent up to now is      161.0 secs

     total energy              =    -234.52792502 Ry
     Harris-Foulkes estimate   =    -234.52792502 Ry
     estimated scf accuracy    <          2.0E-10 Ry

     iteration # 27     ecut=    50.00 Ry     beta=0.60
     Davidson diagonalization with overlap
     ethr =  5.72E-13,  avg # of iterations =  1.0

     total cpu time spent up to now is      165.7 secs

     End of self-consistent calculation

     Number of k-points >= 100: set verbosity='high' to print the bands.

     the Fermi energy is    12.1970 ev

!    total energy              =    -234.52792503 Ry
     Harris-Foulkes estimate   =    -234.52792503 Ry
     estimated scf accuracy    <          7.5E-11 Ry

     The total energy is the sum of the following terms:

     one-electron contribution =     -75.36797909 Ry
     hartree contribution      =      44.77769452 Ry
     xc contribution           =     -32.62234694 Ry
     ewald contribution        =    -171.31402118 Ry
     smearing contrib. (-TS)   =      -0.00127232 Ry

     convergence has been achieved in  27 iterations

     Forces acting on atoms (Ry/au):

     atom    1 type  2   force =     0.00000000    0.00000000    0.00000000
     atom    2 type  1   force =     0.00000000    0.00000000    0.00000000

     Total force =     0.000000     Total SCF correction =     0.000000


     entering subroutine stress ...

          total   stress  (Ry/bohr**3)                   (kbar)     P= -202.16
  -0.00137428   0.00000000   0.00000000       -202.16      0.00      0.00
   0.00000000  -0.00137428   0.00000000          0.00   -202.16      0.00
   0.00000000   0.00000000  -0.00137428          0.00      0.00   -202.16


     BFGS Geometry Optimization

     number of scf cycles    =   1
     number of bfgs steps    =   0

     enthalpy new            =    -234.5279250250 Ry

     new trust radius        =       0.1176872044 bohr
     new conv_thr            =            1.0E-10 Ry

     new unit-cell volume =    264.12904 a.u.^3 (    39.13989 Ang^3 )

CELL_PARAMETERS (alat=  1.88972599)
  -3.395261402   0.000000000   0.000000000
   0.000000000   0.000000000   3.395261402
   0.000000000   3.395261402   0.000000000

ATOMIC_POSITIONS (angstrom)
Ti      -1.697630701   1.697630701   1.697630701
Nb      -3.395261402   3.395261402   3.395261402


     NEW-OLD atomic charge density approx. for the potential
     extrapolated charge   22.34636, renormalised to   25.00000

     total cpu time spent up to now is      171.4 secs

     per-process dynamical memory:    93.7 Mb

     Self-consistent Calculation

     iteration #  1     ecut=    50.00 Ry     beta=0.60
     Davidson diagonalization with overlap
     ethr =  1.00E-06,  avg # of iterations = 10.1

     total cpu time spent up to now is      186.5 secs

     total energy              =    -221.36604663 Ry
     Harris-Foulkes estimate   =    -240.38196027 Ry
     estimated scf accuracy    <      14.81202393 Ry

     iteration #  2     ecut=    50.00 Ry     beta=0.60
     Davidson diagonalization with overlap
     ethr =  1.00E-02,  avg # of iterations =  5.3

     total cpu time spent up to now is      195.7 secs

     total energy              =    -229.40554590 Ry
     Harris-Foulkes estimate   =    -250.31566513 Ry
     estimated scf accuracy    <      63.75847184 Ry

     iteration #  3     ecut=    50.00 Ry     beta=0.60
     Davidson diagonalization with overlap
     ethr =  1.00E-02,  avg # of iterations =  3.1

     total cpu time spent up to now is      203.0 secs

     total energy              =    -235.53647128 Ry
     Harris-Foulkes estimate   =    -236.72448413 Ry
     estimated scf accuracy    <       5.57081035 Ry

     iteration #  4     ecut=    50.00 Ry     beta=0.60
     Davidson diagonalization with overlap
     ethr =  1.00E-02,  avg # of iterations =  1.0

     total cpu time spent up to now is      207.6 secs

     total energy              =    -234.98265617 Ry
     Harris-Foulkes estimate   =    -235.60889713 Ry
     estimated scf accuracy    <       3.75570463 Ry

     iteration #  5     ecut=    50.00 Ry     beta=0.60
     Davidson diagonalization with overlap
     ethr =  1.00E-02,  avg # of iterations =  1.2

     total cpu time spent up to now is      212.3 secs

     total energy              =    -234.89529494 Ry
     Harris-Foulkes estimate   =    -235.05135770 Ry
     estimated scf accuracy    <       2.17643906 Ry

     iteration #  6     ecut=    50.00 Ry     beta=0.60
     Davidson diagonalization with overlap
     ethr =  8.71E-03,  avg # of iterations =  1.0

     total cpu time spent up to now is      216.9 secs

     total energy              =    -234.34611564 Ry
     Harris-Foulkes estimate   =    -234.90851106 Ry
     estimated scf accuracy    <       1.78326051 Ry

     iteration #  7     ecut=    50.00 Ry     beta=0.60
     Davidson diagonalization with overlap
     ethr =  7.13E-03,  avg # of iterations =  3.2

     total cpu time spent up to now is      222.5 secs

     total energy              =    -234.58418141 Ry
     Harris-Foulkes estimate   =    -234.55453034 Ry
     estimated scf accuracy    <       0.03875233 Ry

     iteration #  8     ecut=    50.00 Ry     beta=0.60
     Davidson diagonalization with overlap
     ethr =  1.55E-04,  avg # of iterations =  5.0

     total cpu time spent up to now is      230.8 secs

     total energy              =    -234.63814236 Ry
     Harris-Foulkes estimate   =    -234.63103652 Ry
     estimated scf accuracy    <       0.35253919 Ry

     iteration #  9     ecut=    50.00 Ry     beta=0.60
     Davidson diagonalization with overlap
     ethr =  1.55E-04,  avg # of iterations =  1.0

     total cpu time spent up to now is      235.4 secs

     total energy              =    -234.57428387 Ry
     Harris-Foulkes estimate   =    -234.63831935 Ry
     estimated scf accuracy    <       0.38889843 Ry

     iteration # 10     ecut=    50.00 Ry     beta=0.60
     Davidson diagonalization with overlap
     ethr =  1.55E-04,  avg # of iterations =  3.8

     total cpu time spent up to now is      241.3 secs

     total energy              =    -234.54097857 Ry
     Harris-Foulkes estimate   =    -234.58424954 Ry
     estimated scf accuracy    <       0.11833713 Ry

     iteration # 11     ecut=    50.00 Ry     beta=0.60
     Davidson diagonalization with overlap
     ethr =  1.55E-04,  avg # of iterations =  4.7

     total cpu time spent up to now is      249.6 secs

     total energy              =    -234.56298029 Ry
     Harris-Foulkes estimate   =    -234.56271671 Ry
     estimated scf accuracy    <       0.00430064 Ry

     iteration # 12     ecut=    50.00 Ry     beta=0.60
     Davidson diagonalization with overlap
     ethr =  1.72E-05,  avg # of iterations =  1.8

     total cpu time spent up to now is      254.4 secs

     total energy              =    -234.55952658 Ry
     Harris-Foulkes estimate   =    -234.56315267 Ry
     estimated scf accuracy    <       0.00801043 Ry

     iteration # 13     ecut=    50.00 Ry     beta=0.60
     Davidson diagonalization with overlap
     ethr =  1.72E-05,  avg # of iterations =  4.2

     total cpu time spent up to now is      261.8 secs

     total energy              =    -234.55491130 Ry
     Harris-Foulkes estimate   =    -234.56416304 Ry
     estimated scf accuracy    <       0.02438397 Ry

     iteration # 14     ecut=    50.00 Ry     beta=0.60
     Davidson diagonalization with overlap
     ethr =  1.72E-05,  avg # of iterations =  4.7

     total cpu time spent up to now is      270.2 secs

     total energy              =    -234.56141845 Ry
     Harris-Foulkes estimate   =    -234.56888907 Ry
     estimated scf accuracy    <       0.06721324 Ry

     iteration # 15     ecut=    50.00 Ry     beta=0.60
     Davidson diagonalization with overlap
     ethr =  1.72E-05,  avg # of iterations =  3.7

     total cpu time spent up to now is      276.1 secs

     total energy              =    -234.56313683 Ry
     Harris-Foulkes estimate   =    -234.56315571 Ry
     estimated scf accuracy    <       0.01528372 Ry

     iteration # 16     ecut=    50.00 Ry     beta=0.60
     Davidson diagonalization with overlap
     ethr =  1.72E-05,  avg # of iterations =  1.0

     total cpu time spent up to now is      280.7 secs

     total energy              =    -234.56275375 Ry
     Harris-Foulkes estimate   =    -234.56315727 Ry
     estimated scf accuracy    <       0.01506652 Ry

     iteration # 17     ecut=    50.00 Ry     beta=0.60
     Davidson diagonalization with overlap
     ethr =  1.72E-05,  avg # of iterations =  1.0

     total cpu time spent up to now is      285.3 secs

     total energy              =    -234.55953997 Ry
     Harris-Foulkes estimate   =    -234.56281743 Ry
     estimated scf accuracy    <       0.01081119 Ry

     iteration # 18     ecut=    50.00 Ry     beta=0.60
     Davidson diagonalization with overlap
     ethr =  1.72E-05,  avg # of iterations =  4.1

     total cpu time spent up to now is      291.9 secs

     total energy              =    -234.55921254 Ry
     Harris-Foulkes estimate   =    -234.56283078 Ry
     estimated scf accuracy    <       0.01068296 Ry

     iteration # 19     ecut=    50.00 Ry     beta=0.60
     Davidson diagonalization with overlap
     ethr =  1.72E-05,  avg # of iterations =  4.0

     total cpu time spent up to now is      298.3 secs

     total energy              =    -234.56150278 Ry
     Harris-Foulkes estimate   =    -234.56242064 Ry
     estimated scf accuracy    <       0.00885412 Ry

     iteration # 20     ecut=    50.00 Ry     beta=0.60
     Davidson diagonalization with overlap
     ethr =  1.72E-05,  avg # of iterations =  1.0

     total cpu time spent up to now is      303.0 secs

     total energy              =    -234.56096986 Ry
     Harris-Foulkes estimate   =    -234.56166301 Ry
     estimated scf accuracy    <       0.00331561 Ry

     iteration # 21     ecut=    50.00 Ry     beta=0.60
     Davidson diagonalization with overlap
     ethr =  1.33E-05,  avg # of iterations =  3.1

     total cpu time spent up to now is      308.4 secs

     total energy              =    -234.56148264 Ry
     Harris-Foulkes estimate   =    -234.56154874 Ry
     estimated scf accuracy    <       0.00030484 Ry

     iteration # 22     ecut=    50.00 Ry     beta=0.60
     Davidson diagonalization with overlap
     ethr =  1.22E-06,  avg # of iterations =  3.1

     total cpu time spent up to now is      313.8 secs

     total energy              =    -234.56151945 Ry
     Harris-Foulkes estimate   =    -234.56151974 Ry
     estimated scf accuracy    <       0.00000222 Ry

     iteration # 23     ecut=    50.00 Ry     beta=0.60
     Davidson diagonalization with overlap
     ethr =  8.89E-09,  avg # of iterations =  5.0

     total cpu time spent up to now is      321.0 secs

     total energy              =    -234.56152282 Ry
     Harris-Foulkes estimate   =    -234.56152299 Ry
     estimated scf accuracy    <       0.00000137 Ry

     iteration # 24     ecut=    50.00 Ry     beta=0.60
     Davidson diagonalization with overlap
     ethr =  5.46E-09,  avg # of iterations =  1.0

     total cpu time spent up to now is      325.7 secs

     total energy              =    -234.56152282 Ry
     Harris-Foulkes estimate   =    -234.56152286 Ry
     estimated scf accuracy    <       0.00000035 Ry

     iteration # 25     ecut=    50.00 Ry     beta=0.60
     Davidson diagonalization with overlap
     ethr =  1.40E-09,  avg # of iterations =  2.9

     total cpu time spent up to now is      331.0 secs

     total energy              =    -234.56152286 Ry
     Harris-Foulkes estimate   =    -234.56152286 Ry
     estimated scf accuracy    <          4.7E-09 Ry

     iteration # 26     ecut=    50.00 Ry     beta=0.60
     Davidson diagonalization with overlap
     ethr =  1.89E-11,  avg # of iterations =  4.7

     total cpu time spent up to now is      338.4 secs

     total energy              =    -234.56152286 Ry
     Harris-Foulkes estimate   =    -234.56152286 Ry
     estimated scf accuracy    <          8.7E-09 Ry

     iteration # 27     ecut=    50.00 Ry     beta=0.60
     Davidson diagonalization with overlap
     ethr =  1.89E-11,  avg # of iterations =  1.0

     total cpu time spent up to now is      343.0 secs

     total energy              =    -234.56152286 Ry
     Harris-Foulkes estimate   =    -234.56152286 Ry
     estimated scf accuracy    <          6.3E-09 Ry

     iteration # 28     ecut=    50.00 Ry     beta=0.60
     Davidson diagonalization with overlap
     ethr =  1.89E-11,  avg # of iterations =  1.0

     total cpu time spent up to now is      347.6 secs

     total energy              =    -234.56152286 Ry
     Harris-Foulkes estimate   =    -234.56152286 Ry
     estimated scf accuracy    <          3.6E-09 Ry

     iteration # 29     ecut=    50.00 Ry     beta=0.60
     Davidson diagonalization with overlap
     ethr =  1.43E-11,  avg # of iterations =  1.2

     total cpu time spent up to now is      353.6 secs

     total energy              =    -234.56152286 Ry
     Harris-Foulkes estimate   =    -234.56152286 Ry
     estimated scf accuracy    <          5.2E-10 Ry

     iteration # 30     ecut=    50.00 Ry     beta=0.60
     Davidson diagonalization with overlap
     ethr =  2.07E-12,  avg # of iterations =  3.7

     total cpu time spent up to now is      359.5 secs

     total energy              =    -234.56152286 Ry
     Harris-Foulkes estimate   =    -234.56152286 Ry
     estimated scf accuracy    <          1.7E-10 Ry

     iteration # 31     ecut=    50.00 Ry     beta=0.60
     Davidson diagonalization with overlap
     ethr =  6.95E-13,  avg # of iterations =  1.1

     total cpu time spent up to now is      364.1 secs

     End of self-consistent calculation

     Number of k-points >= 100: set verbosity='high' to print the bands.

     the Fermi energy is    13.8635 ev

!    total energy              =    -234.56152286 Ry
     Harris-Foulkes estimate   =    -234.56152286 Ry
     estimated scf accuracy    <          3.9E-11 Ry

     The total energy is the sum of the following terms:

     one-electron contribution =     -66.37732924 Ry
     hartree contribution      =      42.01321657 Ry
     xc contribution           =     -32.78686772 Ry
     ewald contribution        =    -177.40928308 Ry
     smearing contrib. (-TS)   =      -0.00125940 Ry

     convergence has been achieved in  31 iterations

     Forces acting on atoms (Ry/au):

     atom    1 type  2   force =     0.00000000    0.00000000    0.00000000
     atom    2 type  1   force =     0.00000000    0.00000000    0.00000000

     Total force =     0.000000     Total SCF correction =     0.000000


     entering subroutine stress ...

          total   stress  (Ry/bohr**3)                   (kbar)     P= -129.16
  -0.00087803   0.00000000   0.00000000       -129.16      0.00      0.00
   0.00000000  -0.00087803   0.00000000          0.00   -129.16      0.00
   0.00000000   0.00000000  -0.00087803          0.00      0.00   -129.16


     number of scf cycles    =   2
     number of bfgs steps    =   1

     enthalpy old            =    -234.5279250250 Ry
     enthalpy new            =    -234.5615228608 Ry

     CASE: enthalpy_new < enthalpy_old

     new trust radius        =       0.1704355012 bohr
     new conv_thr            =            1.0E-12 Ry

     new unit-cell volume =    224.72070 a.u.^3 (    33.30017 Ang^3 )

CELL_PARAMETERS (alat=  1.88972599)
  -3.217230575   0.000000000   0.000000000
   0.000000000   0.000000000   3.217230575
   0.000000000   3.217230575   0.000000000

ATOMIC_POSITIONS (angstrom)
Ti      -1.608615288   1.608615288   1.608615288
Nb      -3.217230575   3.217230575   3.217230575


     NEW-OLD atomic charge density approx. for the potential
     extrapolated charge   20.79171, renormalised to   25.00000

     total cpu time spent up to now is      369.8 secs

     per-process dynamical memory:    93.7 Mb

     Self-consistent Calculation

     iteration #  1     ecut=    50.00 Ry     beta=0.60
     Davidson diagonalization with overlap
     ethr =  1.00E-06,  avg # of iterations =  9.7

     total cpu time spent up to now is      385.1 secs

     total energy              =    -213.50486926 Ry
     Harris-Foulkes estimate   =    -242.88211223 Ry
     estimated scf accuracy    <      23.50318235 Ry

     iteration #  2     ecut=    50.00 Ry     beta=0.60
     Davidson diagonalization with overlap
     ethr =  1.00E-02,  avg # of iterations =  5.3

     total cpu time spent up to now is      394.4 secs

     total energy              =    -228.80827977 Ry
     Harris-Foulkes estimate   =    -258.44481180 Ry
     estimated scf accuracy    <      86.24758127 Ry

     iteration #  3     ecut=    50.00 Ry     beta=0.60
     Davidson diagonalization with overlap
     ethr =  1.00E-02,  avg # of iterations =  3.7

     total cpu time spent up to now is      402.3 secs

     total energy              =    -235.89506596 Ry
     Harris-Foulkes estimate   =    -237.69266757 Ry
     estimated scf accuracy    <       7.66658247 Ry

     iteration #  4     ecut=    50.00 Ry     beta=0.60
     Davidson diagonalization with overlap
     ethr =  1.00E-02,  avg # of iterations =  1.2

     total cpu time spent up to now is      407.0 secs

     total energy              =    -234.87657285 Ry
     Harris-Foulkes estimate   =    -236.01354568 Ry
     estimated scf accuracy    <       4.70548983 Ry

     iteration #  5     ecut=    50.00 Ry     beta=0.60
     Davidson diagonalization with overlap
     ethr =  1.00E-02,  avg # of iterations =  2.1

     total cpu time spent up to now is      412.1 secs

     total energy              =    -235.17602875 Ry
     Harris-Foulkes estimate   =    -235.04133410 Ry
     estimated scf accuracy    <       1.88175376 Ry

     iteration #  6     ecut=    50.00 Ry     beta=0.60
     Davidson diagonalization with overlap
     ethr =  7.53E-03,  avg # of iterations =  1.0

     total cpu time spent up to now is      416.7 secs

     total energy              =    -234.89595589 Ry
     Harris-Foulkes estimate   =    -235.18803280 Ry
     estimated scf accuracy    <       2.26264128 Ry

     iteration #  7     ecut=    50.00 Ry     beta=0.60
     Davidson diagonalization with overlap
     ethr =  7.53E-03,  avg # of iterations =  1.0

     total cpu time spent up to now is      421.3 secs

     total energy              =    -234.33712243 Ry
     Harris-Foulkes estimate   =    -234.91183601 Ry
     estimated scf accuracy    <       1.53980084 Ry

     iteration #  8     ecut=    50.00 Ry     beta=0.60
     Davidson diagonalization with overlap
     ethr =  6.16E-03,  avg # of iterations =  3.1

     total cpu time spent up to now is      426.9 secs

     total energy              =    -234.57439525 Ry
     Harris-Foulkes estimate   =    -234.56308384 Ry
     estimated scf accuracy    <       0.03290932 Ry

     iteration #  9     ecut=    50.00 Ry     beta=0.60
     Davidson diagonalization with overlap
     ethr =  1.32E-04,  avg # of iterations =  4.9

     total cpu time spent up to now is      435.6 secs

     total energy              =    -234.63928126 Ry
     Harris-Foulkes estimate   =    -234.64611244 Ry
     estimated scf accuracy    <       0.33646873 Ry

     iteration # 10     ecut=    50.00 Ry     beta=0.60
     Davidson diagonalization with overlap
     ethr =  1.32E-04,  avg # of iterations =  1.0

     total cpu time spent up to now is      440.2 secs

     total energy              =    -234.43193460 Ry
     Harris-Foulkes estimate   =    -234.63943411 Ry
     estimated scf accuracy    <       0.30608258 Ry

     iteration # 11     ecut=    50.00 Ry     beta=0.60
     Davidson diagonalization with overlap
     ethr =  1.32E-04,  avg # of iterations =  4.8

     total cpu time spent up to now is      449.7 secs

     total energy              =    -234.60785744 Ry
     Harris-Foulkes estimate   =    -234.74886478 Ry
     estimated scf accuracy    <       1.79789994 Ry

     iteration # 12     ecut=    50.00 Ry     beta=0.60
     Davidson diagonalization with overlap
     ethr =  1.32E-04,  avg # of iterations =  4.0

     total cpu time spent up to now is      456.1 secs

     total energy              =    -234.56507872 Ry
     Harris-Foulkes estimate   =    -234.63615307 Ry
     estimated scf accuracy    <       0.59120911 Ry

     iteration # 13     ecut=    50.00 Ry     beta=0.60
     Davidson diagonalization with overlap
     ethr =  1.32E-04,  avg # of iterations =  3.8

     total cpu time spent up to now is      462.4 secs

     total energy              =    -234.58874729 Ry
     Harris-Foulkes estimate   =    -234.58618061 Ry
     estimated scf accuracy    <       0.09154482 Ry

     iteration # 14     ecut=    50.00 Ry     beta=0.60
     Davidson diagonalization with overlap
     ethr =  1.32E-04,  avg # of iterations =  1.0

     total cpu time spent up to now is      467.0 secs

     total energy              =    -234.56754730 Ry
     Harris-Foulkes estimate   =    -234.58896401 Ry
     estimated scf accuracy    <       0.11437921 Ry

     iteration # 15     ecut=    50.00 Ry     beta=0.60
     Davidson diagonalization with overlap
     ethr =  1.32E-04,  avg # of iterations =  3.3

     total cpu time spent up to now is      472.5 secs

     total energy              =    -234.57400825 Ry
     Harris-Foulkes estimate   =    -234.57443425 Ry
     estimated scf accuracy    <       0.00763671 Ry

     iteration # 16     ecut=    50.00 Ry     beta=0.60
     Davidson diagonalization with overlap
     ethr =  3.05E-05,  avg # of iterations =  2.1

     total cpu time spent up to now is      477.7 secs

     total energy              =    -234.57206854 Ry
     Harris-Foulkes estimate   =    -234.57435802 Ry
     estimated scf accuracy    <       0.00716498 Ry

     iteration # 17     ecut=    50.00 Ry     beta=0.60
     Davidson diagonalization with overlap
     ethr =  2.87E-05,  avg # of iterations =  3.4

     total cpu time spent up to now is      483.3 secs

     total energy              =    -234.57358188 Ry
     Harris-Foulkes estimate   =    -234.57347237 Ry
     estimated scf accuracy    <       0.00065342 Ry

     iteration # 18     ecut=    50.00 Ry     beta=0.60
     Davidson diagonalization with overlap
     ethr =  2.61E-06,  avg # of iterations =  3.8

     total cpu time spent up to now is      489.7 secs

     total energy              =    -234.57359325 Ry
     Harris-Foulkes estimate   =    -234.57367008 Ry
     estimated scf accuracy    <       0.00153580 Ry

     iteration # 19     ecut=    50.00 Ry     beta=0.60
     Davidson diagonalization with overlap
     ethr =  2.61E-06,  avg # of iterations =  1.0

     total cpu time spent up to now is      494.3 secs

     total energy              =    -234.57340190 Ry
     Harris-Foulkes estimate   =    -234.57359814 Ry
     estimated scf accuracy    <       0.00117945 Ry

     iteration # 20     ecut=    50.00 Ry     beta=0.60
     Davidson diagonalization with overlap
     ethr =  2.61E-06,  avg # of iterations =  1.2

     total cpu time spent up to now is      499.0 secs

     total energy              =    -234.57340754 Ry
     Harris-Foulkes estimate   =    -234.57343397 Ry
     estimated scf accuracy    <       0.00037992 Ry

     iteration # 21     ecut=    50.00 Ry     beta=0.60
     Davidson diagonalization with overlap
     ethr =  1.52E-06,  avg # of iterations =  2.2

     total cpu time spent up to now is      504.1 secs

     total energy              =    -234.57337646 Ry
     Harris-Foulkes estimate   =    -234.57342241 Ry
     estimated scf accuracy    <       0.00018693 Ry

     iteration # 22     ecut=    50.00 Ry     beta=0.60
     Davidson diagonalization with overlap
     ethr =  7.48E-07,  avg # of iterations =  3.2

     total cpu time spent up to now is      509.5 secs

     total energy              =    -234.57340253 Ry
     Harris-Foulkes estimate   =    -234.57340970 Ry
     estimated scf accuracy    <       0.00002193 Ry

     iteration # 23     ecut=    50.00 Ry     beta=0.60
     Davidson diagonalization with overlap
     ethr =  8.77E-08,  avg # of iterations =  2.3

     total cpu time spent up to now is      514.9 secs

     total energy              =    -234.57340615 Ry
     Harris-Foulkes estimate   =    -234.57340630 Ry
     estimated scf accuracy    <       0.00000165 Ry

     iteration # 24     ecut=    50.00 Ry     beta=0.60
     Davidson diagonalization with overlap
     ethr =  6.60E-09,  avg # of iterations =  3.1

     total cpu time spent up to now is      520.3 secs

     total energy              =    -234.57340620 Ry
     Harris-Foulkes estimate   =    -234.57340633 Ry
     estimated scf accuracy    <       0.00000039 Ry

     iteration # 25     ecut=    50.00 Ry     beta=0.60
     Davidson diagonalization with overlap
     ethr =  1.54E-09,  avg # of iterations =  3.6

     total cpu time spent up to now is      526.2 secs

     total energy              =    -234.57340631 Ry
     Harris-Foulkes estimate   =    -234.57340631 Ry
     estimated scf accuracy    <       0.00000013 Ry

     iteration # 26     ecut=    50.00 Ry     beta=0.60
     Davidson diagonalization with overlap
     ethr =  5.00E-10,  avg # of iterations =  1.1

     total cpu time spent up to now is      530.8 secs

     total energy              =    -234.57340630 Ry
     Harris-Foulkes estimate   =    -234.57340631 Ry
     estimated scf accuracy    <       0.00000009 Ry

     iteration # 27     ecut=    50.00 Ry     beta=0.60
     Davidson diagonalization with overlap
     ethr =  3.69E-10,  avg # of iterations =  1.2

     total cpu time spent up to now is      535.5 secs

     total energy              =    -234.57340629 Ry
     Harris-Foulkes estimate   =    -234.57340630 Ry
     estimated scf accuracy    <       0.00000004 Ry

     iteration # 28     ecut=    50.00 Ry     beta=0.60
     Davidson diagonalization with overlap
     ethr =  1.45E-10,  avg # of iterations =  3.0

     total cpu time spent up to now is      540.9 secs

     total energy              =    -234.57340630 Ry
     Harris-Foulkes estimate   =    -234.57340630 Ry
     estimated scf accuracy    <          1.4E-09 Ry

     iteration # 29     ecut=    50.00 Ry     beta=0.60
     Davidson diagonalization with overlap
     ethr =  5.78E-12,  avg # of iterations =  2.9

     total cpu time spent up to now is      546.4 secs

     total energy              =    -234.57340630 Ry
     Harris-Foulkes estimate   =    -234.57340630 Ry
     estimated scf accuracy    <          2.0E-10 Ry

     iteration # 30     ecut=    50.00 Ry     beta=0.60
     Davidson diagonalization with overlap
     ethr =  7.82E-13,  avg # of iterations =  3.5

     total cpu time spent up to now is      552.1 secs

     total energy              =    -234.57340630 Ry
     Harris-Foulkes estimate   =    -234.57340630 Ry
     estimated scf accuracy    <          7.3E-12 Ry

     iteration # 31     ecut=    50.00 Ry     beta=0.60
     Davidson diagonalization with overlap
     ethr =  1.00E-13,  avg # of iterations =  2.0

     total cpu time spent up to now is      557.0 secs

     End of self-consistent calculation

     Number of k-points >= 100: set verbosity='high' to print the bands.

     the Fermi energy is    16.7655 ev

!    total energy              =    -234.57340630 Ry
     Harris-Foulkes estimate   =    -234.57340630 Ry
     estimated scf accuracy    <          4.7E-13 Ry

     The total energy is the sum of the following terms:

     one-electron contribution =     -52.13793431 Ry
     hartree contribution      =      37.87822969 Ry
     xc contribution           =     -33.08604889 Ry
     ewald contribution        =    -187.22652205 Ry
     smearing contrib. (-TS)   =      -0.00113074 Ry

     convergence has been achieved in  31 iterations

     Forces acting on atoms (Ry/au):

     atom    1 type  2   force =     0.00000000    0.00000000    0.00000000
     atom    2 type  1   force =     0.00000000    0.00000000    0.00000000

     Total force =     0.000000     Total SCF correction =     0.000000


     entering subroutine stress ...

          total   stress  (Ry/bohr**3)                   (kbar)     P=   64.63
   0.00043932   0.00000000   0.00000000         64.63      0.00      0.00
   0.00000000   0.00043932   0.00000000          0.00     64.63      0.00
   0.00000000   0.00000000   0.00043932          0.00      0.00     64.63


     number of scf cycles    =   3
     number of bfgs steps    =   2

     enthalpy old            =    -234.5615228608 Ry
     enthalpy new            =    -234.5734062999 Ry

     CASE: enthalpy_new < enthalpy_old

     new trust radius        =       0.0514295190 bohr
     new conv_thr            =            1.0E-12 Ry

     new unit-cell volume =    236.48466 a.u.^3 (    35.04341 Ang^3 )

CELL_PARAMETERS (alat=  1.88972599)
  -3.272418381   0.000000000   0.000000000
   0.000000000   0.000000000   3.272418381
   0.000000000   3.272418381   0.000000000

ATOMIC_POSITIONS (angstrom)
Ti      -1.636209190   1.636209190   1.636209190
Nb      -3.272418381   3.272418381   3.272418381


     NEW-OLD atomic charge density approx. for the potential
     extrapolated charge   26.19375, renormalised to   25.00000

     total cpu time spent up to now is      562.8 secs

     per-process dynamical memory:    93.7 Mb

     Self-consistent Calculation

     iteration #  1     ecut=    50.00 Ry     beta=0.60
     Davidson diagonalization with overlap
     ethr =  1.00E-06,  avg # of iterations = 10.3

     total cpu time spent up to now is      575.8 secs

     total energy              =    -234.30937176 Ry
     Harris-Foulkes estimate   =    -232.67731413 Ry
     estimated scf accuracy    <       0.21137224 Ry

     iteration #  2     ecut=    50.00 Ry     beta=0.60
     Davidson diagonalization with overlap
     ethr =  8.45E-04,  avg # of iterations =  5.0

     total cpu time spent up to now is      585.4 secs

     total energy              =    -234.21019965 Ry
     Harris-Foulkes estimate   =    -235.00446174 Ry
     estimated scf accuracy    <       4.81499258 Ry

     iteration #  3     ecut=    50.00 Ry     beta=0.60
     Davidson diagonalization with overlap
     ethr =  8.45E-04,  avg # of iterations =  4.3

     total cpu time spent up to now is      592.8 secs

     total energy              =    -234.57354974 Ry
     Harris-Foulkes estimate   =    -234.61320446 Ry
     estimated scf accuracy    <       0.11038311 Ry

     iteration #  4     ecut=    50.00 Ry     beta=0.60
     Davidson diagonalization with overlap
     ethr =  4.42E-04,  avg # of iterations =  2.3

     total cpu time spent up to now is      597.9 secs

     total energy              =    -234.57907030 Ry
     Harris-Foulkes estimate   =    -234.58601971 Ry
     estimated scf accuracy    <       0.04377192 Ry

     iteration #  5     ecut=    50.00 Ry     beta=0.60
     Davidson diagonalization with overlap
     ethr =  1.75E-04,  avg # of iterations =  1.7

     total cpu time spent up to now is      602.7 secs

     total energy              =    -234.57618773 Ry
     Harris-Foulkes estimate   =    -234.58058162 Ry
     estimated scf accuracy    <       0.02411216 Ry

     iteration #  6     ecut=    50.00 Ry     beta=0.60
     Davidson diagonalization with overlap
     ethr =  9.64E-05,  avg # of iterations =  1.3

     total cpu time spent up to now is      607.4 secs

     total energy              =    -234.57530575 Ry
     Harris-Foulkes estimate   =    -234.57698362 Ry
     estimated scf accuracy    <       0.00900305 Ry

     iteration #  7     ecut=    50.00 Ry     beta=0.60
     Davidson diagonalization with overlap
     ethr =  3.60E-05,  avg # of iterations =  2.3

     total cpu time spent up to now is      612.5 secs

     total energy              =    -234.57524449 Ry
     Harris-Foulkes estimate   =    -234.57583482 Ry
     estimated scf accuracy    <       0.00255303 Ry

     iteration #  8     ecut=    50.00 Ry     beta=0.60
     Davidson diagonalization with overlap
     ethr =  1.02E-05,  avg # of iterations =  2.9

     total cpu time spent up to now is      617.8 secs

     total energy              =    -234.57553584 Ry
     Harris-Foulkes estimate   =    -234.57550227 Ry
     estimated scf accuracy    <       0.00021429 Ry

     iteration #  9     ecut=    50.00 Ry     beta=0.60
     Davidson diagonalization with overlap
     ethr =  8.57E-07,  avg # of iterations =  3.2

     total cpu time spent up to now is      623.4 secs

     total energy              =    -234.57559228 Ry
     Harris-Foulkes estimate   =    -234.57556327 Ry
     estimated scf accuracy    <       0.00036506 Ry

     iteration # 10     ecut=    50.00 Ry     beta=0.60
     Davidson diagonalization with overlap
     ethr =  8.57E-07,  avg # of iterations =  1.2

     total cpu time spent up to now is      628.1 secs

     total energy              =    -234.57547043 Ry
     Harris-Foulkes estimate   =    -234.57559596 Ry
     estimated scf accuracy    <       0.00049815 Ry

     iteration # 11     ecut=    50.00 Ry     beta=0.60
     Davidson diagonalization with overlap
     ethr =  8.57E-07,  avg # of iterations =  3.2

     total cpu time spent up to now is      633.7 secs

     total energy              =    -234.57550984 Ry
     Harris-Foulkes estimate   =    -234.57551196 Ry
     estimated scf accuracy    <       0.00001622 Ry

     iteration # 12     ecut=    50.00 Ry     beta=0.60
     Davidson diagonalization with overlap
     ethr =  6.49E-08,  avg # of iterations =  2.9

     total cpu time spent up to now is      639.3 secs

     total energy              =    -234.57551234 Ry
     Harris-Foulkes estimate   =    -234.57551252 Ry
     estimated scf accuracy    <       0.00000372 Ry

     iteration # 13     ecut=    50.00 Ry     beta=0.60
     Davidson diagonalization with overlap
     ethr =  1.49E-08,  avg # of iterations =  3.0

     total cpu time spent up to now is      644.6 secs

     total energy              =    -234.57551269 Ry
     Harris-Foulkes estimate   =    -234.57551256 Ry
     estimated scf accuracy    <       0.00000158 Ry

     iteration # 14     ecut=    50.00 Ry     beta=0.60
     Davidson diagonalization with overlap
     ethr =  6.33E-09,  avg # of iterations =  1.3

     total cpu time spent up to now is      649.3 secs

     total energy              =    -234.57551255 Ry
     Harris-Foulkes estimate   =    -234.57551273 Ry
     estimated scf accuracy    <       0.00000164 Ry

     iteration # 15     ecut=    50.00 Ry     beta=0.60
     Davidson diagonalization with overlap
     ethr =  6.33E-09,  avg # of iterations =  1.0

     total cpu time spent up to now is      653.9 secs

     total energy              =    -234.57551260 Ry
     Harris-Foulkes estimate   =    -234.57551257 Ry
     estimated scf accuracy    <       0.00000098 Ry

     iteration # 16     ecut=    50.00 Ry     beta=0.60
     Davidson diagonalization with overlap
     ethr =  3.93E-09,  avg # of iterations =  1.0

     total cpu time spent up to now is      658.5 secs

     total energy              =    -234.57551229 Ry
     Harris-Foulkes estimate   =    -234.57551260 Ry
     estimated scf accuracy    <       0.00000104 Ry

     iteration # 17     ecut=    50.00 Ry     beta=0.60
     Davidson diagonalization with overlap
     ethr =  3.93E-09,  avg # of iterations =  2.9

     total cpu time spent up to now is      663.8 secs

     total energy              =    -234.57551237 Ry
     Harris-Foulkes estimate   =    -234.57551239 Ry
     estimated scf accuracy    <       0.00000005 Ry

     iteration # 18     ecut=    50.00 Ry     beta=0.60
     Davidson diagonalization with overlap
     ethr =  2.08E-10,  avg # of iterations =  4.0

     total cpu time spent up to now is      670.5 secs

     total energy              =    -234.57551239 Ry
     Harris-Foulkes estimate   =    -234.57551240 Ry
     estimated scf accuracy    <       0.00000002 Ry

     iteration # 19     ecut=    50.00 Ry     beta=0.60
     Davidson diagonalization with overlap
     ethr =  9.43E-11,  avg # of iterations =  1.1

     total cpu time spent up to now is      675.1 secs

     total energy              =    -234.57551239 Ry
     Harris-Foulkes estimate   =    -234.57551239 Ry
     estimated scf accuracy    <       0.00000002 Ry

     iteration # 20     ecut=    50.00 Ry     beta=0.60
     Davidson diagonalization with overlap
     ethr =  6.43E-11,  avg # of iterations =  1.0

     total cpu time spent up to now is      679.7 secs

     total energy              =    -234.57551239 Ry
     Harris-Foulkes estimate   =    -234.57551239 Ry
     estimated scf accuracy    <       0.00000001 Ry

     iteration # 21     ecut=    50.00 Ry     beta=0.60
     Davidson diagonalization with overlap
     ethr =  4.49E-11,  avg # of iterations =  2.4

     total cpu time spent up to now is      684.8 secs

     total energy              =    -234.57551239 Ry
     Harris-Foulkes estimate   =    -234.57551239 Ry
     estimated scf accuracy    <          4.2E-10 Ry

     iteration # 22     ecut=    50.00 Ry     beta=0.60
     Davidson diagonalization with overlap
     ethr =  1.69E-12,  avg # of iterations =  3.0

     total cpu time spent up to now is      690.3 secs

     total energy              =    -234.57551239 Ry
     Harris-Foulkes estimate   =    -234.57551239 Ry
     estimated scf accuracy    <          5.2E-11 Ry

     iteration # 23     ecut=    50.00 Ry     beta=0.60
     Davidson diagonalization with overlap
     ethr =  2.08E-13,  avg # of iterations =  2.8

     total cpu time spent up to now is      695.8 secs

     total energy              =    -234.57551239 Ry
     Harris-Foulkes estimate   =    -234.57551239 Ry
     estimated scf accuracy    <          2.0E-11 Ry

     iteration # 24     ecut=    50.00 Ry     beta=0.60
     Davidson diagonalization with overlap
     ethr =  1.00E-13,  avg # of iterations =  2.1

     total cpu time spent up to now is      701.1 secs

     total energy              =    -234.57551239 Ry
     Harris-Foulkes estimate   =    -234.57551239 Ry
     estimated scf accuracy    <          1.4E-11 Ry

     iteration # 25     ecut=    50.00 Ry     beta=0.60
     Davidson diagonalization with overlap
     ethr =  1.00E-13,  avg # of iterations =  1.0

     total cpu time spent up to now is      705.7 secs

     total energy              =    -234.57551239 Ry
     Harris-Foulkes estimate   =    -234.57551239 Ry
     estimated scf accuracy    <          6.3E-12 Ry

     iteration # 26     ecut=    50.00 Ry     beta=0.60
     Davidson diagonalization with overlap
     ethr =  1.00E-13,  avg # of iterations =  1.0

     total cpu time spent up to now is      710.3 secs

     total energy              =    -234.57551239 Ry
     Harris-Foulkes estimate   =    -234.57551239 Ry
     estimated scf accuracy    <          2.6E-12 Ry

     iteration # 27     ecut=    50.00 Ry     beta=0.60
     Davidson diagonalization with overlap
     ethr =  1.00E-13,  avg # of iterations =  1.0

     total cpu time spent up to now is      714.9 secs

     End of self-consistent calculation

     Number of k-points >= 100: set verbosity='high' to print the bands.

     the Fermi energy is    15.8026 ev

!    total energy              =    -234.57551239 Ry
     Harris-Foulkes estimate   =    -234.57551239 Ry
     estimated scf accuracy    <          6.9E-15 Ry

     The total energy is the sum of the following terms:

     one-electron contribution =     -56.68813346 Ry
     hartree contribution      =      39.16834469 Ry
     xc contribution           =     -32.98549087 Ry
     ewald contribution        =    -184.06903432 Ry
     smearing contrib. (-TS)   =      -0.00119844 Ry

     convergence has been achieved in  27 iterations

     Forces acting on atoms (Ry/au):

     atom    1 type  2   force =     0.00000000    0.00000000    0.00000000
     atom    2 type  1   force =     0.00000000    0.00000000    0.00000000

     Total force =     0.000000     Total SCF correction =     0.000000


     entering subroutine stress ...

          total   stress  (Ry/bohr**3)                   (kbar)     P=   -9.17
  -0.00006233   0.00000000   0.00000000         -9.17      0.00      0.00
   0.00000000  -0.00006233   0.00000000          0.00     -9.17      0.00
   0.00000000   0.00000000  -0.00006233          0.00      0.00     -9.17


     number of scf cycles    =   4
     number of bfgs steps    =   3

     enthalpy old            =    -234.5734062999 Ry
     enthalpy new            =    -234.5755123920 Ry

     CASE: enthalpy_new < enthalpy_old

     new trust radius        =       0.0066393892 bohr
     new conv_thr            =            1.0E-12 Ry

     new unit-cell volume =    234.95645 a.u.^3 (    34.81695 Ang^3 )

CELL_PARAMETERS (alat=  1.88972599)
  -3.265354140   0.000000000   0.000000000
   0.000000000   0.000000000   3.265354140
   0.000000000   3.265354140   0.000000000

ATOMIC_POSITIONS (angstrom)
Ti      -1.632677070   1.632677070   1.632677070
Nb      -3.265354140   3.265354140   3.265354140


     NEW-OLD atomic charge density approx. for the potential
     extrapolated charge   24.84392, renormalised to   25.00000

     total cpu time spent up to now is      720.6 secs

     per-process dynamical memory:    95.1 Mb

     Self-consistent Calculation

     iteration #  1     ecut=    50.00 Ry     beta=0.60
     Davidson diagonalization with overlap
     ethr =  1.00E-06,  avg # of iterations =  5.1

     total cpu time spent up to now is      730.3 secs

     total energy              =    -234.56792600 Ry
     Harris-Foulkes estimate   =    -234.82821877 Ry
     estimated scf accuracy    <       0.00692237 Ry

     iteration #  2     ecut=    50.00 Ry     beta=0.60
     Davidson diagonalization with overlap
     ethr =  2.77E-05,  avg # of iterations =  4.9

     total cpu time spent up to now is      739.6 secs

     total energy              =    -234.56874654 Ry
     Harris-Foulkes estimate   =    -234.58833063 Ry
     estimated scf accuracy    <       0.09394283 Ry

     iteration #  3     ecut=    50.00 Ry     beta=0.60
     Davidson diagonalization with overlap
     ethr =  2.77E-05,  avg # of iterations =  4.2

     total cpu time spent up to now is      747.0 secs

     total energy              =    -234.57579474 Ry
     Harris-Foulkes estimate   =    -234.57660735 Ry
     estimated scf accuracy    <       0.00318817 Ry

     iteration #  4     ecut=    50.00 Ry     beta=0.60
     Davidson diagonalization with overlap
     ethr =  1.28E-05,  avg # of iterations =  1.0

     total cpu time spent up to now is      751.6 secs

     total energy              =    -234.57577204 Ry
     Harris-Foulkes estimate   =    -234.57592389 Ry
     estimated scf accuracy    <       0.00197555 Ry

     iteration #  5     ecut=    50.00 Ry     beta=0.60
     Davidson diagonalization with overlap
     ethr =  7.90E-06,  avg # of iterations =  1.0

     total cpu time spent up to now is      756.2 secs

     total energy              =    -234.57548316 Ry
     Harris-Foulkes estimate   =    -234.57581008 Ry
     estimated scf accuracy    <       0.00140168 Ry

     iteration #  6     ecut=    50.00 Ry     beta=0.60
     Davidson diagonalization with overlap
     ethr =  5.61E-06,  avg # of iterations =  1.9

     total cpu time spent up to now is      761.1 secs

     total energy              =    -234.57554968 Ry
     Harris-Foulkes estimate   =    -234.57556419 Ry
     estimated scf accuracy    <       0.00032327 Ry

     iteration #  7     ecut=    50.00 Ry     beta=0.60
     Davidson diagonalization with overlap
     ethr =  1.29E-06,  avg # of iterations =  2.7

     total cpu time spent up to now is      766.4 secs

     total energy              =    -234.57552937 Ry
     Harris-Foulkes estimate   =    -234.57557776 Ry
     estimated scf accuracy    <       0.00014574 Ry

     iteration #  8     ecut=    50.00 Ry     beta=0.60
     Davidson diagonalization with overlap
     ethr =  5.83E-07,  avg # of iterations =  3.7

     total cpu time spent up to now is      772.8 secs

     total energy              =    -234.57556382 Ry
     Harris-Foulkes estimate   =    -234.57557073 Ry
     estimated scf accuracy    <       0.00003191 Ry

     iteration #  9     ecut=    50.00 Ry     beta=0.60
     Davidson diagonalization with overlap
     ethr =  1.28E-07,  avg # of iterations =  1.1

     total cpu time spent up to now is      777.4 secs

     total energy              =    -234.57556154 Ry
     Harris-Foulkes estimate   =    -234.57556493 Ry
     estimated scf accuracy    <       0.00001096 Ry

     iteration # 10     ecut=    50.00 Ry     beta=0.60
     Davidson diagonalization with overlap
     ethr =  4.39E-08,  avg # of iterations =  3.2

     total cpu time spent up to now is      783.0 secs

     total energy              =    -234.57556280 Ry
     Harris-Foulkes estimate   =    -234.57556317 Ry
     estimated scf accuracy    <       0.00000123 Ry

     iteration # 11     ecut=    50.00 Ry     beta=0.60
     Davidson diagonalization with overlap
     ethr =  4.92E-09,  avg # of iterations =  3.4

     total cpu time spent up to now is      789.1 secs

     total energy              =    -234.57556307 Ry
     Harris-Foulkes estimate   =    -234.57556308 Ry
     estimated scf accuracy    <       0.00000203 Ry

     iteration # 12     ecut=    50.00 Ry     beta=0.60
     Davidson diagonalization with overlap
     ethr =  4.92E-09,  avg # of iterations =  1.1

     total cpu time spent up to now is      793.7 secs

     total energy              =    -234.57556308 Ry
     Harris-Foulkes estimate   =    -234.57556313 Ry
     estimated scf accuracy    <       0.00000222 Ry

     iteration # 13     ecut=    50.00 Ry     beta=0.60
     Davidson diagonalization with overlap
     ethr =  4.92E-09,  avg # of iterations =  1.0

     total cpu time spent up to now is      798.3 secs

     total energy              =    -234.57556292 Ry
     Harris-Foulkes estimate   =    -234.57556309 Ry
     estimated scf accuracy    <       0.00000190 Ry

     iteration # 14     ecut=    50.00 Ry     beta=0.60
     Davidson diagonalization with overlap
     ethr =  4.92E-09,  avg # of iterations =  2.8

     total cpu time spent up to now is      803.8 secs

     total energy              =    -234.57556277 Ry
     Harris-Foulkes estimate   =    -234.57556313 Ry
     estimated scf accuracy    <       0.00000089 Ry

     iteration # 15     ecut=    50.00 Ry     beta=0.60
     Davidson diagonalization with overlap
     ethr =  3.56E-09,  avg # of iterations =  2.3

     total cpu time spent up to now is      809.0 secs

     total energy              =    -234.57556289 Ry
     Harris-Foulkes estimate   =    -234.57556286 Ry
     estimated scf accuracy    <       0.00000015 Ry

     iteration # 16     ecut=    50.00 Ry     beta=0.60
     Davidson diagonalization with overlap
     ethr =  5.89E-10,  avg # of iterations =  1.4

     total cpu time spent up to now is      813.7 secs

     total energy              =    -234.57556287 Ry
     Harris-Foulkes estimate   =    -234.57556290 Ry
     estimated scf accuracy    <       0.00000033 Ry

     iteration # 17     ecut=    50.00 Ry     beta=0.60
     Davidson diagonalization with overlap
     ethr =  5.89E-10,  avg # of iterations =  1.0

     total cpu time spent up to now is      818.3 secs

     total energy              =    -234.57556286 Ry
     Harris-Foulkes estimate   =    -234.57556287 Ry
     estimated scf accuracy    <       0.00000023 Ry

     iteration # 18     ecut=    50.00 Ry     beta=0.60
     Davidson diagonalization with overlap
     ethr =  5.89E-10,  avg # of iterations =  1.1

     total cpu time spent up to now is      823.0 secs

     total energy              =    -234.57556286 Ry
     Harris-Foulkes estimate   =    -234.57556286 Ry
     estimated scf accuracy    <       0.00000015 Ry

     iteration # 19     ecut=    50.00 Ry     beta=0.60
     Davidson diagonalization with overlap
     ethr =  5.89E-10,  avg # of iterations =  1.0

     total cpu time spent up to now is      827.6 secs

     total energy              =    -234.57556284 Ry
     Harris-Foulkes estimate   =    -234.57556286 Ry
     estimated scf accuracy    <       0.00000013 Ry

     iteration # 20     ecut=    50.00 Ry     beta=0.60
     Davidson diagonalization with overlap
     ethr =  5.39E-10,  avg # of iterations =  1.2

     total cpu time spent up to now is      832.2 secs

     total energy              =    -234.57556285 Ry
     Harris-Foulkes estimate   =    -234.57556284 Ry
     estimated scf accuracy    <       0.00000006 Ry

     iteration # 21     ecut=    50.00 Ry     beta=0.60
     Davidson diagonalization with overlap
     ethr =  2.49E-10,  avg # of iterations =  1.4

     total cpu time spent up to now is      836.9 secs

     total energy              =    -234.57556285 Ry
     Harris-Foulkes estimate   =    -234.57556285 Ry
     estimated scf accuracy    <       0.00000006 Ry

     iteration # 22     ecut=    50.00 Ry     beta=0.60
     Davidson diagonalization with overlap
     ethr =  2.49E-10,  avg # of iterations =  1.0

     total cpu time spent up to now is      841.5 secs

     total energy              =    -234.57556284 Ry
     Harris-Foulkes estimate   =    -234.57556285 Ry
     estimated scf accuracy    <       0.00000007 Ry

     iteration # 23     ecut=    50.00 Ry     beta=0.60
     Davidson diagonalization with overlap
     ethr =  2.49E-10,  avg # of iterations =  3.1

     total cpu time spent up to now is      846.8 secs

     total energy              =    -234.57556284 Ry
     Harris-Foulkes estimate   =    -234.57556285 Ry
     estimated scf accuracy    <       0.00000002 Ry

     iteration # 24     ecut=    50.00 Ry     beta=0.60
     Davidson diagonalization with overlap
     ethr =  9.74E-11,  avg # of iterations =  3.3

     total cpu time spent up to now is      852.4 secs

     total energy              =    -234.57556284 Ry
     Harris-Foulkes estimate   =    -234.57556285 Ry
     estimated scf accuracy    <       0.00000004 Ry

     iteration # 25     ecut=    50.00 Ry     beta=0.60
     Davidson diagonalization with overlap
     ethr =  9.74E-11,  avg # of iterations =  3.3

     total cpu time spent up to now is      857.9 secs

     total energy              =    -234.57556284 Ry
     Harris-Foulkes estimate   =    -234.57556284 Ry
     estimated scf accuracy    <          2.8E-09 Ry

     iteration # 26     ecut=    50.00 Ry     beta=0.60
     Davidson diagonalization with overlap
     ethr =  1.13E-11,  avg # of iterations =  3.6

     total cpu time spent up to now is      863.8 secs

     total energy              =    -234.57556284 Ry
     Harris-Foulkes estimate   =    -234.57556284 Ry
     estimated scf accuracy    <          2.2E-09 Ry

     iteration # 27     ecut=    50.00 Ry     beta=0.60
     Davidson diagonalization with overlap
     ethr =  8.76E-12,  avg # of iterations =  3.4

     total cpu time spent up to now is      869.4 secs

     total energy              =    -234.57556284 Ry
     Harris-Foulkes estimate   =    -234.57556284 Ry
     estimated scf accuracy    <          1.3E-09 Ry

     iteration # 28     ecut=    50.00 Ry     beta=0.60
     Davidson diagonalization with overlap
     ethr =  5.11E-12,  avg # of iterations =  1.6

     total cpu time spent up to now is      874.2 secs

     total energy              =    -234.57556284 Ry
     Harris-Foulkes estimate   =    -234.57556284 Ry
     estimated scf accuracy    <          3.8E-11 Ry

     iteration # 29     ecut=    50.00 Ry     beta=0.60
     Davidson diagonalization with overlap
     ethr =  1.53E-13,  avg # of iterations =  4.2

     total cpu time spent up to now is      880.8 secs

     total energy              =    -234.57556284 Ry
     Harris-Foulkes estimate   =    -234.57556284 Ry
     estimated scf accuracy    <          7.9E-11 Ry

     iteration # 30     ecut=    50.00 Ry     beta=0.60
     Davidson diagonalization with overlap
     ethr =  1.53E-13,  avg # of iterations =  2.6

     total cpu time spent up to now is      885.9 secs

     total energy              =    -234.57556284 Ry
     Harris-Foulkes estimate   =    -234.57556284 Ry
     estimated scf accuracy    <          6.0E-12 Ry

     iteration # 31     ecut=    50.00 Ry     beta=0.60
     Davidson diagonalization with overlap
     ethr =  1.00E-13,  avg # of iterations =  2.1

     total cpu time spent up to now is      890.9 secs

     End of self-consistent calculation

     Number of k-points >= 100: set verbosity='high' to print the bands.

     the Fermi energy is    15.9225 ev

!    total energy              =    -234.57556284 Ry
     Harris-Foulkes estimate   =    -234.57556284 Ry
     estimated scf accuracy    <          2.8E-13 Ry

     The total energy is the sum of the following terms:

     one-electron contribution =     -56.11281354 Ry
     hartree contribution      =      39.00364480 Ry
     xc contribution           =     -32.99795479 Ry
     ewald contribution        =    -184.46724776 Ry
     smearing contrib. (-TS)   =      -0.00119155 Ry

     convergence has been achieved in  31 iterations

     Forces acting on atoms (Ry/au):

     atom    1 type  2   force =     0.00000000    0.00000000    0.00000000
     atom    2 type  1   force =     0.00000000    0.00000000    0.00000000

     Total force =     0.000000     Total SCF correction =     0.000000


     entering subroutine stress ...

          total   stress  (Ry/bohr**3)                   (kbar)     P=   -0.49
  -0.00000331   0.00000000   0.00000000         -0.49      0.00      0.00
   0.00000000  -0.00000331   0.00000000          0.00     -0.49      0.00
   0.00000000   0.00000000  -0.00000331          0.00      0.00     -0.49


     number of scf cycles    =   5
     number of bfgs steps    =   4

     enthalpy old            =    -234.5755123920 Ry
     enthalpy new            =    -234.5755628406 Ry

     CASE: enthalpy_new < enthalpy_old

     new trust radius        =       0.0003708271 bohr
     new conv_thr            =            1.0E-12 Ry

     new unit-cell volume =    234.87120 a.u.^3 (    34.80432 Ang^3 )

CELL_PARAMETERS (alat=  1.88972599)
  -3.264959158   0.000000000   0.000000000
   0.000000000   0.000000000   3.264959158
   0.000000000   3.264959158   0.000000000

ATOMIC_POSITIONS (angstrom)
Ti      -1.632479579   1.632479579   1.632479579
Nb      -3.264959158   3.264959158   3.264959158


     NEW-OLD atomic charge density approx. for the potential
     extrapolated charge   24.99129, renormalised to   25.00000

     total cpu time spent up to now is      896.7 secs

     per-process dynamical memory:    94.9 Mb

     Self-consistent Calculation

     iteration #  1     ecut=    50.00 Ry     beta=0.60
     Davidson diagonalization with overlap
     ethr =  1.00E-06,  avg # of iterations =  2.0

     Threshold (ethr) on eigenvalues was too large:
     Diagonalizing with lowered threshold

     Davidson diagonalization with overlap
     ethr =  6.81E-08,  avg # of iterations =  1.0

     total cpu time spent up to now is      907.6 secs

     total energy              =    -234.57554270 Ry
     Harris-Foulkes estimate   =    -234.58960074 Ry
     estimated scf accuracy    <       0.00001778 Ry

     iteration #  2     ecut=    50.00 Ry     beta=0.60
     Davidson diagonalization with overlap
     ethr =  7.11E-08,  avg # of iterations =  4.6

     total cpu time spent up to now is      915.7 secs

     total energy              =    -234.57554412 Ry
     Harris-Foulkes estimate   =    -234.57559478 Ry
     estimated scf accuracy    <       0.00024798 Ry

     iteration #  3     ecut=    50.00 Ry     beta=0.60
     Davidson diagonalization with overlap
     ethr =  7.11E-08,  avg # of iterations =  3.9

     total cpu time spent up to now is      922.2 secs

     total energy              =    -234.57556347 Ry
     Harris-Foulkes estimate   =    -234.57556575 Ry
     estimated scf accuracy    <       0.00000758 Ry

     iteration #  4     ecut=    50.00 Ry     beta=0.60
     Davidson diagonalization with overlap
     ethr =  3.03E-08,  avg # of iterations =  1.5

     total cpu time spent up to now is      926.9 secs

     total energy              =    -234.57556333 Ry
     Harris-Foulkes estimate   =    -234.57556392 Ry
     estimated scf accuracy    <       0.00000449 Ry

     iteration #  5     ecut=    50.00 Ry     beta=0.60
     Davidson diagonalization with overlap
     ethr =  1.79E-08,  avg # of iterations =  1.2

     total cpu time spent up to now is      931.6 secs

     total energy              =    -234.57556267 Ry
     Harris-Foulkes estimate   =    -234.57556346 Ry
     estimated scf accuracy    <       0.00000265 Ry

     iteration #  6     ecut=    50.00 Ry     beta=0.60
     Davidson diagonalization with overlap
     ethr =  1.06E-08,  avg # of iterations =  2.7

     total cpu time spent up to now is      937.0 secs

     total energy              =    -234.57556293 Ry
     Harris-Foulkes estimate   =    -234.57556298 Ry
     estimated scf accuracy    <       0.00000021 Ry

     iteration #  7     ecut=    50.00 Ry     beta=0.60
     Davidson diagonalization with overlap
     ethr =  8.49E-10,  avg # of iterations =  3.7

     total cpu time spent up to now is      943.4 secs

     total energy              =    -234.57556299 Ry
     Harris-Foulkes estimate   =    -234.57556301 Ry
     estimated scf accuracy    <       0.00000009 Ry

     iteration #  8     ecut=    50.00 Ry     beta=0.60
     Davidson diagonalization with overlap
     ethr =  3.47E-10,  avg # of iterations =  1.1

     total cpu time spent up to now is      948.0 secs

     total energy              =    -234.57556299 Ry
     Harris-Foulkes estimate   =    -234.57556299 Ry
     estimated scf accuracy    <       0.00000003 Ry

     iteration #  9     ecut=    50.00 Ry     beta=0.60
     Davidson diagonalization with overlap
     ethr =  1.15E-10,  avg # of iterations =  1.4

     total cpu time spent up to now is      952.7 secs

     total energy              =    -234.57556300 Ry
     Harris-Foulkes estimate   =    -234.57556299 Ry
     estimated scf accuracy    <       0.00000003 Ry

     iteration # 10     ecut=    50.00 Ry     beta=0.60
     Davidson diagonalization with overlap
     ethr =  1.15E-10,  avg # of iterations =  1.1

     total cpu time spent up to now is      957.3 secs

     total energy              =    -234.57556298 Ry
     Harris-Foulkes estimate   =    -234.57556300 Ry
     estimated scf accuracy    <       0.00000006 Ry

     iteration # 11     ecut=    50.00 Ry     beta=0.60
     Davidson diagonalization with overlap
     ethr =  1.15E-10,  avg # of iterations =  3.1

     total cpu time spent up to now is      962.7 secs

     total energy              =    -234.57556298 Ry
     Harris-Foulkes estimate   =    -234.57556299 Ry
     estimated scf accuracy    <       0.00000002 Ry

     iteration # 12     ecut=    50.00 Ry     beta=0.60
     Davidson diagonalization with overlap
     ethr =  8.11E-11,  avg # of iterations =  3.0

     total cpu time spent up to now is      968.8 secs

     total energy              =    -234.57556299 Ry
     Harris-Foulkes estimate   =    -234.57556298 Ry
     estimated scf accuracy    <       0.00000001 Ry

     iteration # 13     ecut=    50.00 Ry     beta=0.60
     Davidson diagonalization with overlap
     ethr =  4.93E-11,  avg # of iterations =  2.4

     total cpu time spent up to now is      974.1 secs

     total energy              =    -234.57556299 Ry
     Harris-Foulkes estimate   =    -234.57556299 Ry
     estimated scf accuracy    <       0.00000003 Ry

     iteration # 14     ecut=    50.00 Ry     beta=0.60
     Davidson diagonalization with overlap
     ethr =  4.93E-11,  avg # of iterations =  1.4

     total cpu time spent up to now is      978.8 secs

     total energy              =    -234.57556298 Ry
     Harris-Foulkes estimate   =    -234.57556299 Ry
     estimated scf accuracy    <       0.00000003 Ry

     iteration # 15     ecut=    50.00 Ry     beta=0.60
     Davidson diagonalization with overlap
     ethr =  4.93E-11,  avg # of iterations =  3.3

     total cpu time spent up to now is      984.4 secs

     total energy              =    -234.57556298 Ry
     Harris-Foulkes estimate   =    -234.57556298 Ry
     estimated scf accuracy    <          3.2E-10 Ry

     iteration # 16     ecut=    50.00 Ry     beta=0.60
     Davidson diagonalization with overlap
     ethr =  1.27E-12,  avg # of iterations =  4.7

     total cpu time spent up to now is      992.6 secs

     total energy              =    -234.57556298 Ry
     Harris-Foulkes estimate   =    -234.57556299 Ry
     estimated scf accuracy    <       0.00000002 Ry

     iteration # 17     ecut=    50.00 Ry     beta=0.60
     Davidson diagonalization with overlap
     ethr =  1.27E-12,  avg # of iterations =  4.8

     total cpu time spent up to now is     1000.5 secs

     total energy              =    -234.57556298 Ry
     Harris-Foulkes estimate   =    -234.57556298 Ry
     estimated scf accuracy    <          6.0E-10 Ry

     iteration # 18     ecut=    50.00 Ry     beta=0.60
     Davidson diagonalization with overlap
     ethr =  1.27E-12,  avg # of iterations =  4.4

     total cpu time spent up to now is     1008.0 secs

     total energy              =    -234.57556298 Ry
     Harris-Foulkes estimate   =    -234.57556298 Ry
     estimated scf accuracy    <          9.4E-10 Ry

     iteration # 19     ecut=    50.00 Ry     beta=0.60
     Davidson diagonalization with overlap
     ethr =  1.27E-12,  avg # of iterations =  3.4

     total cpu time spent up to now is     1013.5 secs

     total energy              =    -234.57556298 Ry
     Harris-Foulkes estimate   =    -234.57556298 Ry
     estimated scf accuracy    <          4.0E-11 Ry

     iteration # 20     ecut=    50.00 Ry     beta=0.60
     Davidson diagonalization with overlap
     ethr =  1.59E-13,  avg # of iterations =  2.4

     total cpu time spent up to now is     1018.6 secs

     total energy              =    -234.57556298 Ry
     Harris-Foulkes estimate   =    -234.57556298 Ry
     estimated scf accuracy    <          5.1E-11 Ry

     iteration # 21     ecut=    50.00 Ry     beta=0.60
     Davidson diagonalization with overlap
     ethr =  1.59E-13,  avg # of iterations =  1.6

     total cpu time spent up to now is     1023.3 secs

     total energy              =    -234.57556298 Ry
     Harris-Foulkes estimate   =    -234.57556298 Ry
     estimated scf accuracy    <          1.1E-10 Ry

     iteration # 22     ecut=    50.00 Ry     beta=0.60
     Davidson diagonalization with overlap
     ethr =  1.59E-13,  avg # of iterations =  1.1

     total cpu time spent up to now is     1028.0 secs

     total energy              =    -234.57556298 Ry
     Harris-Foulkes estimate   =    -234.57556298 Ry
     estimated scf accuracy    <          3.8E-11 Ry

     iteration # 23     ecut=    50.00 Ry     beta=0.60
     Davidson diagonalization with overlap
     ethr =  1.50E-13,  avg # of iterations =  2.7

     total cpu time spent up to now is     1033.2 secs

     End of self-consistent calculation

     Number of k-points >= 100: set verbosity='high' to print the bands.

     the Fermi energy is    15.9293 ev

!    total energy              =    -234.57556298 Ry
     Harris-Foulkes estimate   =    -234.57556298 Ry
     estimated scf accuracy    <          1.7E-13 Ry

     The total energy is the sum of the following terms:

     one-electron contribution =     -56.08058382 Ry
     hartree contribution      =      38.99443102 Ry
     xc contribution           =     -32.99865510 Ry
     ewald contribution        =    -184.48956393 Ry
     smearing contrib. (-TS)   =      -0.00119115 Ry

     convergence has been achieved in  23 iterations

     Forces acting on atoms (Ry/au):

     atom    1 type  2   force =     0.00000000    0.00000000    0.00000000
     atom    2 type  1   force =     0.00000000    0.00000000    0.00000000

     Total force =     0.000000     Total SCF correction =     0.000000


     entering subroutine stress ...

          total   stress  (Ry/bohr**3)                   (kbar)     P=    0.00
   0.00000001   0.00000000   0.00000000          0.00      0.00      0.00
   0.00000000   0.00000001   0.00000000          0.00      0.00      0.00
   0.00000000   0.00000000   0.00000001          0.00      0.00      0.00


     number of scf cycles    =   6
     number of bfgs steps    =   5

     enthalpy old            =    -234.5755628406 Ry
     enthalpy new            =    -234.5755629819 Ry

     CASE: enthalpy_new < enthalpy_old

     small trust_radius: resetting bfgs history

     new trust radius        =       0.0000005974 bohr
     new conv_thr            =            1.0E-12 Ry

     new unit-cell volume =    234.87134 a.u.^3 (    34.80434 Ang^3 )

CELL_PARAMETERS (alat=  1.88972599)
  -3.264959794   0.000000000   0.000000000
   0.000000000   0.000000000   3.264959794
   0.000000000   3.264959794   0.000000000

ATOMIC_POSITIONS (angstrom)
Ti      -1.632479897   1.632479897   1.632479897
Nb      -3.264959794   3.264959794   3.264959794


     NEW-OLD atomic charge density approx. for the potential
[...]

     iteration #  4     ecut=    50.00 Ry     beta=0.60
     Davidson diagonalization with overlap
     ethr =  2.03E-12,  avg # of iterations =  1.2

     total cpu time spent up to now is     1117.3 secs

     total energy              =    -234.57556298 Ry
     Harris-Foulkes estimate   =    -234.57556298 Ry
     estimated scf accuracy    <          2.9E-10 Ry

     iteration #  5     ecut=    50.00 Ry     beta=0.60
     Davidson diagonalization with overlap
     ethr =  1.15E-12,  avg # of iterations =  1.2

     total cpu time spent up to now is     1122.0 secs

     total energy              =    -234.57556298 Ry
     Harris-Foulkes estimate   =    -234.57556298 Ry
     estimated scf accuracy    <          1.8E-10 Ry

     iteration #  6     ecut=    50.00 Ry     beta=0.60
     Davidson diagonalization with overlap
     ethr =  7.12E-13,  avg # of iterations =  2.7

     total cpu time spent up to now is     1127.4 secs

     total energy              =    -234.57556298 Ry
     Harris-Foulkes estimate   =    -234.57556298 Ry
     estimated scf accuracy    <          1.6E-11 Ry

     iteration #  7     ecut=    50.00 Ry     beta=0.60
     Davidson diagonalization with overlap
     ethr =  1.00E-13,  avg # of iterations =  3.3

     total cpu time spent up to now is     1133.3 secs

     total energy              =    -234.57556298 Ry
     Harris-Foulkes estimate   =    -234.57556298 Ry
     estimated scf accuracy    <          3.6E-12 Ry

     iteration #  8     ecut=    50.00 Ry     beta=0.60
     Davidson diagonalization with overlap
     ethr =  1.00E-13,  avg # of iterations =  1.0

     total cpu time spent up to now is     1137.9 secs

     total energy              =    -234.57556298 Ry
     Harris-Foulkes estimate   =    -234.57556298 Ry
     estimated scf accuracy    <          1.3E-12 Ry

     iteration #  9     ecut=    50.00 Ry     beta=0.60
     Davidson diagonalization with overlap
     ethr =  1.00E-13,  avg # of iterations =  1.0

     total cpu time spent up to now is     1142.5 secs

     total energy              =    -234.57556298 Ry
     Harris-Foulkes estimate   =    -234.57556298 Ry
     estimated scf accuracy    <          1.0E-12 Ry

     iteration # 10     ecut=    50.00 Ry     beta=0.60
     Davidson diagonalization with overlap
     ethr =  1.00E-13,  avg # of iterations =  1.0

     total cpu time spent up to now is     1147.1 secs

     total energy              =    -234.57556298 Ry
     Harris-Foulkes estimate   =    -234.57556298 Ry
     estimated scf accuracy    <          4.0E-12 Ry

     iteration # 11     ecut=    50.00 Ry     beta=0.60
     Davidson diagonalization with overlap
     ethr =  1.00E-13,  avg # of iterations =  1.0

     total cpu time spent up to now is     1151.6 secs

     total energy              =    -234.57556298 Ry
     Harris-Foulkes estimate   =    -234.57556298 Ry
     estimated scf accuracy    <          1.1E-12 Ry

     iteration # 12     ecut=    50.00 Ry     beta=0.60
     Davidson diagonalization with overlap
     ethr =  1.00E-13,  avg # of iterations =  1.0

     total cpu time spent up to now is     1156.2 secs

     End of self-consistent calculation

     Number of k-points >= 100: set verbosity='high' to print the bands.

     the Fermi energy is    15.9292 ev

!    total energy              =    -234.57556298 Ry
     Harris-Foulkes estimate   =    -234.57556298 Ry
     estimated scf accuracy    <          9.6E-13 Ry

     The total energy is the sum of the following terms:

     one-electron contribution =     -56.08089180 Ry
     hartree contribution      =      38.99451482 Ry
     xc contribution           =     -32.99864737 Ry
     ewald contribution        =    -184.48934747 Ry
     smearing contrib. (-TS)   =      -0.00119115 Ry

     convergence has been achieved in  12 iterations

     Forces acting on atoms (Ry/au):

     atom    1 type  2   force =     0.00000000    0.00000000    0.00000000
     atom    2 type  1   force =     0.00000000    0.00000000    0.00000000

     Total force =     0.000000     Total SCF correction =     0.000000


     entering subroutine stress ...

          total   stress  (Ry/bohr**3)                   (kbar)     P=   -0.01
  -0.00000007   0.00000000   0.00000000         -0.01      0.00      0.00
   0.00000000  -0.00000007   0.00000000          0.00     -0.01      0.00
   0.00000000   0.00000000  -0.00000007          0.00      0.00     -0.01


     bfgs converged in   8 scf cycles and   7 bfgs steps
     (criteria: energy <  1.0E-10, force <  1.0E-05, cell <  1.0E-03)

     End of BFGS Geometry Optimization

     Final enthalpy =    -234.5755629819 Ry
Begin final coordinates
     new unit-cell volume =    234.87203 a.u.^3 (    34.80444 Ang^3 )

CELL_PARAMETERS (alat=  1.88972599)
  -3.264962989   0.000000000   0.000000000
   0.000000000   0.000000000   3.264962989
   0.000000000   3.264962989   0.000000000

ATOMIC_POSITIONS (angstrom)
Ti      -1.632481494   1.632481494   1.632481494
Nb      -3.264962989   3.264962989   3.264962989
End final coordinates



     A final scf calculation at the relaxed structure.
     The G-vectors are recalculated for the final unit cell
     Results may differ from those at the preceding step.

   Info: using nr1, nr2, nr3 values from input

   Info: using nr1, nr2, nr3 values from input

     Parallelization info
     --------------------
     sticks:   dense  smooth     PW     G-vecs:    dense   smooth      PW
     Min         377     148     46                11074     2768     482
     Max         379     149     47                11075     2771     485
     Sum        1513     593    185                44299    11075    1935



     bravais-lattice index     =            0
     lattice parameter (alat)  =       1.8897  a.u.
     unit-cell volume          =     234.8720 (a.u.)^3
     number of atoms/cell      =            2
     number of atomic types    =            2
     number of electrons       =        25.00
     number of Kohn-Sham states=           17
     kinetic-energy cutoff     =      50.0000  Ry
     charge density cutoff     =     500.0000  Ry
     convergence threshold     =      1.0E-12
     mixing beta               =       0.6000
     number of iterations used =            8  plain     mixing
     Exchange-correlation      = SLA  PW   PBE  PBE ( 1  4  3  4 0 0)

     celldm(1)=   1.889726  celldm(2)=   0.000000  celldm(3)=   0.000000
     celldm(4)=   0.000000  celldm(5)=   0.000000  celldm(6)=   0.000000

     crystal axes: (cart. coord. in units of alat)
               a(1) = (  -3.264963   0.000000   0.000000 )  
               a(2) = (   0.000000   0.000000   3.264963 )  
               a(3) = (   0.000000   3.264963   0.000000 )  

     reciprocal axes: (cart. coord. in units 2 pi/alat)
               b(1) = ( -0.306282  0.000000  0.000000 )  
               b(2) = (  0.000000 -0.000000  0.306282 )  
               b(3) = (  0.000000  0.306282 -0.000000 )  


     PseudoPot. # 1 for Nb read from file:
     ./Nb.pbe-nsp-van.UPF
     MD5 check sum: 0a22fc7fb0ba19a08ca5db297a5d2854
     Pseudo is Ultrasoft + core correction, Zval = 13.0
     Generated by new atomic code, or converted to UPF format
     Using radial grid of  887 points,  6 beta functions with: 
                l(1) =   0
                l(2) =   0
                l(3) =   1
                l(4) =   1
                l(5) =   2
                l(6) =   2
     Q(r) pseudized with  6 coefficients,  rinner =    1.000   1.000   1.000
                                                       1.000   1.000

     PseudoPot. # 2 for Ti read from file:
     ./Ti.pbe-sp-van_ak.UPF
     MD5 check sum: f98fea3e8887528921fefa5636a534ca
     Pseudo is Ultrasoft, Zval = 12.0
     Generated by new atomic code, or converted to UPF format
     Using radial grid of  851 points,  6 beta functions with: 
                l(1) =   0
                l(2) =   0
                l(3) =   1
                l(4) =   1
                l(5) =   2
                l(6) =   2
     Q(r) pseudized with  8 coefficients,  rinner =    1.000   1.000   1.000
                                                       1.000   1.000

     atomic species   valence    mass     pseudopotential
        Nb            13.00    92.90638     Nb( 1.00)
        Ti            12.00    47.86700     Ti( 1.00)

     48 Sym. Ops., with inversion, found



   Cartesian axes

     site n.     atom                  positions (alat units)
         1           Ti  tau(   1) = (  -1.6324816   1.6324816   1.6324816  )
         2           Nb  tau(   2) = (  -3.2649632   3.2649632   3.2649632  )

     number of k points=   165  Marzari-Vanderbilt smearing, width (Ry)=  0.0200

     Number of k-points >= 100: set verbosity='high' to print them.

     Dense  grid:    44299 G-vectors     FFT dimensions: (  48,  48,  48)

     Smooth grid:    11075 G-vectors     FFT dimensions: (  30,  30,  30)

     Estimated max dynamical RAM per process >      22.58Mb

     Estimated total allocated dynamical RAM >      90.32Mb

     Initial potential from superposition of free atoms

     starting charge   23.99722, renormalised to   25.00000
     Starting wfc are   23 randomized atomic wfcs

     total cpu time spent up to now is     1163.0 secs

     per-process dynamical memory:   122.3 Mb

     Self-consistent Calculation

     iteration #  1     ecut=    50.00 Ry     beta=0.60
     Davidson diagonalization with overlap
     ethr =  1.00E-06,  avg # of iterations =  9.5

     total cpu time spent up to now is     1177.0 secs

     total energy              =    -233.29361907 Ry
     Harris-Foulkes estimate   =    -235.05311259 Ry
     estimated scf accuracy    <       2.29374282 Ry

     iteration #  2     ecut=    50.00 Ry     beta=0.60
     Davidson diagonalization with overlap
     ethr =  9.17E-03,  avg # of iterations =  4.1

     total cpu time spent up to now is     1184.3 secs

     total energy              =    -233.77876624 Ry
     Harris-Foulkes estimate   =    -236.45608033 Ry
     estimated scf accuracy    <       7.59575290 Ry

     iteration #  3     ecut=    50.00 Ry     beta=0.60
     Davidson diagonalization with overlap
     ethr =  9.17E-03,  avg # of iterations =  3.9

     total cpu time spent up to now is     1190.1 secs

     total energy              =    -234.66791402 Ry
     Harris-Foulkes estimate   =    -234.60642430 Ry
     estimated scf accuracy    <       0.28835778 Ry

     iteration #  4     ecut=    50.00 Ry     beta=0.60
     Davidson diagonalization with overlap
     ethr =  1.15E-03,  avg # of iterations =  3.0

     total cpu time spent up to now is     1195.0 secs

     total energy              =    -234.48373380 Ry
     Harris-Foulkes estimate   =    -234.68549745 Ry
     estimated scf accuracy    <       0.47324248 Ry

     iteration #  5     ecut=    50.00 Ry     beta=0.60
     Davidson diagonalization with overlap
     ethr =  1.15E-03,  avg # of iterations =  4.2

     total cpu time spent up to now is     1201.3 secs

     total energy              =    -234.56845523 Ry
     Harris-Foulkes estimate   =    -234.58356373 Ry
     estimated scf accuracy    <       0.07700334 Ry

     iteration #  6     ecut=    50.00 Ry     beta=0.60
     Davidson diagonalization with overlap
     ethr =  3.08E-04,  avg # of iterations =  1.8

     total cpu time spent up to now is     1205.8 secs

     total energy              =    -234.57429457 Ry
     Harris-Foulkes estimate   =    -234.57381747 Ry
     estimated scf accuracy    <       0.00712739 Ry

     iteration #  7     ecut=    50.00 Ry     beta=0.60
     Davidson diagonalization with overlap
     ethr =  2.85E-05,  avg # of iterations =  4.5

     total cpu time spent up to now is     1212.0 secs

     total energy              =    -234.57468751 Ry
     Harris-Foulkes estimate   =    -234.57663206 Ry
     estimated scf accuracy    <       0.00621676 Ry

     iteration #  8     ecut=    50.00 Ry     beta=0.60
     Davidson diagonalization with overlap
     ethr =  2.49E-05,  avg # of iterations =  2.7

     total cpu time spent up to now is     1216.8 secs

     total energy              =    -234.57519891 Ry
     Harris-Foulkes estimate   =    -234.57526911 Ry
     estimated scf accuracy    <       0.00027451 Ry

     iteration #  9     ecut=    50.00 Ry     beta=0.60
     Davidson diagonalization with overlap
     ethr =  1.10E-06,  avg # of iterations =  4.0

     total cpu time spent up to now is     1223.4 secs

     total energy              =    -234.57532625 Ry
     Harris-Foulkes estimate   =    -234.57533430 Ry
     estimated scf accuracy    <       0.00004362 Ry

     iteration # 10     ecut=    50.00 Ry     beta=0.60
     Davidson diagonalization with overlap
     ethr =  1.74E-07,  avg # of iterations =  2.3

     total cpu time spent up to now is     1228.1 secs

     total energy              =    -234.57532097 Ry
     Harris-Foulkes estimate   =    -234.57532930 Ry
     estimated scf accuracy    <       0.00003234 Ry

     iteration # 11     ecut=    50.00 Ry     beta=0.60
     Davidson diagonalization with overlap
     ethr =  1.29E-07,  avg # of iterations =  2.4

     total cpu time spent up to now is     1232.9 secs

     total energy              =    -234.57532511 Ry
     Harris-Foulkes estimate   =    -234.57532519 Ry
     estimated scf accuracy    <       0.00000020 Ry

     iteration # 12     ecut=    50.00 Ry     beta=0.60
     Davidson diagonalization with overlap
     ethr =  7.95E-10,  avg # of iterations =  4.6

     total cpu time spent up to now is     1240.1 secs

     total energy              =    -234.57532539 Ry
     Harris-Foulkes estimate   =    -234.57532542 Ry
     estimated scf accuracy    <       0.00000010 Ry

     iteration # 13     ecut=    50.00 Ry     beta=0.60
     Davidson diagonalization with overlap
     ethr =  4.18E-10,  avg # of iterations =  3.4

     total cpu time spent up to now is     1245.2 secs

     total energy              =    -234.57532541 Ry
     Harris-Foulkes estimate   =    -234.57532542 Ry
     estimated scf accuracy    <       0.00000003 Ry

     iteration # 14     ecut=    50.00 Ry     beta=0.60
     Davidson diagonalization with overlap
     ethr =  1.35E-10,  avg # of iterations =  2.9

     total cpu time spent up to now is     1250.1 secs

     total energy              =    -234.57532541 Ry
     Harris-Foulkes estimate   =    -234.57532541 Ry
     estimated scf accuracy    <          5.8E-10 Ry

     iteration # 15     ecut=    50.00 Ry     beta=0.60
     Davidson diagonalization with overlap
     ethr =  2.32E-12,  avg # of iterations =  4.4

     total cpu time spent up to now is     1256.2 secs

     total energy              =    -234.57532541 Ry
     Harris-Foulkes estimate   =    -234.57532541 Ry
     estimated scf accuracy    <          3.3E-09 Ry

     iteration # 16     ecut=    50.00 Ry     beta=0.60
     Davidson diagonalization with overlap
     ethr =  2.32E-12,  avg # of iterations =  3.7

     total cpu time spent up to now is     1261.8 secs

     total energy              =    -234.57532541 Ry
     Harris-Foulkes estimate   =    -234.57532541 Ry
     estimated scf accuracy    <          4.0E-11 Ry

     iteration # 17     ecut=    50.00 Ry     beta=0.60
     Davidson diagonalization with overlap
     ethr =  1.60E-13,  avg # of iterations =  3.2

     total cpu time spent up to now is     1267.2 secs

     total energy              =    -234.57532541 Ry
     Harris-Foulkes estimate   =    -234.57532541 Ry
     estimated scf accuracy    <          2.0E-11 Ry

     iteration # 18     ecut=    50.00 Ry     beta=0.60
     Davidson diagonalization with overlap
     ethr =  1.00E-13,  avg # of iterations =  1.2

     total cpu time spent up to now is     1271.5 secs

     total energy              =    -234.57532541 Ry
     Harris-Foulkes estimate   =    -234.57532541 Ry
     estimated scf accuracy    <          1.5E-12 Ry

     iteration # 19     ecut=    50.00 Ry     beta=0.60
     Davidson diagonalization with overlap
     ethr =  1.00E-13,  avg # of iterations =  1.5

     total cpu time spent up to now is     1275.9 secs

     End of self-consistent calculation

     Number of k-points >= 100: set verbosity='high' to print the bands.

     the Fermi energy is    15.9294 ev

!    total energy              =    -234.57532541 Ry
     Harris-Foulkes estimate   =    -234.57532541 Ry
     estimated scf accuracy    <          5.0E-14 Ry

     The total energy is the sum of the following terms:

     one-electron contribution =     -56.08068942 Ry
     hartree contribution      =      38.99468484 Ry
     xc contribution           =     -32.99878215 Ry
     ewald contribution        =    -184.48934747 Ry
     smearing contrib. (-TS)   =      -0.00119122 Ry

     convergence has been achieved in  19 iterations

     Forces acting on atoms (Ry/au):

     atom    1 type  2   force =     0.00000000    0.00000000    0.00000000
     atom    2 type  1   force =     0.00000000    0.00000000    0.00000000

     Total force =     0.000000     Total SCF correction =     0.000000


     entering subroutine stress ...

          total   stress  (Ry/bohr**3)                   (kbar)     P=   -0.75
  -0.00000512   0.00000000   0.00000000         -0.75      0.00      0.00
   0.00000000  -0.00000512   0.00000000          0.00     -0.75      0.00
   0.00000000   0.00000000  -0.00000512          0.00      0.00     -0.75


     init_run     :      5.94s CPU      6.25s WALL (       2 calls)
     electrons    :   1169.61s CPU   1225.03s WALL (       9 calls)
     update_pot   :      9.66s CPU      9.70s WALL (       7 calls)
     forces       :     10.12s CPU     10.47s WALL (       9 calls)
     stress       :     24.25s CPU     24.97s WALL (       9 calls)

     Called by init_run:
     wfcinit      :      4.13s CPU      4.34s WALL (       2 calls)
     potinit      :      0.45s CPU      0.45s WALL (       2 calls)

     Called by electrons:
     c_bands      :    979.72s CPU   1015.86s WALL (     211 calls)
     sum_band     :    165.00s CPU    177.76s WALL (     211 calls)
     v_of_rho     :      5.31s CPU      5.63s WALL (     217 calls)
     newd         :     19.13s CPU     25.50s WALL (     217 calls)
     mix_rho      :      0.80s CPU      0.83s WALL (     211 calls)

     Called by c_bands:
     init_us_2    :     19.45s CPU     20.14s WALL (   72930 calls)
     cegterg      :    943.67s CPU    978.79s WALL (   34815 calls)

     Called by sum_band:
     sum_band:bec :      0.92s CPU      0.97s WALL (   34815 calls)
     addusdens    :     19.06s CPU     25.64s WALL (     211 calls)

     Called by *egterg:
     h_psi        :    664.99s CPU    691.57s WALL (  131102 calls)
     s_psi        :     36.60s CPU     37.95s WALL (  131102 calls)
     g_psi        :      2.84s CPU      2.92s WALL (   95957 calls)
     cdiaghg      :     79.07s CPU     81.38s WALL (  129122 calls)

     Called by h_psi:
     h_psi:pot    :    660.86s CPU    687.26s WALL (  131102 calls)
     h_psi:calbec :     51.46s CPU     53.68s WALL (  131102 calls)
     vloc_psi     :    572.10s CPU    594.84s WALL (  131102 calls)
     add_vuspsi   :     36.80s CPU     38.27s WALL (  131102 calls)

     General routines
     calbec       :     69.65s CPU     72.65s WALL (  173342 calls)
     fft          :      2.97s CPU      3.07s WALL (    3680 calls)
     ffts         :      0.11s CPU      0.11s WALL (     428 calls)
     fftw         :    629.11s CPU    654.66s WALL ( 3528509 calls)
     interpolate  :      0.54s CPU      0.56s WALL (     428 calls)

     Parallel routines
     fft_scatter  :    101.69s CPU    106.51s WALL ( 3532617 calls)

     PWSCF        : 20m20.61s CPU    21m17.70s WALL


   This run was terminated on:  12:47:26  26Apr2018            

=------------------------------------------------------------------------------=
   JOB DONE.
=------------------------------------------------------------------------------=
