
     Program PWSCF v.6.3MaX starts on  4Feb2020 at 12: 8:10 

     This program is part of the open-source Quantum ESPRESSO suite
     for quantum simulation of materials; please cite
         "P. Giannozzi et al., J. Phys.:Condens. Matter 21 395502 (2009);
         "P. Giannozzi et al., J. Phys.:Condens. Matter 29 465901 (2017);
          URL http://www.quantum-espresso.org", 
     in publications or presentations arising from this work. More details at
     http://www.quantum-espresso.org/quote

     Parallel version (MPI), running on     4 processors

     MPI processes distributed on     1 nodes
     R & G space division:  proc/nbgrp/npool/nimage =       4
     Waiting for input...
     Reading input from standard input

     Current dimensions of program PWSCF are:
     Max number of different atomic species (ntypx) = 10
     Max number of k-points (npk) =  40000
     Max angular momentum in pseudopotentials (lmaxx) =  3
     Message from routine iosys:
     minimal I/O required, wf_collect reset to FALSE

     Subspace diagonalization in iterative solution of the eigenvalue problem:
     a serial algorithm will be used

 
     Parallelization info
     --------------------
     sticks:   dense  smooth     PW     G-vecs:    dense   smooth      PW
     Min         933     372    112                41575    10499    1732
     Max         934     373    113                41578    10500    1735
     Sum        3735    1489    451               166309    41999    6933
 


     bravais-lattice index     =            0
     lattice parameter (alat)  =       1.8897  a.u.
     unit-cell volume          =     880.0102 (a.u.)^3
     number of atoms/cell      =            6
     number of atomic types    =            2
     number of electrons       =        74.00
     number of Kohn-Sham states=           44
     kinetic-energy cutoff     =      50.0000  Ry
     charge density cutoff     =     500.0000  Ry
     convergence threshold     =      1.0E-10
     mixing beta               =       0.6000
     number of iterations used =            8  plain     mixing
     Exchange-correlation      = SLA PW PBE PBE ( 1  4  3  4 0 0)
     nstep                     =           50


     celldm(1)=   1.889726  celldm(2)=   0.000000  celldm(3)=   0.000000
     celldm(4)=   0.000000  celldm(5)=   0.000000  celldm(6)=   0.000000

     crystal axes: (cart. coord. in units of alat)
               a(1) = (   5.274095  -1.758031  -1.758031 )  
               a(2) = (  -5.274095  -1.758031  -1.758031 )  
               a(3) = (   0.000000   3.516063  -3.516063 )  

     reciprocal axes: (cart. coord. in units 2 pi/alat)
               b(1) = (  0.094803 -0.142205 -0.142205 )  
               b(2) = ( -0.094803 -0.142205 -0.142205 )  
               b(3) = (  0.000000  0.142205 -0.142205 )  


     PseudoPot. # 1 for Nb read from file:
     ./Nb.pbe-nsp-van.UPF
     MD5 check sum: 0a22fc7fb0ba19a08ca5db297a5d2854
     Pseudo is Ultrasoft + core correction, Zval = 13.0
     Generated by new atomic code, or converted to UPF format
     Using radial grid of  887 points,  6 beta functions with: 
                l(1) =   0
                l(2) =   0
                l(3) =   1
                l(4) =   1
                l(5) =   2
                l(6) =   2
     Q(r) pseudized with  6 coefficients,  rinner =    1.000   1.000   1.000
                                                       1.000   1.000

     PseudoPot. # 2 for Ti read from file:
     ./Ti.pbe-sp-van_ak.UPF
     MD5 check sum: f98fea3e8887528921fefa5636a534ca
     Pseudo is Ultrasoft, Zval = 12.0
     Generated by new atomic code, or converted to UPF format
     Using radial grid of  851 points,  6 beta functions with: 
                l(1) =   0
                l(2) =   0
                l(3) =   1
                l(4) =   1
                l(5) =   2
                l(6) =   2
     Q(r) pseudized with  8 coefficients,  rinner =    1.000   1.000   1.000
                                                       1.000   1.000

     atomic species   valence    mass     pseudopotential
        Nb            13.00    92.90638     Nb( 1.00)
        Ti            12.00    47.86700     Ti( 1.00)

      4 Sym. Ops. (no inversion) found
          (note:  4 additional sym.ops. were found but ignored
           their fractional translations are incommensurate with FFT grid)


   Cartesian axes

     site n.     atom                  positions (alat units)
         1           Ti  tau(   1) = (   3.5160633   0.0000000  -3.5160633  )
         2           Ti  tau(   2) = (   0.0000000   0.0000000  -7.0321265  )
         3           Nb  tau(   3) = (  -3.5160633   0.0000000  -3.5160633  )
         4           Ti  tau(   4) = (  -1.7580316   1.7580316  -5.2740949  )
         5           Ti  tau(   5) = (   1.7580316   1.7580316  -5.2740949  )
         6           Nb  tau(   6) = (   0.0000000   0.0000000  -3.5160633  )

     number of k points=   252  Marzari-Vanderbilt smearing, width (Ry)=  0.0200

     Number of k-points >= 100: set verbosity='high' to print them.

     Dense  grid:   166309 G-vectors     FFT dimensions: (  80,  80,  72)

     Smooth grid:    41999 G-vectors     FFT dimensions: (  50,  50,  45)

     Estimated max dynamical RAM per process >     382.08 MB

     Estimated total dynamical RAM >       1.49 GB

     Initial potential from superposition of free atoms

     starting charge   69.99436, renormalised to   74.00000
     Starting wfcs are   66 randomized atomic wfcs

     total cpu time spent up to now is       20.0 secs

     Self-consistent Calculation

     iteration #  1     ecut=    50.00 Ry     beta= 0.60
     Davidson diagonalization with overlap
     ethr =  1.00E-02,  avg # of iterations =  3.7

     total cpu time spent up to now is       65.3 secs

     total energy              =    -695.14559428 Ry
     Harris-Foulkes estimate   =    -704.69205557 Ry
     estimated scf accuracy    <      12.24413651 Ry

     iteration #  2     ecut=    50.00 Ry     beta= 0.60
     Davidson diagonalization with overlap
     ethr =  1.00E-02,  avg # of iterations =  5.4

     total cpu time spent up to now is      127.8 secs

     total energy              =    -697.34667658 Ry
     Harris-Foulkes estimate   =    -718.50475379 Ry
     estimated scf accuracy    <      70.04244221 Ry

     iteration #  3     ecut=    50.00 Ry     beta= 0.60
     Davidson diagonalization with overlap
     ethr =  1.00E-02,  avg # of iterations =  5.2

     total cpu time spent up to now is      176.9 secs

     total energy              =    -702.05144674 Ry
     Harris-Foulkes estimate   =    -703.62686360 Ry
     estimated scf accuracy    <      21.21255165 Ry

     iteration #  4     ecut=    50.00 Ry     beta= 0.60
     Davidson diagonalization with overlap
     ethr =  1.00E-02,  avg # of iterations =  2.2

     total cpu time spent up to now is      209.5 secs

     total energy              =    -702.65173475 Ry
     Harris-Foulkes estimate   =    -702.49959733 Ry
     estimated scf accuracy    <       5.34030715 Ry

     iteration #  5     ecut=    50.00 Ry     beta= 0.60
     Davidson diagonalization with overlap
     ethr =  7.22E-03,  avg # of iterations =  1.2

     total cpu time spent up to now is      240.3 secs

     total energy              =    -701.95383247 Ry
     Harris-Foulkes estimate   =    -702.69580404 Ry
     estimated scf accuracy    <       5.33117562 Ry

     iteration #  6     ecut=    50.00 Ry     beta= 0.60
     Davidson diagonalization with overlap
     ethr =  7.20E-03,  avg # of iterations =  3.0

     total cpu time spent up to now is      275.0 secs

     total energy              =    -701.76154913 Ry
     Harris-Foulkes estimate   =    -702.20405342 Ry
     estimated scf accuracy    <       1.20608697 Ry

     iteration #  7     ecut=    50.00 Ry     beta= 0.60
     Davidson diagonalization with overlap
     ethr =  1.63E-03,  avg # of iterations =  6.0

     total cpu time spent up to now is      335.8 secs

     total energy              =    -701.56331505 Ry
     Harris-Foulkes estimate   =    -703.25486035 Ry
     estimated scf accuracy    <      21.61121411 Ry

     iteration #  8     ecut=    50.00 Ry     beta= 0.60
     Davidson diagonalization with overlap
     ethr =  1.63E-03,  avg # of iterations =  5.6

     total cpu time spent up to now is      383.0 secs

     total energy              =    -702.31960003 Ry
     Harris-Foulkes estimate   =    -702.35604991 Ry
     estimated scf accuracy    <       0.69391605 Ry

     iteration #  9     ecut=    50.00 Ry     beta= 0.60
     Davidson diagonalization with overlap
     ethr =  9.38E-04,  avg # of iterations =  2.5

     total cpu time spent up to now is      416.2 secs

     total energy              =    -702.35166865 Ry
     Harris-Foulkes estimate   =    -702.33269526 Ry
     estimated scf accuracy    <       0.31613314 Ry

     iteration # 10     ecut=    50.00 Ry     beta= 0.60
     Davidson diagonalization with overlap
     ethr =  4.27E-04,  avg # of iterations =  2.8

     total cpu time spent up to now is      450.3 secs

     total energy              =    -702.40633848 Ry
     Harris-Foulkes estimate   =    -702.38377515 Ry
     estimated scf accuracy    <       1.18972464 Ry

     iteration # 11     ecut=    50.00 Ry     beta= 0.60
     Davidson diagonalization with overlap
     ethr =  4.27E-04,  avg # of iterations =  2.5

     total cpu time spent up to now is      483.7 secs

     total energy              =    -702.39444173 Ry
     Harris-Foulkes estimate   =    -702.42107054 Ry
     estimated scf accuracy    <       1.79918646 Ry

     iteration # 12     ecut=    50.00 Ry     beta= 0.60
     Davidson diagonalization with overlap
     ethr =  4.27E-04,  avg # of iterations =  1.1

     total cpu time spent up to now is      514.5 secs

     total energy              =    -702.20655425 Ry
     Harris-Foulkes estimate   =    -702.40032719 Ry
     estimated scf accuracy    <       1.47824826 Ry

     iteration # 13     ecut=    50.00 Ry     beta= 0.60
     Davidson diagonalization with overlap
     ethr =  4.27E-04,  avg # of iterations =  6.1

     total cpu time spent up to now is      563.6 secs

     total energy              =    -702.33978790 Ry
     Harris-Foulkes estimate   =    -702.33638365 Ry
     estimated scf accuracy    <       0.26021667 Ry

     iteration # 14     ecut=    50.00 Ry     beta= 0.60
     Davidson diagonalization with overlap
     ethr =  3.52E-04,  avg # of iterations =  1.6

     total cpu time spent up to now is      595.3 secs

     total energy              =    -702.30286925 Ry
     Harris-Foulkes estimate   =    -702.34313325 Ry
     estimated scf accuracy    <       0.35063407 Ry

     iteration # 15     ecut=    50.00 Ry     beta= 0.60
     Davidson diagonalization with overlap
     ethr =  3.52E-04,  avg # of iterations =  1.0

     total cpu time spent up to now is      625.9 secs

     total energy              =    -702.30992974 Ry
     Harris-Foulkes estimate   =    -702.31598921 Ry
     estimated scf accuracy    <       0.06204853 Ry

     iteration # 16     ecut=    50.00 Ry     beta= 0.60
     Davidson diagonalization with overlap
     ethr =  8.38E-05,  avg # of iterations =  5.3

     total cpu time spent up to now is      672.7 secs

     total energy              =    -702.32009901 Ry
     Harris-Foulkes estimate   =    -702.32089486 Ry
     estimated scf accuracy    <       0.02680387 Ry

     iteration # 17     ecut=    50.00 Ry     beta= 0.60
     Davidson diagonalization with overlap
     ethr =  3.62E-05,  avg # of iterations =  2.1

     total cpu time spent up to now is      705.7 secs

     total energy              =    -702.31817157 Ry
     Harris-Foulkes estimate   =    -702.32111628 Ry
     estimated scf accuracy    <       0.02736338 Ry

     iteration # 18     ecut=    50.00 Ry     beta= 0.60
     Davidson diagonalization with overlap
     ethr =  3.62E-05,  avg # of iterations =  1.0

     total cpu time spent up to now is      736.5 secs

     total energy              =    -702.31808826 Ry
     Harris-Foulkes estimate   =    -702.31901983 Ry
     estimated scf accuracy    <       0.00958575 Ry

     iteration # 19     ecut=    50.00 Ry     beta= 0.60
     Davidson diagonalization with overlap
     ethr =  1.30E-05,  avg # of iterations =  3.9

     total cpu time spent up to now is      777.4 secs

     total energy              =    -702.31893803 Ry
     Harris-Foulkes estimate   =    -702.31896448 Ry
     estimated scf accuracy    <       0.00014273 Ry

     iteration # 20     ecut=    50.00 Ry     beta= 0.60
     Davidson diagonalization with overlap
     ethr =  1.93E-07,  avg # of iterations =  7.9

     total cpu time spent up to now is      844.4 secs

     total energy              =    -702.31906024 Ry
     Harris-Foulkes estimate   =    -702.31910286 Ry
     estimated scf accuracy    <       0.00024391 Ry

     iteration # 21     ecut=    50.00 Ry     beta= 0.60
     Davidson diagonalization with overlap
     ethr =  1.93E-07,  avg # of iterations =  4.3

     total cpu time spent up to now is      884.7 secs

     total energy              =    -702.31908026 Ry
     Harris-Foulkes estimate   =    -702.31909511 Ry
     estimated scf accuracy    <       0.00012889 Ry

     iteration # 22     ecut=    50.00 Ry     beta= 0.60
     Davidson diagonalization with overlap
     ethr =  1.74E-07,  avg # of iterations =  1.0

     total cpu time spent up to now is      915.8 secs

     total energy              =    -702.31908447 Ry
     Harris-Foulkes estimate   =    -702.31908916 Ry
     estimated scf accuracy    <       0.00004216 Ry

     iteration # 23     ecut=    50.00 Ry     beta= 0.60
     Davidson diagonalization with overlap
     ethr =  5.70E-08,  avg # of iterations =  3.8

     total cpu time spent up to now is      953.5 secs

     total energy              =    -702.31908843 Ry
     Harris-Foulkes estimate   =    -702.31908853 Ry
     estimated scf accuracy    <       0.00000069 Ry

     iteration # 24     ecut=    50.00 Ry     beta= 0.60
     Davidson diagonalization with overlap
     ethr =  9.32E-10,  avg # of iterations =  5.8

     total cpu time spent up to now is     1007.7 secs

     total energy              =    -702.31908904 Ry
     Harris-Foulkes estimate   =    -702.31908908 Ry
     estimated scf accuracy    <       0.00000024 Ry

     iteration # 25     ecut=    50.00 Ry     beta= 0.60
     Davidson diagonalization with overlap
     ethr =  3.20E-10,  avg # of iterations =  1.7

     total cpu time spent up to now is     1039.6 secs

     total energy              =    -702.31908905 Ry
     Harris-Foulkes estimate   =    -702.31908906 Ry
     estimated scf accuracy    <       0.00000005 Ry

     iteration # 26     ecut=    50.00 Ry     beta= 0.60
     Davidson diagonalization with overlap
     ethr =  7.21E-11,  avg # of iterations =  4.9

     total cpu time spent up to now is     1088.8 secs

     total energy              =    -702.31908905 Ry
     Harris-Foulkes estimate   =    -702.31908907 Ry
     estimated scf accuracy    <       0.00000019 Ry

     iteration # 27     ecut=    50.00 Ry     beta= 0.60
     Davidson diagonalization with overlap
     ethr =  7.21E-11,  avg # of iterations =  3.9

     total cpu time spent up to now is     1129.0 secs

     total energy              =    -702.31908906 Ry
     Harris-Foulkes estimate   =    -702.31908906 Ry
     estimated scf accuracy    <       0.00000002 Ry

     iteration # 28     ecut=    50.00 Ry     beta= 0.60
     Davidson diagonalization with overlap
     ethr =  3.13E-11,  avg # of iterations =  4.4

     total cpu time spent up to now is     1171.3 secs

     total energy              =    -702.31908906 Ry
     Harris-Foulkes estimate   =    -702.31908906 Ry
     estimated scf accuracy    <       0.00000004 Ry

     iteration # 29     ecut=    50.00 Ry     beta= 0.60
     Davidson diagonalization with overlap
     ethr =  3.13E-11,  avg # of iterations =  1.0

     total cpu time spent up to now is     1202.1 secs

     total energy              =    -702.31908906 Ry
     Harris-Foulkes estimate   =    -702.31908906 Ry
     estimated scf accuracy    <          5.3E-09 Ry

     iteration # 30     ecut=    50.00 Ry     beta= 0.60
     Davidson diagonalization with overlap
     ethr =  7.10E-12,  avg # of iterations =  4.5

     total cpu time spent up to now is     1248.5 secs

     total energy              =    -702.31908906 Ry
     Harris-Foulkes estimate   =    -702.31908906 Ry
     estimated scf accuracy    <          3.1E-09 Ry

     iteration # 31     ecut=    50.00 Ry     beta= 0.60
     Davidson diagonalization with overlap
     ethr =  4.14E-12,  avg # of iterations =  1.0

     total cpu time spent up to now is     1279.5 secs

     total energy              =    -702.31908906 Ry
     Harris-Foulkes estimate   =    -702.31908906 Ry
     estimated scf accuracy    <          1.4E-09 Ry

     iteration # 32     ecut=    50.00 Ry     beta= 0.60
     Davidson diagonalization with overlap
     ethr =  1.94E-12,  avg # of iterations =  1.2

     total cpu time spent up to now is     1311.0 secs

     total energy              =    -702.31908906 Ry
     Harris-Foulkes estimate   =    -702.31908906 Ry
     estimated scf accuracy    <          3.9E-10 Ry

     iteration # 33     ecut=    50.00 Ry     beta= 0.60
     Davidson diagonalization with overlap
     ethr =  5.31E-13,  avg # of iterations =  4.6

     total cpu time spent up to now is     1356.7 secs

     total energy              =    -702.31908906 Ry
     Harris-Foulkes estimate   =    -702.31908906 Ry
     estimated scf accuracy    <          1.4E-10 Ry

     iteration # 34     ecut=    50.00 Ry     beta= 0.60
     Davidson diagonalization with overlap
     ethr =  1.85E-13,  avg # of iterations =  1.4

     total cpu time spent up to now is     1388.1 secs

     End of self-consistent calculation

     Number of k-points >= 100: set verbosity='high' to print the bands.

     the Fermi energy is    11.4323 ev

!    total energy              =    -702.31908906 Ry
     Harris-Foulkes estimate   =    -702.31908906 Ry
     estimated scf accuracy    <          7.7E-11 Ry

     The total energy is the sum of the following terms:

     one-electron contribution =    -252.70646883 Ry
     hartree contribution      =     144.58274434 Ry
     xc contribution           =     -93.99687205 Ry
     ewald contribution        =    -500.19801904 Ry
     smearing contrib. (-TS)   =      -0.00047348 Ry

     convergence has been achieved in  34 iterations

     Forces acting on atoms (cartesian axes, Ry/au):

     atom    1 type  2   force =    -0.00000751    0.00000000    0.00000000
     atom    2 type  2   force =     0.01016754    0.00000000    0.00000000
     atom    3 type  1   force =    -0.01814103    0.00000000    0.00000000
     atom    4 type  2   force =    -0.00000647    0.00000000    0.00000000
     atom    5 type  2   force =    -0.01015595    0.00000000    0.00000000
     atom    6 type  1   force =     0.01814342    0.00000000    0.00000000

     Total force =     0.029408     Total SCF correction =     0.000017


     Computing stress (Cartesian axis) and pressure

          total   stress  (Ry/bohr**3)                   (kbar)     P= -190.08
  -0.00128985  -0.00000000  -0.00000000       -189.74     -0.00     -0.00
   0.00000000  -0.00129324  -0.00001257          0.00   -190.24     -1.85
   0.00000000  -0.00001257  -0.00129324          0.00     -1.85   -190.24


     BFGS Geometry Optimization

     number of scf cycles    =   1
     number of bfgs steps    =   0

     enthalpy new            =    -702.3190890615 Ry

     new trust radius        =       0.1918283625 bohr
     new conv_thr            =            1.0E-10 Ry

     new unit-cell volume =    797.45500 a.u.^3 (   118.17064 Ang^3 )
     density =      5.30157 g/cm^3

CELL_PARAMETERS (alat=  1.88972599)
   5.104024274  -1.700640180  -1.700640180
  -5.104024274  -1.700640180  -1.700640180
   0.000000000   3.403490329  -3.403490329

ATOMIC_POSITIONS (angstrom)
Ti       3.402679002   0.001104984  -3.402385345
Ti       0.005206931   0.002209968  -6.804770689
Nb      -3.411973110   0.001104984  -3.402385345
Ti      -1.701344740   1.702850148  -5.104130509
Ti       1.696140431   1.702850148  -5.104130509
Nb       0.009291486   0.001104984  -3.402385345


     NEW-OLD atomic charge density approx. for the potential
     extrapolated charge   66.75395, renormalised to   74.00000

     total cpu time spent up to now is     1407.7 secs

     Self-consistent Calculation

     iteration #  1     ecut=    50.00 Ry     beta= 0.60
     Davidson diagonalization with overlap
     c_bands:  1 eigenvalues not converged
     c_bands:  1 eigenvalues not converged
     c_bands:  1 eigenvalues not converged
     c_bands:  1 eigenvalues not converged
     c_bands:  1 eigenvalues not converged
     c_bands:  1 eigenvalues not converged
     c_bands:  3 eigenvalues not converged
     c_bands:  1 eigenvalues not converged
     c_bands:  1 eigenvalues not converged
     c_bands:  1 eigenvalues not converged
     c_bands:  1 eigenvalues not converged
     c_bands:  1 eigenvalues not converged
     c_bands:  1 eigenvalues not converged
     c_bands:  1 eigenvalues not converged
     c_bands:  1 eigenvalues not converged
     c_bands:  1 eigenvalues not converged
     c_bands:  1 eigenvalues not converged
     c_bands:  1 eigenvalues not converged
     c_bands:  2 eigenvalues not converged
     c_bands:  1 eigenvalues not converged
     c_bands:  2 eigenvalues not converged
     c_bands:  1 eigenvalues not converged
     c_bands:  1 eigenvalues not converged
     c_bands:  1 eigenvalues not converged
     c_bands:  2 eigenvalues not converged
     c_bands:  1 eigenvalues not converged
     c_bands:  1 eigenvalues not converged
     c_bands:  1 eigenvalues not converged
     c_bands:  1 eigenvalues not converged
     c_bands:  1 eigenvalues not converged
     c_bands:  1 eigenvalues not converged
     c_bands:  1 eigenvalues not converged
     c_bands:  1 eigenvalues not converged
     c_bands:  1 eigenvalues not converged
     c_bands:  2 eigenvalues not converged
     c_bands:  1 eigenvalues not converged
     c_bands:  1 eigenvalues not converged
     c_bands:  1 eigenvalues not converged
     c_bands:  1 eigenvalues not converged
     c_bands:  1 eigenvalues not converged
     c_bands:  1 eigenvalues not converged
     c_bands:  1 eigenvalues not converged
     c_bands:  1 eigenvalues not converged
     ethr =  1.00E-06,  avg # of iterations = 17.2

     total cpu time spent up to now is     1545.5 secs

     total energy              =    -678.07918420 Ry
     Harris-Foulkes estimate   =    -720.34089495 Ry
     estimated scf accuracy    <      26.50154784 Ry

     iteration #  2     ecut=    50.00 Ry     beta= 0.60
     Davidson diagonalization with overlap
     ethr =  1.00E-02,  avg # of iterations =  5.8

     total cpu time spent up to now is     1615.9 secs

     total energy              =    -701.19953825 Ry
     Harris-Foulkes estimate   =    -736.55788416 Ry
     estimated scf accuracy    <     106.64923701 Ry

     iteration #  3     ecut=    50.00 Ry     beta= 0.60
     Davidson diagonalization with overlap
     ethr =  1.00E-02,  avg # of iterations =  4.6

     total cpu time spent up to now is     1672.5 secs

     total energy              =    -704.16812781 Ry
     Harris-Foulkes estimate   =    -707.90781084 Ry
     estimated scf accuracy    <      17.26213381 Ry

     iteration #  4     ecut=    50.00 Ry     beta= 0.60
     Davidson diagonalization with overlap
     ethr =  1.00E-02,  avg # of iterations =  1.2

     total cpu time spent up to now is     1704.2 secs

     total energy              =    -702.14679471 Ry
     Harris-Foulkes estimate   =    -704.44719240 Ry
     estimated scf accuracy    <      11.30415187 Ry

     iteration #  5     ecut=    50.00 Ry     beta= 0.60
     Davidson diagonalization with overlap
     ethr =  1.00E-02,  avg # of iterations =  2.6

     total cpu time spent up to now is     1739.6 secs

     total energy              =    -703.09889533 Ry
     Harris-Foulkes estimate   =    -702.76817655 Ry
     estimated scf accuracy    <       2.20569442 Ry

     iteration #  6     ecut=    50.00 Ry     beta= 0.60
     Davidson diagonalization with overlap
     ethr =  2.98E-03,  avg # of iterations =  2.3

     total cpu time spent up to now is     1773.0 secs

     total energy              =    -702.96342758 Ry
     Harris-Foulkes estimate   =    -703.25683881 Ry
     estimated scf accuracy    <       4.64264061 Ry

     iteration #  7     ecut=    50.00 Ry     beta= 0.60
     Davidson diagonalization with overlap
     ethr =  2.98E-03,  avg # of iterations =  1.0

     total cpu time spent up to now is     1803.8 secs

     total energy              =    -703.00418361 Ry
     Harris-Foulkes estimate   =    -702.98560580 Ry
     estimated scf accuracy    <       3.76821221 Ry

     iteration #  8     ecut=    50.00 Ry     beta= 0.60
     Davidson diagonalization with overlap
     ethr =  2.98E-03,  avg # of iterations =  1.0

     total cpu time spent up to now is     1835.0 secs

     total energy              =    -703.01288006 Ry
     Harris-Foulkes estimate   =    -703.00992058 Ry
     estimated scf accuracy    <       3.85555298 Ry

     iteration #  9     ecut=    50.00 Ry     beta= 0.60
     Davidson diagonalization with overlap
     ethr =  2.98E-03,  avg # of iterations =  1.0

     total cpu time spent up to now is     1866.1 secs

     total energy              =    -703.02571385 Ry
     Harris-Foulkes estimate   =    -703.01587527 Ry
     estimated scf accuracy    <       3.71307928 Ry

     iteration # 10     ecut=    50.00 Ry     beta= 0.60
     Davidson diagonalization with overlap
     ethr =  2.98E-03,  avg # of iterations =  1.0

     total cpu time spent up to now is     1896.8 secs

     total energy              =    -701.33626709 Ry
     Harris-Foulkes estimate   =    -703.02728113 Ry
     estimated scf accuracy    <       3.74903329 Ry

     iteration # 11     ecut=    50.00 Ry     beta= 0.60
     Davidson diagonalization with overlap
     ethr =  2.98E-03,  avg # of iterations =  5.8

     total cpu time spent up to now is     1957.6 secs

     total energy              =    -702.87184416 Ry
     Harris-Foulkes estimate   =    -703.64471582 Ry
     estimated scf accuracy    <      20.35036376 Ry

     iteration # 12     ecut=    50.00 Ry     beta= 0.60
     Davidson diagonalization with overlap
     ethr =  2.98E-03,  avg # of iterations =  1.0

     total cpu time spent up to now is     1988.6 secs

     total energy              =    -702.81422856 Ry
     Harris-Foulkes estimate   =    -702.94407750 Ry
     estimated scf accuracy    <      13.44874531 Ry

     iteration # 13     ecut=    50.00 Ry     beta= 0.60
     Davidson diagonalization with overlap
     ethr =  2.98E-03,  avg # of iterations =  1.0

     total cpu time spent up to now is     2019.4 secs

     total energy              =    -703.02597584 Ry
     Harris-Foulkes estimate   =    -702.84120570 Ry
     estimated scf accuracy    <      11.31794222 Ry

     iteration # 14     ecut=    50.00 Ry     beta= 0.60
     Davidson diagonalization with overlap
     ethr =  2.98E-03,  avg # of iterations =  1.0

     total cpu time spent up to now is     2050.8 secs

     total energy              =    -701.98325365 Ry
     Harris-Foulkes estimate   =    -703.05749269 Ry
     estimated scf accuracy    <      13.99294776 Ry

     iteration # 15     ecut=    50.00 Ry     beta= 0.60
     Davidson diagonalization with overlap
     ethr =  2.98E-03,  avg # of iterations =  3.8

     total cpu time spent up to now is     2087.9 secs

     total energy              =    -702.35274790 Ry
     Harris-Foulkes estimate   =    -702.47785900 Ry
     estimated scf accuracy    <       2.04880318 Ry

     iteration # 16     ecut=    50.00 Ry     beta= 0.60
     Davidson diagonalization with overlap
     ethr =  2.77E-03,  avg # of iterations =  1.9

     total cpu time spent up to now is     2120.8 secs

     total energy              =    -702.37825623 Ry
     Harris-Foulkes estimate   =    -702.50435693 Ry
     estimated scf accuracy    <       2.38136907 Ry

     iteration # 17     ecut=    50.00 Ry     beta= 0.60
     Davidson diagonalization with overlap
     ethr =  2.77E-03,  avg # of iterations =  1.2

     total cpu time spent up to now is     2152.2 secs

     total energy              =    -702.42663745 Ry
     Harris-Foulkes estimate   =    -702.42418043 Ry
     estimated scf accuracy    <       1.11599612 Ry

     iteration # 18     ecut=    50.00 Ry     beta= 0.60
     Davidson diagonalization with overlap
     ethr =  1.51E-03,  avg # of iterations =  1.4

     total cpu time spent up to now is     2183.3 secs

     total energy              =    -702.36893752 Ry
     Harris-Foulkes estimate   =    -702.44344759 Ry
     estimated scf accuracy    <       1.18707608 Ry

     iteration # 19     ecut=    50.00 Ry     beta= 0.60
     Davidson diagonalization with overlap
     ethr =  1.51E-03,  avg # of iterations =  1.1

     total cpu time spent up to now is     2214.1 secs

     total energy              =    -702.39918977 Ry
     Harris-Foulkes estimate   =    -702.39425941 Ry
     estimated scf accuracy    <       0.38371197 Ry

     iteration # 20     ecut=    50.00 Ry     beta= 0.60
     Davidson diagonalization with overlap
     ethr =  5.19E-04,  avg # of iterations =  4.4

     total cpu time spent up to now is     2252.2 secs

     total energy              =    -702.38120914 Ry
     Harris-Foulkes estimate   =    -702.42124782 Ry
     estimated scf accuracy    <       0.43604621 Ry

     iteration # 21     ecut=    50.00 Ry     beta= 0.60
     Davidson diagonalization with overlap
     ethr =  5.19E-04,  avg # of iterations =  3.6

     total cpu time spent up to now is     2288.8 secs

     total energy              =    -702.40101795 Ry
     Harris-Foulkes estimate   =    -702.40927007 Ry
     estimated scf accuracy    <       0.03253111 Ry

     iteration # 22     ecut=    50.00 Ry     beta= 0.60
     Davidson diagonalization with overlap
     ethr =  4.40E-05,  avg # of iterations =  7.0

     total cpu time spent up to now is     2348.2 secs

     total energy              =    -702.40090872 Ry
     Harris-Foulkes estimate   =    -702.41952611 Ry
     estimated scf accuracy    <       0.13913883 Ry

     iteration # 23     ecut=    50.00 Ry     beta= 0.60
     Davidson diagonalization with overlap
     ethr =  4.40E-05,  avg # of iterations =  4.3

     total cpu time spent up to now is     2393.5 secs

     total energy              =    -702.40926929 Ry
     Harris-Foulkes estimate   =    -702.41077853 Ry
     estimated scf accuracy    <       0.00631028 Ry

     iteration # 24     ecut=    50.00 Ry     beta= 0.60
     Davidson diagonalization with overlap
     ethr =  8.53E-06,  avg # of iterations =  5.9

     total cpu time spent up to now is     2445.1 secs

     total energy              =    -702.40944494 Ry
     Harris-Foulkes estimate   =    -702.41137036 Ry
     estimated scf accuracy    <       0.01418410 Ry

     iteration # 25     ecut=    50.00 Ry     beta= 0.60
     Davidson diagonalization with overlap
     ethr =  8.53E-06,  avg # of iterations =  2.6

     total cpu time spent up to now is     2479.0 secs

     total energy              =    -702.41011180 Ry
     Harris-Foulkes estimate   =    -702.41021631 Ry
     estimated scf accuracy    <       0.00072212 Ry

     iteration # 26     ecut=    50.00 Ry     beta= 0.60
     Davidson diagonalization with overlap
     ethr =  9.76E-07,  avg # of iterations =  6.1

     total cpu time spent up to now is     2534.9 secs

     total energy              =    -702.41043166 Ry
     Harris-Foulkes estimate   =    -702.41056062 Ry
     estimated scf accuracy    <       0.00153524 Ry

     iteration # 27     ecut=    50.00 Ry     beta= 0.60
     Davidson diagonalization with overlap
     ethr =  9.76E-07,  avg # of iterations =  1.0

     total cpu time spent up to now is     2566.0 secs

     total energy              =    -702.41039904 Ry
     Harris-Foulkes estimate   =    -702.41045931 Ry
     estimated scf accuracy    <       0.00061045 Ry

     iteration # 28     ecut=    50.00 Ry     beta= 0.60
     Davidson diagonalization with overlap
     ethr =  8.25E-07,  avg # of iterations =  3.1

     total cpu time spent up to now is     2603.6 secs

     total energy              =    -702.41044101 Ry
     Harris-Foulkes estimate   =    -702.41045941 Ry
     estimated scf accuracy    <       0.00016203 Ry

     iteration # 29     ecut=    50.00 Ry     beta= 0.60
     Davidson diagonalization with overlap
     ethr =  2.19E-07,  avg # of iterations =  2.5

     total cpu time spent up to now is     2637.9 secs

     total energy              =    -702.41044918 Ry
     Harris-Foulkes estimate   =    -702.41045162 Ry
     estimated scf accuracy    <       0.00001025 Ry

     iteration # 30     ecut=    50.00 Ry     beta= 0.60
     Davidson diagonalization with overlap
     ethr =  1.39E-08,  avg # of iterations =  5.3

     total cpu time spent up to now is     2690.7 secs

     total energy              =    -702.41045214 Ry
     Harris-Foulkes estimate   =    -702.41046276 Ry
     estimated scf accuracy    <       0.00010754 Ry

     iteration # 31     ecut=    50.00 Ry     beta= 0.60
     Davidson diagonalization with overlap
     ethr =  1.39E-08,  avg # of iterations =  4.3

     total cpu time spent up to now is     2736.8 secs

     total energy              =    -702.41045530 Ry
     Harris-Foulkes estimate   =    -702.41045666 Ry
     estimated scf accuracy    <       0.00001538 Ry

     iteration # 32     ecut=    50.00 Ry     beta= 0.60
     Davidson diagonalization with overlap
     ethr =  1.39E-08,  avg # of iterations =  1.2

     total cpu time spent up to now is     2768.4 secs

     total energy              =    -702.41045540 Ry
     Harris-Foulkes estimate   =    -702.41045568 Ry
     estimated scf accuracy    <       0.00000320 Ry

     iteration # 33     ecut=    50.00 Ry     beta= 0.60
     Davidson diagonalization with overlap
     ethr =  4.32E-09,  avg # of iterations =  4.1

     total cpu time spent up to now is     2810.9 secs

     total energy              =    -702.41045584 Ry
     Harris-Foulkes estimate   =    -702.41045588 Ry
     estimated scf accuracy    <       0.00000051 Ry

     iteration # 34     ecut=    50.00 Ry     beta= 0.60
     Davidson diagonalization with overlap
     ethr =  6.88E-10,  avg # of iterations =  2.3

     total cpu time spent up to now is     2844.9 secs

     total energy              =    -702.41045584 Ry
     Harris-Foulkes estimate   =    -702.41045587 Ry
     estimated scf accuracy    <       0.00000036 Ry

     iteration # 35     ecut=    50.00 Ry     beta= 0.60
     Davidson diagonalization with overlap
     ethr =  4.85E-10,  avg # of iterations =  1.1

     total cpu time spent up to now is     2876.3 secs

     total energy              =    -702.41045584 Ry
     Harris-Foulkes estimate   =    -702.41045585 Ry
     estimated scf accuracy    <       0.00000018 Ry

     iteration # 36     ecut=    50.00 Ry     beta= 0.60
     Davidson diagonalization with overlap
     ethr =  2.50E-10,  avg # of iterations =  3.3

     total cpu time spent up to now is     2912.9 secs

     total energy              =    -702.41045584 Ry
     Harris-Foulkes estimate   =    -702.41045585 Ry
     estimated scf accuracy    <       0.00000007 Ry

     iteration # 37     ecut=    50.00 Ry     beta= 0.60
     Davidson diagonalization with overlap
     ethr =  9.69E-11,  avg # of iterations =  4.0

     total cpu time spent up to now is     2954.4 secs

     total energy              =    -702.41045585 Ry
     Harris-Foulkes estimate   =    -702.41045585 Ry
     estimated scf accuracy    <       0.00000003 Ry

     iteration # 38     ecut=    50.00 Ry     beta= 0.60
     Davidson diagonalization with overlap
     ethr =  3.98E-11,  avg # of iterations =  1.2

     total cpu time spent up to now is     2985.9 secs

     total energy              =    -702.41045585 Ry
     Harris-Foulkes estimate   =    -702.41045585 Ry
     estimated scf accuracy    <          9.2E-09 Ry

     iteration # 39     ecut=    50.00 Ry     beta= 0.60
     Davidson diagonalization with overlap
     ethr =  1.25E-11,  avg # of iterations =  3.9

     total cpu time spent up to now is     3030.2 secs

     total energy              =    -702.41045585 Ry
     Harris-Foulkes estimate   =    -702.41045585 Ry
     estimated scf accuracy    <          2.5E-09 Ry

     iteration # 40     ecut=    50.00 Ry     beta= 0.60
     Davidson diagonalization with overlap
     ethr =  3.40E-12,  avg # of iterations =  2.4

     total cpu time spent up to now is     3064.1 secs

     total energy              =    -702.41045585 Ry
     Harris-Foulkes estimate   =    -702.41045585 Ry
     estimated scf accuracy    <          5.7E-10 Ry

     iteration # 41     ecut=    50.00 Ry     beta= 0.60
     Davidson diagonalization with overlap
     ethr =  7.74E-13,  avg # of iterations =  3.4

     total cpu time spent up to now is     3102.1 secs

     total energy              =    -702.41045585 Ry
     Harris-Foulkes estimate   =    -702.41045585 Ry
     estimated scf accuracy    <          5.7E-10 Ry

     iteration # 42     ecut=    50.00 Ry     beta= 0.60
     Davidson diagonalization with overlap
     ethr =  7.69E-13,  avg # of iterations =  1.1

     total cpu time spent up to now is     3133.5 secs

     total energy              =    -702.41045585 Ry
     Harris-Foulkes estimate   =    -702.41045585 Ry
     estimated scf accuracy    <          1.7E-10 Ry

     iteration # 43     ecut=    50.00 Ry     beta= 0.60
     Davidson diagonalization with overlap
     ethr =  2.35E-13,  avg # of iterations =  4.0

     total cpu time spent up to now is     3176.1 secs

     End of self-consistent calculation

     Number of k-points >= 100: set verbosity='high' to print the bands.

     the Fermi energy is    12.9055 ev

!    total energy              =    -702.41045585 Ry
     Harris-Foulkes estimate   =    -702.41045585 Ry
     estimated scf accuracy    <          7.4E-12 Ry

     The total energy is the sum of the following terms:

     one-electron contribution =    -227.83328683 Ry
     hartree contribution      =     136.72041199 Ry
     xc contribution           =     -94.42784250 Ry
     ewald contribution        =    -516.86922742 Ry
     smearing contrib. (-TS)   =      -0.00051109 Ry

     convergence has been achieved in  43 iterations

     Forces acting on atoms (cartesian axes, Ry/au):

     atom    1 type  2   force =     0.00000067    0.00000000    0.00000000
     atom    2 type  2   force =     0.00672500    0.00000000    0.00000000
     atom    3 type  1   force =    -0.01636249    0.00000000    0.00000000
     atom    4 type  2   force =    -0.00000387    0.00000000    0.00000000
     atom    5 type  2   force =    -0.00672193    0.00000000    0.00000000
     atom    6 type  1   force =     0.01636261    0.00000000    0.00000000

     Total force =     0.025018     Total SCF correction =     0.000004


     Computing stress (Cartesian axis) and pressure

          total   stress  (Ry/bohr**3)                   (kbar)     P= -126.86
  -0.00086104   0.00000000   0.00000000       -126.66      0.00      0.00
   0.00000000  -0.00086307  -0.00001054          0.00   -126.96     -1.55
   0.00000000  -0.00001054  -0.00086307          0.00     -1.55   -126.96


     number of scf cycles    =   2
     number of bfgs steps    =   1

     enthalpy old            =    -702.3190890615 Ry
     enthalpy new            =    -702.4104558528 Ry

     CASE: enthalpy_new < enthalpy_old

     new trust radius        =       0.2830670235 bohr
     new conv_thr            =            1.0E-10 Ry

     new unit-cell volume =    683.56006 a.u.^3 (   101.29315 Ang^3 )
     density =      6.18491 g/cm^3

CELL_PARAMETERS (alat=  1.88972599)
   4.848882273  -1.614316566  -1.614316566
  -4.848882273  -1.614316566  -1.614316566
   0.000000000   3.235115868  -3.235115868

ATOMIC_POSITIONS (angstrom)
Ti       3.232585276   0.003241368  -3.231874500
Ti       0.012545590   0.006482735  -6.463749001
Nb      -3.259895412   0.003241368  -3.231874500
Ti      -1.616301610   1.620799302  -4.849432434
Ti       1.603757619   1.620799302  -4.849432434
Nb       0.027308536   0.003241368  -3.231874500


     NEW-OLD atomic charge density approx. for the potential
     extrapolated charge   62.33752, renormalised to   74.00000

     total cpu time spent up to now is     3196.4 secs

     Self-consistent Calculation

     iteration #  1     ecut=    50.00 Ry     beta= 0.60
     Davidson diagonalization with overlap
     c_bands:  3 eigenvalues not converged
     ethr =  1.00E-06,  avg # of iterations = 13.6

     total cpu time spent up to now is     3326.1 secs

     total energy              =    -658.69700600 Ry
     Harris-Foulkes estimate   =    -728.63682088 Ry
     estimated scf accuracy    <      47.60926125 Ry

     iteration #  2     ecut=    50.00 Ry     beta= 0.60
     Davidson diagonalization with overlap
     ethr =  1.00E-02,  avg # of iterations =  7.1

     total cpu time spent up to now is     3403.8 secs

     total energy              =    -695.57543964 Ry
     Harris-Foulkes estimate   =    -754.90261781 Ry
     estimated scf accuracy    <     172.39750556 Ry

     iteration #  3     ecut=    50.00 Ry     beta= 0.60
     Davidson diagonalization with overlap
     ethr =  1.00E-02,  avg # of iterations =  4.8

     total cpu time spent up to now is     3464.2 secs

     total energy              =    -704.95351355 Ry
     Harris-Foulkes estimate   =    -710.08603839 Ry
     estimated scf accuracy    <      22.29137256 Ry

     iteration #  4     ecut=    50.00 Ry     beta= 0.60
     Davidson diagonalization with overlap
     ethr =  1.00E-02,  avg # of iterations =  1.2

     total cpu time spent up to now is     3495.6 secs

     total energy              =    -702.04642210 Ry
     Harris-Foulkes estimate   =    -705.33807817 Ry
     estimated scf accuracy    <      13.57389065 Ry

     iteration #  5     ecut=    50.00 Ry     beta= 0.60
     Davidson diagonalization with overlap
     ethr =  1.00E-02,  avg # of iterations =  2.9

     total cpu time spent up to now is     3534.8 secs

     total energy              =    -703.28124027 Ry
     Harris-Foulkes estimate   =    -703.01517638 Ry
     estimated scf accuracy    <       2.21537363 Ry

     iteration #  6     ecut=    50.00 Ry     beta= 0.60
     Davidson diagonalization with overlap
     ethr =  2.99E-03,  avg # of iterations =  2.3

     total cpu time spent up to now is     3570.0 secs

     total energy              =    -703.26525446 Ry
     Harris-Foulkes estimate   =    -703.51015284 Ry
     estimated scf accuracy    <       4.46323692 Ry

     iteration #  7     ecut=    50.00 Ry     beta= 0.60
     Davidson diagonalization with overlap
     ethr =  2.99E-03,  avg # of iterations =  1.0

     total cpu time spent up to now is     3600.8 secs

     total energy              =    -703.10075984 Ry
     Harris-Foulkes estimate   =    -703.29089828 Ry
     estimated scf accuracy    <       4.08983654 Ry

     iteration #  8     ecut=    50.00 Ry     beta= 0.60
     Davidson diagonalization with overlap
     ethr =  2.99E-03,  avg # of iterations =  1.0

     total cpu time spent up to now is     3632.5 secs

     total energy              =    -702.66496369 Ry
     Harris-Foulkes estimate   =    -703.11266025 Ry
     estimated scf accuracy    <       3.53830339 Ry

     iteration #  9     ecut=    50.00 Ry     beta= 0.60
     Davidson diagonalization with overlap
     ethr =  2.99E-03,  avg # of iterations =  1.1

     total cpu time spent up to now is     3663.2 secs

     total energy              =    -702.57004664 Ry
     Harris-Foulkes estimate   =    -702.70849728 Ry
     estimated scf accuracy    <       1.85427316 Ry

     iteration # 10     ecut=    50.00 Ry     beta= 0.60
     Davidson diagonalization with overlap
     ethr =  2.51E-03,  avg # of iterations =  1.2

     total cpu time spent up to now is     3694.1 secs

     total energy              =    -702.00635133 Ry
     Harris-Foulkes estimate   =    -702.59784980 Ry
     estimated scf accuracy    <       1.14648677 Ry

     iteration # 11     ecut=    50.00 Ry     beta= 0.60
     Davidson diagonalization with overlap
     ethr =  1.55E-03,  avg # of iterations =  5.4

     total cpu time spent up to now is     3749.0 secs

     total energy              =    -702.69083872 Ry
     Harris-Foulkes estimate   =    -702.87003118 Ry
     estimated scf accuracy    <       5.59884299 Ry

     iteration # 12     ecut=    50.00 Ry     beta= 0.60
     Davidson diagonalization with overlap
     ethr =  1.55E-03,  avg # of iterations =  1.0

     total cpu time spent up to now is     3779.6 secs

     total energy              =    -702.71161731 Ry
     Harris-Foulkes estimate   =    -702.70818413 Ry
     estimated scf accuracy    <       4.13229495 Ry

     iteration # 13     ecut=    50.00 Ry     beta= 0.60
     Davidson diagonalization with overlap
     ethr =  1.55E-03,  avg # of iterations =  1.0

     total cpu time spent up to now is     3810.9 secs

     total energy              =    -703.05739881 Ry
     Harris-Foulkes estimate   =    -702.71410674 Ry
     estimated scf accuracy    <       4.16047056 Ry

     iteration # 14     ecut=    50.00 Ry     beta= 0.60
     Davidson diagonalization with overlap
     ethr =  1.55E-03,  avg # of iterations =  1.0

     total cpu time spent up to now is     3843.1 secs

     total energy              =    -703.33093228 Ry
     Harris-Foulkes estimate   =    -703.10616671 Ry
     estimated scf accuracy    <       7.22324658 Ry

     iteration # 15     ecut=    50.00 Ry     beta= 0.60
     Davidson diagonalization with overlap
     ethr =  1.55E-03,  avg # of iterations =  2.3

     total cpu time spent up to now is     3877.3 secs

     total energy              =    -703.35895702 Ry
     Harris-Foulkes estimate   =    -703.38233700 Ry
     estimated scf accuracy    <      10.95451781 Ry

     iteration # 16     ecut=    50.00 Ry     beta= 0.60
     Davidson diagonalization with overlap
     ethr =  1.55E-03,  avg # of iterations =  1.0

     total cpu time spent up to now is     3908.1 secs

     total energy              =    -702.67918223 Ry
     Harris-Foulkes estimate   =    -703.36673288 Ry
     estimated scf accuracy    <      10.94498692 Ry

     iteration # 17     ecut=    50.00 Ry     beta= 0.60
     Davidson diagonalization with overlap
     ethr =  1.55E-03,  avg # of iterations =  1.4

     total cpu time spent up to now is     3941.8 secs

     total energy              =    -702.07817553 Ry
     Harris-Foulkes estimate   =    -702.75678762 Ry
     estimated scf accuracy    <       6.31066885 Ry

     iteration # 18     ecut=    50.00 Ry     beta= 0.60
     Davidson diagonalization with overlap
     ethr =  1.55E-03,  avg # of iterations =  4.2

     total cpu time spent up to now is     3987.8 secs

     total energy              =    -702.45814845 Ry
     Harris-Foulkes estimate   =    -702.46000034 Ry
     estimated scf accuracy    <       0.12907875 Ry

     iteration # 19     ecut=    50.00 Ry     beta= 0.60
     Davidson diagonalization with overlap
     ethr =  1.74E-04,  avg # of iterations =  3.9

     total cpu time spent up to now is     4025.0 secs

     total energy              =    -702.46308582 Ry
     Harris-Foulkes estimate   =    -702.46265203 Ry
     estimated scf accuracy    <       0.11209423 Ry

     iteration # 20     ecut=    50.00 Ry     beta= 0.60
     Davidson diagonalization with overlap
     ethr =  1.51E-04,  avg # of iterations =  1.1

     total cpu time spent up to now is     4056.2 secs

     total energy              =    -702.47402902 Ry
     Harris-Foulkes estimate   =    -702.46577273 Ry
     estimated scf accuracy    <       0.10005504 Ry

     iteration # 21     ecut=    50.00 Ry     beta= 0.60
     Davidson diagonalization with overlap
     ethr =  1.35E-04,  avg # of iterations =  1.4

     total cpu time spent up to now is     4087.7 secs

     total energy              =    -702.43909635 Ry
     Harris-Foulkes estimate   =    -702.47760931 Ry
     estimated scf accuracy    <       0.10170893 Ry

     iteration # 22     ecut=    50.00 Ry     beta= 0.60
     Davidson diagonalization with overlap
     ethr =  1.35E-04,  avg # of iterations =  3.8

     total cpu time spent up to now is     4133.1 secs

     total energy              =    -702.44749747 Ry
     Harris-Foulkes estimate   =    -702.46612068 Ry
     estimated scf accuracy    <       0.17987736 Ry

     iteration # 23     ecut=    50.00 Ry     beta= 0.60
     Davidson diagonalization with overlap
     ethr =  1.35E-04,  avg # of iterations =  1.1

     total cpu time spent up to now is     4164.8 secs

     total energy              =    -702.44873392 Ry
     Harris-Foulkes estimate   =    -702.45269703 Ry
     estimated scf accuracy    <       0.04321583 Ry

     iteration # 24     ecut=    50.00 Ry     beta= 0.60
     Davidson diagonalization with overlap
     ethr =  5.84E-05,  avg # of iterations =  4.5

     total cpu time spent up to now is     4204.8 secs

     total energy              =    -702.45146097 Ry
     Harris-Foulkes estimate   =    -702.45263015 Ry
     estimated scf accuracy    <       0.00781473 Ry

     iteration # 25     ecut=    50.00 Ry     beta= 0.60
     Davidson diagonalization with overlap
     ethr =  1.06E-05,  avg # of iterations =  6.7

     total cpu time spent up to now is     4255.2 secs

     total energy              =    -702.45237901 Ry
     Harris-Foulkes estimate   =    -702.45294031 Ry
     estimated scf accuracy    <       0.00244279 Ry

     iteration # 26     ecut=    50.00 Ry     beta= 0.60
     Davidson diagonalization with overlap
     c_bands:  1 eigenvalues not converged
     c_bands:  1 eigenvalues not converged
     c_bands:  1 eigenvalues not converged
     c_bands:  1 eigenvalues not converged
     ethr =  3.30E-06,  avg # of iterations =  4.7

     total cpu time spent up to now is     4296.4 secs

     total energy              =    -702.45268373 Ry
     Harris-Foulkes estimate   =    -702.45275566 Ry
     estimated scf accuracy    <       0.00064496 Ry

     iteration # 27     ecut=    50.00 Ry     beta= 0.60
     Davidson diagonalization with overlap
     ethr =  8.72E-07,  avg # of iterations =  2.4

     total cpu time spent up to now is     4330.6 secs

     total energy              =    -702.45270179 Ry
     Harris-Foulkes estimate   =    -702.45272279 Ry
     estimated scf accuracy    <       0.00027688 Ry

     iteration # 28     ecut=    50.00 Ry     beta= 0.60
     Davidson diagonalization with overlap
     ethr =  3.74E-07,  avg # of iterations =  2.9

     total cpu time spent up to now is     4366.0 secs

     total energy              =    -702.45270337 Ry
     Harris-Foulkes estimate   =    -702.45271711 Ry
     estimated scf accuracy    <       0.00009505 Ry

     iteration # 29     ecut=    50.00 Ry     beta= 0.60
     Davidson diagonalization with overlap
     ethr =  1.28E-07,  avg # of iterations =  4.1

     total cpu time spent up to now is     4407.6 secs

     total energy              =    -702.45271630 Ry
     Harris-Foulkes estimate   =    -702.45271711 Ry
     estimated scf accuracy    <       0.00000847 Ry

     iteration # 30     ecut=    50.00 Ry     beta= 0.60
     Davidson diagonalization with overlap
     c_bands:  1 eigenvalues not converged
     ethr =  1.15E-08,  avg # of iterations =  3.7

     total cpu time spent up to now is     4448.5 secs

     total energy              =    -702.45271584 Ry
     Harris-Foulkes estimate   =    -702.45271744 Ry
     estimated scf accuracy    <       0.00000683 Ry

     iteration # 31     ecut=    50.00 Ry     beta= 0.60
     Davidson diagonalization with overlap
     c_bands:  1 eigenvalues not converged
     ethr =  9.23E-09,  avg # of iterations =  3.9

     total cpu time spent up to now is     4489.1 secs

     total energy              =    -702.45271679 Ry
     Harris-Foulkes estimate   =    -702.45271709 Ry
     estimated scf accuracy    <       0.00000256 Ry

     iteration # 32     ecut=    50.00 Ry     beta= 0.60
     Davidson diagonalization with overlap
     ethr =  3.45E-09,  avg # of iterations =  1.5

     total cpu time spent up to now is     4520.9 secs

     total energy              =    -702.45271686 Ry
     Harris-Foulkes estimate   =    -702.45271692 Ry
     estimated scf accuracy    <       0.00000058 Ry

     iteration # 33     ecut=    50.00 Ry     beta= 0.60
     Davidson diagonalization with overlap
     ethr =  7.83E-10,  avg # of iterations =  4.0

     total cpu time spent up to now is     4562.7 secs

     total energy              =    -702.45271692 Ry
     Harris-Foulkes estimate   =    -702.45271694 Ry
     estimated scf accuracy    <       0.00000011 Ry

     iteration # 34     ecut=    50.00 Ry     beta= 0.60
     Davidson diagonalization with overlap
     ethr =  1.47E-10,  avg # of iterations =  3.6

     total cpu time spent up to now is     4601.8 secs

     total energy              =    -702.45271693 Ry
     Harris-Foulkes estimate   =    -702.45271694 Ry
     estimated scf accuracy    <       0.00000003 Ry

     iteration # 35     ecut=    50.00 Ry     beta= 0.60
     Davidson diagonalization with overlap
     ethr =  4.23E-11,  avg # of iterations =  3.8

     total cpu time spent up to now is     4642.5 secs

     total energy              =    -702.45271693 Ry
     Harris-Foulkes estimate   =    -702.45271694 Ry
     estimated scf accuracy    <       0.00000002 Ry

     iteration # 36     ecut=    50.00 Ry     beta= 0.60
     Davidson diagonalization with overlap
     ethr =  2.38E-11,  avg # of iterations =  2.2

     total cpu time spent up to now is     4675.6 secs

     total energy              =    -702.45271694 Ry
     Harris-Foulkes estimate   =    -702.45271694 Ry
     estimated scf accuracy    <          1.0E-09 Ry

     iteration # 37     ecut=    50.00 Ry     beta= 0.60
     Davidson diagonalization with overlap
     ethr =  1.39E-12,  avg # of iterations =  5.0

     total cpu time spent up to now is     4725.8 secs

     total energy              =    -702.45271694 Ry
     Harris-Foulkes estimate   =    -702.45271694 Ry
     estimated scf accuracy    <          2.3E-09 Ry

     iteration # 38     ecut=    50.00 Ry     beta= 0.60
     Davidson diagonalization with overlap
     ethr =  1.39E-12,  avg # of iterations =  1.2

     total cpu time spent up to now is     4757.3 secs

     total energy              =    -702.45271694 Ry
     Harris-Foulkes estimate   =    -702.45271694 Ry
     estimated scf accuracy    <          3.8E-10 Ry

     iteration # 39     ecut=    50.00 Ry     beta= 0.60
     Davidson diagonalization with overlap
     ethr =  5.16E-13,  avg # of iterations =  4.0

     total cpu time spent up to now is     4801.5 secs

     total energy              =    -702.45271694 Ry
     Harris-Foulkes estimate   =    -702.45271694 Ry
     estimated scf accuracy    <          1.5E-10 Ry

     iteration # 40     ecut=    50.00 Ry     beta= 0.60
     Davidson diagonalization with overlap
     ethr =  1.99E-13,  avg # of iterations =  1.0

     total cpu time spent up to now is     4832.4 secs

     End of self-consistent calculation

     Number of k-points >= 100: set verbosity='high' to print the bands.

     the Fermi energy is    15.4957 ev

!    total energy              =    -702.45271694 Ry
     Harris-Foulkes estimate   =    -702.45271694 Ry
     estimated scf accuracy    <          5.3E-11 Ry

     The total energy is the sum of the following terms:

     one-electron contribution =    -187.97797194 Ry
     hartree contribution      =     124.77509681 Ry
     xc contribution           =     -95.22259616 Ry
     ewald contribution        =    -544.02599376 Ry
     smearing contrib. (-TS)   =      -0.00125189 Ry

     convergence has been achieved in  40 iterations

     Forces acting on atoms (cartesian axes, Ry/au):

     atom    1 type  2   force =     0.00000075    0.00000000    0.00000000
     atom    2 type  2   force =    -0.00224986    0.00000000    0.00000000
     atom    3 type  1   force =    -0.00659064    0.00000000    0.00000000
     atom    4 type  2   force =    -0.00000072    0.00000000    0.00000000
     atom    5 type  2   force =     0.00224821    0.00000000    0.00000000
     atom    6 type  1   force =     0.00659227    0.00000000    0.00000000

     Total force =     0.009849     Total SCF correction =     0.000012


     Computing stress (Cartesian axis) and pressure

          total   stress  (Ry/bohr**3)                   (kbar)     P=   40.40
   0.00026250   0.00000000   0.00000000         38.62      0.00      0.00
   0.00000000   0.00028074   0.00000260          0.00     41.30      0.38
   0.00000000   0.00000260   0.00028074          0.00      0.38     41.30


     number of scf cycles    =   3
     number of bfgs steps    =   2

     enthalpy old            =    -702.4104558528 Ry
     enthalpy new            =    -702.4527169363 Ry

     CASE: enthalpy_new < enthalpy_old

     new trust radius        =       0.0611866460 bohr
     new conv_thr            =            1.0E-10 Ry

     new unit-cell volume =    707.59273 a.u.^3 (   104.85442 Ang^3 )
     density =      5.97485 g/cm^3

CELL_PARAMETERS (alat=  1.88972599)
   4.903931685  -1.633442202  -1.633442202
  -4.903931685  -1.633442202  -1.633442202
   0.000000000   3.272492670  -3.272492670

ATOMIC_POSITIONS (angstrom)
Ti       3.269285012   0.002804133  -3.269688538
Ti       0.010922673   0.005608265  -6.539377075
Nb      -3.296870305   0.002804133  -3.269688538
Ti      -1.634651196   1.639050468  -4.905934873
Ti       1.623729422   1.639050468  -4.905934873
Nb       0.027584394   0.002804133  -3.269688538


     NEW-OLD atomic charge density approx. for the potential
     extrapolated charge   76.37729, renormalised to   74.00000

     total cpu time spent up to now is     4853.2 secs

     Self-consistent Calculation

     iteration #  1     ecut=    50.00 Ry     beta= 0.60
     Davidson diagonalization with overlap
     ethr =  1.00E-06,  avg # of iterations = 12.2

     total cpu time spent up to now is     4959.4 secs

     total energy              =    -701.96792163 Ry
     Harris-Foulkes estimate   =    -697.98750053 Ry
     estimated scf accuracy    <       0.41066437 Ry

     iteration #  2     ecut=    50.00 Ry     beta= 0.60
     Davidson diagonalization with overlap
     ethr =  5.55E-04,  avg # of iterations =  5.8

     total cpu time spent up to now is     5027.1 secs

     total energy              =    -701.78035938 Ry
     Harris-Foulkes estimate   =    -703.33434037 Ry
     estimated scf accuracy    <      10.09784148 Ry

     iteration #  3     ecut=    50.00 Ry     beta= 0.60
     Davidson diagonalization with overlap
     ethr =  5.55E-04,  avg # of iterations =  5.4

     total cpu time spent up to now is     5086.6 secs

     total energy              =    -702.30813880 Ry
     Harris-Foulkes estimate   =    -702.63891584 Ry
     estimated scf accuracy    <       1.75433903 Ry

     iteration #  4     ecut=    50.00 Ry     beta= 0.60
     Davidson diagonalization with overlap
     ethr =  5.55E-04,  avg # of iterations =  5.3

     total cpu time spent up to now is     5136.9 secs

     total energy              =    -702.42263092 Ry
     Harris-Foulkes estimate   =    -702.54378755 Ry
     estimated scf accuracy    <       0.70481937 Ry

     iteration #  5     ecut=    50.00 Ry     beta= 0.60
     Davidson diagonalization with overlap
     ethr =  5.55E-04,  avg # of iterations =  3.8

     total cpu time spent up to now is     5174.4 secs

     total energy              =    -702.46229315 Ry
     Harris-Foulkes estimate   =    -702.46855690 Ry
     estimated scf accuracy    <       0.12617431 Ry

     iteration #  6     ecut=    50.00 Ry     beta= 0.60
     Davidson diagonalization with overlap
     ethr =  1.71E-04,  avg # of iterations =  4.0

     total cpu time spent up to now is     5214.4 secs

     total energy              =    -702.46489283 Ry
     Harris-Foulkes estimate   =    -702.47373346 Ry
     estimated scf accuracy    <       0.10373273 Ry

     iteration #  7     ecut=    50.00 Ry     beta= 0.60
     Davidson diagonalization with overlap
     ethr =  1.40E-04,  avg # of iterations =  1.0

     total cpu time spent up to now is     5245.3 secs

     total energy              =    -702.45887751 Ry
     Harris-Foulkes estimate   =    -702.46638170 Ry
     estimated scf accuracy    <       0.06837303 Ry

     iteration #  8     ecut=    50.00 Ry     beta= 0.60
     Davidson diagonalization with overlap
     ethr =  9.24E-05,  avg # of iterations =  1.2

     total cpu time spent up to now is     5277.1 secs

     total energy              =    -702.45693171 Ry
     Harris-Foulkes estimate   =    -702.46022383 Ry
     estimated scf accuracy    <       0.03544584 Ry

     iteration #  9     ecut=    50.00 Ry     beta= 0.60
     Davidson diagonalization with overlap
     ethr =  4.79E-05,  avg # of iterations =  1.6

     total cpu time spent up to now is     5308.8 secs

     total energy              =    -702.45554911 Ry
     Harris-Foulkes estimate   =    -702.45761461 Ry
     estimated scf accuracy    <       0.02065218 Ry

     iteration # 10     ecut=    50.00 Ry     beta= 0.60
     Davidson diagonalization with overlap
     ethr =  2.79E-05,  avg # of iterations =  3.2

     total cpu time spent up to now is     5344.2 secs

     total energy              =    -702.45333386 Ry
     Harris-Foulkes estimate   =    -702.45625375 Ry
     estimated scf accuracy    <       0.00946873 Ry

     iteration # 11     ecut=    50.00 Ry     beta= 0.60
     Davidson diagonalization with overlap
     ethr =  1.28E-05,  avg # of iterations =  5.7

     total cpu time spent up to now is     5394.1 secs

     total energy              =    -702.45552031 Ry
     Harris-Foulkes estimate   =    -702.45555363 Ry
     estimated scf accuracy    <       0.00132615 Ry

     iteration # 12     ecut=    50.00 Ry     beta= 0.60
     Davidson diagonalization with overlap
     c_bands:  1 eigenvalues not converged
     c_bands:  1 eigenvalues not converged
     c_bands:  1 eigenvalues not converged
     c_bands:  1 eigenvalues not converged
     c_bands:  1 eigenvalues not converged
     c_bands:  1 eigenvalues not converged
     ethr =  1.79E-06,  avg # of iterations =  5.0

     total cpu time spent up to now is     5432.7 secs

     total energy              =    -702.45545760 Ry
     Harris-Foulkes estimate   =    -702.45557531 Ry
     estimated scf accuracy    <       0.00115721 Ry

     iteration # 13     ecut=    50.00 Ry     beta= 0.60
     Davidson diagonalization with overlap
     ethr =  1.56E-06,  avg # of iterations =  1.1

     total cpu time spent up to now is     5463.8 secs

     total energy              =    -702.45546603 Ry
     Harris-Foulkes estimate   =    -702.45549616 Ry
     estimated scf accuracy    <       0.00041859 Ry

     iteration # 14     ecut=    50.00 Ry     beta= 0.60
     Davidson diagonalization with overlap
     ethr =  5.66E-07,  avg # of iterations =  1.8

     total cpu time spent up to now is     5496.1 secs

     total energy              =    -702.45541796 Ry
     Harris-Foulkes estimate   =    -702.45547856 Ry
     estimated scf accuracy    <       0.00025856 Ry

     iteration # 15     ecut=    50.00 Ry     beta= 0.60
     Davidson diagonalization with overlap
     ethr =  3.49E-07,  avg # of iterations =  4.4

     total cpu time spent up to now is     5541.4 secs

     total energy              =    -702.45547071 Ry
     Harris-Foulkes estimate   =    -702.45549427 Ry
     estimated scf accuracy    <       0.00018681 Ry

     iteration # 16     ecut=    50.00 Ry     beta= 0.60
     Davidson diagonalization with overlap
     ethr =  2.52E-07,  avg # of iterations =  1.0

     total cpu time spent up to now is     5572.3 secs

     total energy              =    -702.45547187 Ry
     Harris-Foulkes estimate   =    -702.45547814 Ry
     estimated scf accuracy    <       0.00007181 Ry

     iteration # 17     ecut=    50.00 Ry     beta= 0.60
     Davidson diagonalization with overlap
     ethr =  9.70E-08,  avg # of iterations =  3.2

     total cpu time spent up to now is     5610.0 secs

     total energy              =    -702.45547662 Ry
     Harris-Foulkes estimate   =    -702.45547725 Ry
     estimated scf accuracy    <       0.00000908 Ry

     iteration # 18     ecut=    50.00 Ry     beta= 0.60
     Davidson diagonalization with overlap
     ethr =  1.23E-08,  avg # of iterations =  3.8

     total cpu time spent up to now is     5649.4 secs

     total energy              =    -702.45547697 Ry
     Harris-Foulkes estimate   =    -702.45547754 Ry
     estimated scf accuracy    <       0.00000282 Ry

     iteration # 19     ecut=    50.00 Ry     beta= 0.60
     Davidson diagonalization with overlap
     ethr =  3.81E-09,  avg # of iterations =  4.1

     total cpu time spent up to now is     5693.7 secs

     total energy              =    -702.45547747 Ry
     Harris-Foulkes estimate   =    -702.45547763 Ry
     estimated scf accuracy    <       0.00000147 Ry

     iteration # 20     ecut=    50.00 Ry     beta= 0.60
     Davidson diagonalization with overlap
     ethr =  1.98E-09,  avg # of iterations =  1.0

     total cpu time spent up to now is     5724.6 secs

     total energy              =    -702.45547748 Ry
     Harris-Foulkes estimate   =    -702.45547753 Ry
     estimated scf accuracy    <       0.00000041 Ry

     iteration # 21     ecut=    50.00 Ry     beta= 0.60
     Davidson diagonalization with overlap
     ethr =  5.54E-10,  avg # of iterations =  3.7

     total cpu time spent up to now is     5764.6 secs

     total energy              =    -702.45547753 Ry
     Harris-Foulkes estimate   =    -702.45547753 Ry
     estimated scf accuracy    <       0.00000006 Ry

     iteration # 22     ecut=    50.00 Ry     beta= 0.60
     Davidson diagonalization with overlap
     ethr =  7.85E-11,  avg # of iterations =  2.7

     total cpu time spent up to now is     5800.1 secs

     total energy              =    -702.45547753 Ry
     Harris-Foulkes estimate   =    -702.45547753 Ry
     estimated scf accuracy    <       0.00000002 Ry

     iteration # 23     ecut=    50.00 Ry     beta= 0.60
     Davidson diagonalization with overlap
     ethr =  2.87E-11,  avg # of iterations =  3.1

     total cpu time spent up to now is     5836.3 secs

     total energy              =    -702.45547753 Ry
     Harris-Foulkes estimate   =    -702.45547753 Ry
     estimated scf accuracy    <          2.6E-09 Ry

     iteration # 24     ecut=    50.00 Ry     beta= 0.60
     Davidson diagonalization with overlap
     ethr =  3.52E-12,  avg # of iterations =  4.6

     total cpu time spent up to now is     5884.1 secs

     total energy              =    -702.45547753 Ry
     Harris-Foulkes estimate   =    -702.45547753 Ry
     estimated scf accuracy    <          1.5E-09 Ry

     iteration # 25     ecut=    50.00 Ry     beta= 0.60
     Davidson diagonalization with overlap
     ethr =  2.06E-12,  avg # of iterations =  1.0

     total cpu time spent up to now is     5915.3 secs

     total energy              =    -702.45547753 Ry
     Harris-Foulkes estimate   =    -702.45547753 Ry
     estimated scf accuracy    <          1.5E-10 Ry

     iteration # 26     ecut=    50.00 Ry     beta= 0.60
     Davidson diagonalization with overlap
     ethr =  2.08E-13,  avg # of iterations =  4.7

     total cpu time spent up to now is     5965.0 secs

     total energy              =    -702.45547753 Ry
     Harris-Foulkes estimate   =    -702.45547753 Ry
     estimated scf accuracy    <          2.0E-10 Ry

     iteration # 27     ecut=    50.00 Ry     beta= 0.60
     Davidson diagonalization with overlap
     ethr =  2.08E-13,  avg # of iterations =  1.0

     total cpu time spent up to now is     5996.0 secs

     End of self-consistent calculation

     Number of k-points >= 100: set verbosity='high' to print the bands.

     the Fermi energy is    14.8825 ev

!    total energy              =    -702.45547753 Ry
     Harris-Foulkes estimate   =    -702.45547753 Ry
     estimated scf accuracy    <          5.8E-11 Ry

     The total energy is the sum of the following terms:

     one-electron contribution =    -197.05262409 Ry
     hartree contribution      =     127.43287530 Ry
     xc contribution           =     -95.03197156 Ry
     ewald contribution        =    -537.80276331 Ry
     smearing contrib. (-TS)   =      -0.00099387 Ry

     convergence has been achieved in  27 iterations

     Forces acting on atoms (cartesian axes, Ry/au):

     atom    1 type  2   force =     0.00000118    0.00000000    0.00000000
     atom    2 type  2   force =    -0.00036593    0.00000000    0.00000000
     atom    3 type  1   force =    -0.00843279    0.00000000    0.00000000
     atom    4 type  2   force =    -0.00000162    0.00000000    0.00000000
     atom    5 type  2   force =     0.00036624    0.00000000    0.00000000
     atom    6 type  1   force =     0.00843292    0.00000000    0.00000000

     Total force =     0.011937     Total SCF correction =     0.000006


     Computing stress (Cartesian axis) and pressure

          total   stress  (Ry/bohr**3)                   (kbar)     P=   -5.57
  -0.00004517   0.00000000   0.00000000         -6.64      0.00      0.00
   0.00000000  -0.00003425  -0.00000237          0.00     -5.04     -0.35
   0.00000000  -0.00000237  -0.00003425          0.00     -0.35     -5.04


     number of scf cycles    =   4
     number of bfgs steps    =   3

     enthalpy old            =    -702.4527169363 Ry
     enthalpy new            =    -702.4554775291 Ry

     CASE: enthalpy_new < enthalpy_old

     new trust radius        =       0.0081448173 bohr
     new conv_thr            =            1.0E-10 Ry

     new unit-cell volume =    704.68572 a.u.^3 (   104.42365 Ang^3 )
     density =      5.99950 g/cm^3

CELL_PARAMETERS (alat=  1.88972599)
   4.896424033  -1.631238082  -1.631238082
  -4.896424033  -1.631238082  -1.631238082
   0.000000000   3.268455670  -3.268455670

ATOMIC_POSITIONS (angstrom)
Ti       3.264280411   0.002989754  -3.265465917
Ti       0.010842926   0.005979507  -6.530931834
Nb      -3.295648210   0.002989754  -3.265465917
Ti      -1.632149373   1.637217589  -4.899693752
Ti       1.621306760   1.637217589  -4.899693752
Nb       0.031367486   0.002989754  -3.265465917


     NEW-OLD atomic charge density approx. for the potential
     extrapolated charge   73.71125, renormalised to   74.00000

     total cpu time spent up to now is     6016.1 secs

     Self-consistent Calculation

     iteration #  1     ecut=    50.00 Ry     beta= 0.60
     Davidson diagonalization with overlap
     ethr =  1.00E-06,  avg # of iterations =  5.1

     total cpu time spent up to now is     6080.1 secs

     total energy              =    -702.44551747 Ry
     Harris-Foulkes estimate   =    -703.00746909 Ry
     estimated scf accuracy    <       0.00930078 Ry

     iteration #  2     ecut=    50.00 Ry     beta= 0.60
     Davidson diagonalization with overlap
     c_bands:  1 eigenvalues not converged
     c_bands:  1 eigenvalues not converged
     ethr =  1.26E-05,  avg # of iterations =  5.6

     total cpu time spent up to now is     6146.5 secs

     total energy              =    -702.44063900 Ry
     Harris-Foulkes estimate   =    -702.47733747 Ry
     estimated scf accuracy    <       0.23820762 Ry

     iteration #  3     ecut=    50.00 Ry     beta= 0.60
     Davidson diagonalization with overlap
     ethr =  1.26E-05,  avg # of iterations =  5.3

     total cpu time spent up to now is     6203.2 secs

     total energy              =    -702.45499570 Ry
     Harris-Foulkes estimate   =    -702.45807562 Ry
     estimated scf accuracy    <       0.00980759 Ry

     iteration #  4     ecut=    50.00 Ry     beta= 0.60
     Davidson diagonalization with overlap
     ethr =  1.26E-05,  avg # of iterations =  3.9

     total cpu time spent up to now is     6246.3 secs

     total energy              =    -702.45561592 Ry
     Harris-Foulkes estimate   =    -702.45663475 Ry
     estimated scf accuracy    <       0.00780026 Ry

     iteration #  5     ecut=    50.00 Ry     beta= 0.60
     Davidson diagonalization with overlap
     ethr =  1.05E-05,  avg # of iterations =  1.0

     total cpu time spent up to now is     6277.7 secs

     total energy              =    -702.45582415 Ry
     Harris-Foulkes estimate   =    -702.45601683 Ry
     estimated scf accuracy    <       0.00283042 Ry

     iteration #  6     ecut=    50.00 Ry     beta= 0.60
     Davidson diagonalization with overlap
     ethr =  3.82E-06,  avg # of iterations =  3.3

     total cpu time spent up to now is     6313.8 secs

     total energy              =    -702.45582476 Ry
     Harris-Foulkes estimate   =    -702.45594721 Ry
     estimated scf accuracy    <       0.00185719 Ry

     iteration #  7     ecut=    50.00 Ry     beta= 0.60
     Davidson diagonalization with overlap
     ethr =  2.51E-06,  avg # of iterations =  1.5

     total cpu time spent up to now is     6347.5 secs

     total energy              =    -702.45569497 Ry
     Harris-Foulkes estimate   =    -702.45586115 Ry
     estimated scf accuracy    <       0.00145581 Ry

     iteration #  8     ecut=    50.00 Ry     beta= 0.60
     Davidson diagonalization with overlap
     ethr =  1.97E-06,  avg # of iterations =  1.4

     total cpu time spent up to now is     6379.4 secs

     total energy              =    -702.45560174 Ry
     Harris-Foulkes estimate   =    -702.45572647 Ry
     estimated scf accuracy    <       0.00076098 Ry

     iteration #  9     ecut=    50.00 Ry     beta= 0.60
     Davidson diagonalization with overlap
     ethr =  1.03E-06,  avg # of iterations =  2.8

     total cpu time spent up to now is     6415.4 secs

     total energy              =    -702.45562292 Ry
     Harris-Foulkes estimate   =    -702.45565514 Ry
     estimated scf accuracy    <       0.00015550 Ry

     iteration # 10     ecut=    50.00 Ry     beta= 0.60
     Davidson diagonalization with overlap
     ethr =  2.10E-07,  avg # of iterations =  4.0

     total cpu time spent up to now is     6457.7 secs

     total energy              =    -702.45564744 Ry
     Harris-Foulkes estimate   =    -702.45564835 Ry
     estimated scf accuracy    <       0.00000656 Ry

     iteration # 11     ecut=    50.00 Ry     beta= 0.60
     Davidson diagonalization with overlap
     ethr =  8.86E-09,  avg # of iterations =  4.9

     total cpu time spent up to now is     6505.9 secs

     total energy              =    -702.45564940 Ry
     Harris-Foulkes estimate   =    -702.45565003 Ry
     estimated scf accuracy    <       0.00000706 Ry

     iteration # 12     ecut=    50.00 Ry     beta= 0.60
     Davidson diagonalization with overlap
     ethr =  8.86E-09,  avg # of iterations =  1.0

     total cpu time spent up to now is     6536.8 secs

     total energy              =    -702.45564919 Ry
     Harris-Foulkes estimate   =    -702.45564961 Ry
     estimated scf accuracy    <       0.00000258 Ry

     iteration # 13     ecut=    50.00 Ry     beta= 0.60
     Davidson diagonalization with overlap
     ethr =  3.48E-09,  avg # of iterations =  3.6

     total cpu time spent up to now is     6583.7 secs

     total energy              =    -702.45564943 Ry
     Harris-Foulkes estimate   =    -702.45564952 Ry
     estimated scf accuracy    <       0.00000071 Ry

     iteration # 14     ecut=    50.00 Ry     beta= 0.60
     Davidson diagonalization with overlap
     ethr =  9.60E-10,  avg # of iterations =  1.3

     total cpu time spent up to now is     6615.4 secs

     total energy              =    -702.45564941 Ry
     Harris-Foulkes estimate   =    -702.45564946 Ry
     estimated scf accuracy    <       0.00000035 Ry

     iteration # 15     ecut=    50.00 Ry     beta= 0.60
     Davidson diagonalization with overlap
     ethr =  4.67E-10,  avg # of iterations =  1.9

     total cpu time spent up to now is     6648.2 secs

     total energy              =    -702.45564940 Ry
     Harris-Foulkes estimate   =    -702.45564942 Ry
     estimated scf accuracy    <       0.00000015 Ry

     iteration # 16     ecut=    50.00 Ry     beta= 0.60
     Davidson diagonalization with overlap
     ethr =  2.08E-10,  avg # of iterations =  3.4

     total cpu time spent up to now is     6687.0 secs

     total energy              =    -702.45564941 Ry
     Harris-Foulkes estimate   =    -702.45564941 Ry
     estimated scf accuracy    <       0.00000010 Ry

     iteration # 17     ecut=    50.00 Ry     beta= 0.60
     Davidson diagonalization with overlap
     ethr =  1.31E-10,  avg # of iterations =  1.0

     total cpu time spent up to now is     6718.2 secs

     total energy              =    -702.45564939 Ry
     Harris-Foulkes estimate   =    -702.45564941 Ry
     estimated scf accuracy    <       0.00000009 Ry

     iteration # 18     ecut=    50.00 Ry     beta= 0.60
     Davidson diagonalization with overlap
     ethr =  1.20E-10,  avg # of iterations =  2.9

     total cpu time spent up to now is     6753.7 secs

     total energy              =    -702.45564940 Ry
     Harris-Foulkes estimate   =    -702.45564940 Ry
     estimated scf accuracy    <          8.1E-09 Ry

     iteration # 19     ecut=    50.00 Ry     beta= 0.60
     Davidson diagonalization with overlap
     ethr =  1.10E-11,  avg # of iterations =  4.9

     total cpu time spent up to now is     6805.3 secs

     total energy              =    -702.45564940 Ry
     Harris-Foulkes estimate   =    -702.45564940 Ry
     estimated scf accuracy    <       0.00000002 Ry

     iteration # 20     ecut=    50.00 Ry     beta= 0.60
     Davidson diagonalization with overlap
     ethr =  1.10E-11,  avg # of iterations =  3.3

     total cpu time spent up to now is     6840.9 secs

     total energy              =    -702.45564940 Ry
     Harris-Foulkes estimate   =    -702.45564940 Ry
     estimated scf accuracy    <          3.5E-09 Ry

     iteration # 21     ecut=    50.00 Ry     beta= 0.60
     Davidson diagonalization with overlap
     ethr =  4.70E-12,  avg # of iterations =  4.0

     total cpu time spent up to now is     6883.7 secs

     total energy              =    -702.45564940 Ry
     Harris-Foulkes estimate   =    -702.45564940 Ry
     estimated scf accuracy    <          7.8E-10 Ry

     iteration # 22     ecut=    50.00 Ry     beta= 0.60
     Davidson diagonalization with overlap
     ethr =  1.06E-12,  avg # of iterations =  3.4

     total cpu time spent up to now is     6919.5 secs

     total energy              =    -702.45564940 Ry
     Harris-Foulkes estimate   =    -702.45564940 Ry
     estimated scf accuracy    <          6.3E-10 Ry

     iteration # 23     ecut=    50.00 Ry     beta= 0.60
     Davidson diagonalization with overlap
     ethr =  8.48E-13,  avg # of iterations =  2.2

     total cpu time spent up to now is     6952.9 secs

     End of self-consistent calculation

     Number of k-points >= 100: set verbosity='high' to print the bands.

     the Fermi energy is    14.9545 ev

!    total energy              =    -702.45564940 Ry
[...]
     c_bands:  1 eigenvalues not converged
     c_bands:  1 eigenvalues not converged
     c_bands:  2 eigenvalues not converged
     c_bands:  2 eigenvalues not converged
     c_bands:  2 eigenvalues not converged
     c_bands:  1 eigenvalues not converged
     c_bands:  1 eigenvalues not converged
     c_bands:  1 eigenvalues not converged
     c_bands:  1 eigenvalues not converged
     c_bands:  1 eigenvalues not converged
     c_bands:  2 eigenvalues not converged
     c_bands:  2 eigenvalues not converged
     c_bands:  1 eigenvalues not converged
     c_bands:  1 eigenvalues not converged
     c_bands:  1 eigenvalues not converged
     c_bands:  1 eigenvalues not converged
     c_bands:  1 eigenvalues not converged
     c_bands:  1 eigenvalues not converged
     c_bands:  1 eigenvalues not converged
     c_bands:  1 eigenvalues not converged
     c_bands:  1 eigenvalues not converged
     c_bands:  1 eigenvalues not converged
     c_bands:  2 eigenvalues not converged
     c_bands:  1 eigenvalues not converged
     c_bands:  1 eigenvalues not converged
     c_bands:  2 eigenvalues not converged
     c_bands:  1 eigenvalues not converged
     c_bands:  1 eigenvalues not converged
     c_bands:  2 eigenvalues not converged
     c_bands:  3 eigenvalues not converged
     c_bands:  1 eigenvalues not converged
     c_bands:  1 eigenvalues not converged
     c_bands:  1 eigenvalues not converged
     c_bands:  1 eigenvalues not converged
     c_bands:  1 eigenvalues not converged
     c_bands:  1 eigenvalues not converged
     c_bands:  1 eigenvalues not converged
     c_bands:  2 eigenvalues not converged
     c_bands:  1 eigenvalues not converged
     c_bands:  1 eigenvalues not converged
     c_bands:  1 eigenvalues not converged
     c_bands:  1 eigenvalues not converged
     c_bands:  2 eigenvalues not converged
     c_bands:  3 eigenvalues not converged
     c_bands:  2 eigenvalues not converged
     c_bands:  1 eigenvalues not converged
     c_bands:  1 eigenvalues not converged
     c_bands:  1 eigenvalues not converged
     c_bands:  2 eigenvalues not converged
     c_bands:  1 eigenvalues not converged
     c_bands:  1 eigenvalues not converged
     c_bands:  1 eigenvalues not converged
     c_bands:  1 eigenvalues not converged
     c_bands:  1 eigenvalues not converged
     c_bands:  1 eigenvalues not converged
     c_bands:  1 eigenvalues not converged
     c_bands:  1 eigenvalues not converged
     c_bands:  1 eigenvalues not converged
     c_bands:  1 eigenvalues not converged
     c_bands:  1 eigenvalues not converged
     c_bands:  1 eigenvalues not converged
     c_bands:  1 eigenvalues not converged
     c_bands:  2 eigenvalues not converged
     c_bands:  2 eigenvalues not converged
     c_bands:  1 eigenvalues not converged
     c_bands:  1 eigenvalues not converged
     c_bands:  1 eigenvalues not converged
     c_bands:  2 eigenvalues not converged
     c_bands:  3 eigenvalues not converged
     c_bands:  2 eigenvalues not converged
     c_bands:  2 eigenvalues not converged
     c_bands:  1 eigenvalues not converged
     c_bands:  1 eigenvalues not converged
     c_bands:  1 eigenvalues not converged
     c_bands:  1 eigenvalues not converged
     c_bands:  1 eigenvalues not converged
     c_bands:  1 eigenvalues not converged
     c_bands:  1 eigenvalues not converged
     c_bands:  1 eigenvalues not converged
     c_bands:  2 eigenvalues not converged
     c_bands:  1 eigenvalues not converged
     c_bands:  1 eigenvalues not converged
     c_bands:  1 eigenvalues not converged
     c_bands:  2 eigenvalues not converged
     c_bands:  1 eigenvalues not converged
     c_bands:  2 eigenvalues not converged
     c_bands:  2 eigenvalues not converged
     c_bands:  1 eigenvalues not converged
     c_bands:  1 eigenvalues not converged
     c_bands:  2 eigenvalues not converged
     c_bands:  1 eigenvalues not converged
     c_bands:  1 eigenvalues not converged
     c_bands:  1 eigenvalues not converged
     c_bands:  1 eigenvalues not converged
     c_bands:  1 eigenvalues not converged
     c_bands:  1 eigenvalues not converged
     c_bands:  1 eigenvalues not converged
     c_bands:  2 eigenvalues not converged
     c_bands:  1 eigenvalues not converged
     c_bands:  1 eigenvalues not converged
     ethr =  1.00E-06,  avg # of iterations = 17.6

     total cpu time spent up to now is    24534.7 secs

     total energy              =    -696.36722855 Ry
     Harris-Foulkes estimate   =    -704.56788653 Ry
     estimated scf accuracy    <      10.54845950 Ry

     iteration #  2     ecut=    50.00 Ry     beta= 0.60
     Davidson diagonalization with overlap
     ethr =  1.00E-02,  avg # of iterations =  5.2

     total cpu time spent up to now is    24580.5 secs

     total energy              =    -697.21320977 Ry
     Harris-Foulkes estimate   =    -715.68222382 Ry
     estimated scf accuracy    <      61.66816595 Ry

     iteration #  3     ecut=    50.00 Ry     beta= 0.60
     Davidson diagonalization with overlap
     ethr =  1.00E-02,  avg # of iterations =  4.7

     total cpu time spent up to now is    24617.8 secs

     total energy              =    -702.12386504 Ry
     Harris-Foulkes estimate   =    -703.01467326 Ry
     estimated scf accuracy    <      11.14331184 Ry

     iteration #  4     ecut=    50.00 Ry     beta= 0.60
     Davidson diagonalization with overlap
     ethr =  1.00E-02,  avg # of iterations =  1.7

     total cpu time spent up to now is    24642.2 secs

     total energy              =    -702.34491772 Ry
     Harris-Foulkes estimate   =    -702.45331686 Ry
     estimated scf accuracy    <       2.05774828 Ry

     iteration #  5     ecut=    50.00 Ry     beta= 0.60
     Davidson diagonalization with overlap
     ethr =  2.78E-03,  avg # of iterations =  4.7

     total cpu time spent up to now is    24672.5 secs

     total energy              =    -702.49817785 Ry
     Harris-Foulkes estimate   =    -702.47094056 Ry
     estimated scf accuracy    <       0.73021947 Ry

     iteration #  6     ecut=    50.00 Ry     beta= 0.60
     Davidson diagonalization with overlap
     ethr =  9.87E-04,  avg # of iterations =  5.0

     total cpu time spent up to now is    24704.5 secs

     total energy              =    -702.51720608 Ry
     Harris-Foulkes estimate   =    -702.57966628 Ry
     estimated scf accuracy    <       1.26004120 Ry

     iteration #  7     ecut=    50.00 Ry     beta= 0.60
     Davidson diagonalization with overlap
     ethr =  9.87E-04,  avg # of iterations =  1.2

     total cpu time spent up to now is    24728.2 secs

     total energy              =    -702.44907909 Ry
     Harris-Foulkes estimate   =    -702.52972591 Ry
     estimated scf accuracy    <       0.99342606 Ry

     iteration #  8     ecut=    50.00 Ry     beta= 0.60
     Davidson diagonalization with overlap
     ethr =  9.87E-04,  avg # of iterations =  1.1

     total cpu time spent up to now is    24751.7 secs

     total energy              =    -702.43059878 Ry
     Harris-Foulkes estimate   =    -702.46583134 Ry
     estimated scf accuracy    <       0.42993714 Ry

     iteration #  9     ecut=    50.00 Ry     beta= 0.60
     Davidson diagonalization with overlap
     ethr =  5.81E-04,  avg # of iterations =  3.3

     total cpu time spent up to now is    24778.7 secs

     total energy              =    -702.44295317 Ry
     Harris-Foulkes estimate   =    -702.44748061 Ry
     estimated scf accuracy    <       0.10201454 Ry

     iteration # 10     ecut=    50.00 Ry     beta= 0.60
     Davidson diagonalization with overlap
     c_bands:  1 eigenvalues not converged
     ethr =  1.38E-04,  avg # of iterations =  6.6

     total cpu time spent up to now is    24817.2 secs

     total energy              =    -702.45479018 Ry
     Harris-Foulkes estimate   =    -702.45619393 Ry
     estimated scf accuracy    <       0.01137510 Ry

     iteration # 11     ecut=    50.00 Ry     beta= 0.60
     Davidson diagonalization with overlap
     c_bands:  1 eigenvalues not converged
     c_bands:  1 eigenvalues not converged
     c_bands:  1 eigenvalues not converged
     ethr =  1.54E-05,  avg # of iterations =  5.6

     total cpu time spent up to now is    24850.4 secs

     total energy              =    -702.45523274 Ry
     Harris-Foulkes estimate   =    -702.45581023 Ry
     estimated scf accuracy    <       0.00368513 Ry

     iteration # 12     ecut=    50.00 Ry     beta= 0.60
     Davidson diagonalization with overlap
     c_bands:  1 eigenvalues not converged
     c_bands:  1 eigenvalues not converged
     c_bands:  1 eigenvalues not converged
     ethr =  4.98E-06,  avg # of iterations =  5.2

     total cpu time spent up to now is    24883.6 secs

     total energy              =    -702.45542547 Ry
     Harris-Foulkes estimate   =    -702.45590492 Ry
     estimated scf accuracy    <       0.00593400 Ry

     iteration # 13     ecut=    50.00 Ry     beta= 0.60
     Davidson diagonalization with overlap
     c_bands:  1 eigenvalues not converged
     ethr =  4.98E-06,  avg # of iterations =  2.5

     total cpu time spent up to now is    24909.5 secs

     total energy              =    -702.45557830 Ry
     Harris-Foulkes estimate   =    -702.45566305 Ry
     estimated scf accuracy    <       0.00198212 Ry

     iteration # 14     ecut=    50.00 Ry     beta= 0.60
     Davidson diagonalization with overlap
     c_bands:  1 eigenvalues not converged
     ethr =  2.68E-06,  avg # of iterations =  2.1

     total cpu time spent up to now is    24934.2 secs

     total energy              =    -702.45539571 Ry
     Harris-Foulkes estimate   =    -702.45566053 Ry
     estimated scf accuracy    <       0.00198975 Ry

     iteration # 15     ecut=    50.00 Ry     beta= 0.60
     Davidson diagonalization with overlap
     c_bands:  1 eigenvalues not converged
     ethr =  2.68E-06,  avg # of iterations =  1.8

     total cpu time spent up to now is    24959.1 secs

     total energy              =    -702.45543522 Ry
     Harris-Foulkes estimate   =    -702.45548928 Ry
     estimated scf accuracy    <       0.00031364 Ry

     iteration # 16     ecut=    50.00 Ry     beta= 0.60
     Davidson diagonalization with overlap
     c_bands:  1 eigenvalues not converged
     ethr =  4.24E-07,  avg # of iterations =  5.7

     total cpu time spent up to now is    25000.1 secs

     total energy              =    -702.45551271 Ry
     Harris-Foulkes estimate   =    -702.45555061 Ry
     estimated scf accuracy    <       0.00027352 Ry

     iteration # 17     ecut=    50.00 Ry     beta= 0.60
     Davidson diagonalization with overlap
     ethr =  3.70E-07,  avg # of iterations =  1.0

     total cpu time spent up to now is    25023.5 secs

     total energy              =    -702.45552362 Ry
     Harris-Foulkes estimate   =    -702.45552518 Ry
     estimated scf accuracy    <       0.00002912 Ry

     iteration # 18     ecut=    50.00 Ry     beta= 0.60
     Davidson diagonalization with overlap
     ethr =  3.94E-08,  avg # of iterations =  4.2

     total cpu time spent up to now is    25060.9 secs

     total energy              =    -702.45552959 Ry
     Harris-Foulkes estimate   =    -702.45553163 Ry
     estimated scf accuracy    <       0.00000875 Ry

     iteration # 19     ecut=    50.00 Ry     beta= 0.60
     Davidson diagonalization with overlap
     ethr =  1.18E-08,  avg # of iterations =  3.8

     total cpu time spent up to now is    25091.6 secs

     total energy              =    -702.45553070 Ry
     Harris-Foulkes estimate   =    -702.45553119 Ry
     estimated scf accuracy    <       0.00000306 Ry

     iteration # 20     ecut=    50.00 Ry     beta= 0.60
     Davidson diagonalization with overlap
     ethr =  4.13E-09,  avg # of iterations =  2.4

     total cpu time spent up to now is    25117.3 secs

     total energy              =    -702.45553089 Ry
     Harris-Foulkes estimate   =    -702.45553094 Ry
     estimated scf accuracy    <       0.00000030 Ry

     iteration # 21     ecut=    50.00 Ry     beta= 0.60
     Davidson diagonalization with overlap
     ethr =  4.02E-10,  avg # of iterations =  4.7

     total cpu time spent up to now is    25153.4 secs

     total energy              =    -702.45553098 Ry
     Harris-Foulkes estimate   =    -702.45553099 Ry
     estimated scf accuracy    <       0.00000009 Ry

     iteration # 22     ecut=    50.00 Ry     beta= 0.60
     Davidson diagonalization with overlap
     ethr =  1.25E-10,  avg # of iterations =  3.1

     total cpu time spent up to now is    25181.6 secs

     total energy              =    -702.45553097 Ry
     Harris-Foulkes estimate   =    -702.45553099 Ry
     estimated scf accuracy    <       0.00000011 Ry

     iteration # 23     ecut=    50.00 Ry     beta= 0.60
     Davidson diagonalization with overlap
     ethr =  1.25E-10,  avg # of iterations =  2.9

     total cpu time spent up to now is    25208.5 secs

     total energy              =    -702.45553098 Ry
     Harris-Foulkes estimate   =    -702.45553098 Ry
     estimated scf accuracy    <          4.7E-09 Ry

     iteration # 24     ecut=    50.00 Ry     beta= 0.60
     Davidson diagonalization with overlap
     ethr =  6.39E-12,  avg # of iterations =  5.1

     total cpu time spent up to now is    25248.0 secs

     total energy              =    -702.45553098 Ry
     Harris-Foulkes estimate   =    -702.45553098 Ry
     estimated scf accuracy    <          7.1E-09 Ry

     iteration # 25     ecut=    50.00 Ry     beta= 0.60
     Davidson diagonalization with overlap
     ethr =  6.39E-12,  avg # of iterations =  1.0

     total cpu time spent up to now is    25271.3 secs

     total energy              =    -702.45553098 Ry
     Harris-Foulkes estimate   =    -702.45553098 Ry
     estimated scf accuracy    <          1.3E-09 Ry

     iteration # 26     ecut=    50.00 Ry     beta= 0.60
     Davidson diagonalization with overlap
     ethr =  1.74E-12,  avg # of iterations =  4.1

     total cpu time spent up to now is    25306.3 secs

     total energy              =    -702.45553098 Ry
     Harris-Foulkes estimate   =    -702.45553098 Ry
     estimated scf accuracy    <          2.1E-09 Ry

     iteration # 27     ecut=    50.00 Ry     beta= 0.60
     Davidson diagonalization with overlap
     ethr =  1.74E-12,  avg # of iterations =  1.0

     total cpu time spent up to now is    25329.7 secs

     total energy              =    -702.45553098 Ry
     Harris-Foulkes estimate   =    -702.45553098 Ry
     estimated scf accuracy    <          1.0E-09 Ry

     iteration # 28     ecut=    50.00 Ry     beta= 0.60
     Davidson diagonalization with overlap
     ethr =  1.36E-12,  avg # of iterations =  3.2

     total cpu time spent up to now is    25359.9 secs

     total energy              =    -702.45553098 Ry
     Harris-Foulkes estimate   =    -702.45553098 Ry
     estimated scf accuracy    <          9.9E-11 Ry

     iteration # 29     ecut=    50.00 Ry     beta= 0.60
     Davidson diagonalization with overlap
     ethr =  1.33E-13,  avg # of iterations =  2.8

     total cpu time spent up to now is    25387.7 secs

     total energy              =    -702.45553098 Ry
     Harris-Foulkes estimate   =    -702.45553098 Ry
     estimated scf accuracy    <          1.1E-11 Ry

     iteration # 30     ecut=    50.00 Ry     beta= 0.60
     Davidson diagonalization with overlap
     ethr =  1.00E-13,  avg # of iterations =  1.6

     total cpu time spent up to now is    25411.9 secs

     End of self-consistent calculation

     Number of k-points >= 100: set verbosity='high' to print the bands.

     the Fermi energy is    14.9468 ev

!    total energy              =    -702.45553098 Ry
     Harris-Foulkes estimate   =    -702.45553098 Ry
     estimated scf accuracy    <          5.2E-13 Ry

     The total energy is the sum of the following terms:

     one-electron contribution =    -196.33351720 Ry
     hartree contribution      =     127.26594342 Ry
     xc contribution           =     -95.05691896 Ry
     ewald contribution        =    -538.33022634 Ry
     smearing contrib. (-TS)   =      -0.00081189 Ry

     convergence has been achieved in  30 iterations

     Forces acting on atoms (cartesian axes, Ry/au):

     atom    1 type  2   force =     0.00000267    0.00000000    0.00000000
     atom    2 type  2   force =    -0.00000304    0.00000000    0.00000000
     atom    3 type  1   force =    -0.00000520    0.00000000    0.00000000
     atom    4 type  2   force =     0.00000088    0.00000000    0.00000000
     atom    5 type  2   force =    -0.00000150    0.00000000    0.00000000
     atom    6 type  1   force =     0.00000619    0.00000000    0.00000000

     Total force =     0.000009     Total SCF correction =     0.000002
     SCF correction compared to forces is large: reduce conv_thr to get better values


     Computing stress (Cartesian axis) and pressure

          total   stress  (Ry/bohr**3)                   (kbar)     P=   -0.44
  -0.00000285   0.00000000   0.00000000         -0.42      0.00      0.00
  -0.00000000  -0.00000309   0.00000010         -0.00     -0.45      0.01
  -0.00000000   0.00000010  -0.00000309         -0.00      0.01     -0.45

 
     init_run     :     32.11s CPU     33.27s WALL (       2 calls)
     electrons    :  21803.12s CPU  23598.58s WALL (      26 calls)
     update_pot   :     49.67s CPU    335.23s WALL (      24 calls)
     forces       :    111.77s CPU    115.49s WALL (      26 calls)
     stress       :    327.55s CPU    338.10s WALL (      26 calls)

     Called by init_run:
     wfcinit      :     29.31s CPU     30.11s WALL (       2 calls)
     potinit      :      0.85s CPU      0.94s WALL (       2 calls)
     hinit0       :      1.53s CPU      1.56s WALL (       2 calls)

     Called by electrons:
     c_bands      :  18545.40s CPU  19953.71s WALL (     553 calls)
     sum_band     :   3100.94s CPU   3197.96s WALL (     553 calls)
     v_of_rho     :     33.17s CPU     33.47s WALL (     567 calls)
     newd         :    124.07s CPU    194.80s WALL (     567 calls)
     mix_rho      :      4.08s CPU      4.11s WALL (     553 calls)

     Called by c_bands:
     init_us_2    :    263.35s CPU    264.77s WALL (  292320 calls)
     cegterg      :  16883.05s CPU  17069.83s WALL (  139356 calls)

     Called by sum_band:
     sum_band:bec :      5.67s CPU      6.00s WALL (  139356 calls)
     addusdens    :    153.77s CPU    216.91s WALL (     553 calls)

     Called by *egterg:
     h_psi        :  12043.47s CPU  12210.07s WALL (  583891 calls)
     s_psi        :    558.89s CPU    560.58s WALL (  583891 calls)
     g_psi        :     98.41s CPU     97.36s WALL (  444031 calls)
     cdiaghg      :   2118.29s CPU   2123.24s WALL (  574315 calls)

     Called by h_psi:
     h_psi:pot    :  11999.06s CPU  12164.57s WALL (  583891 calls)
     h_psi:calbec :    623.35s CPU    626.74s WALL (  583891 calls)
     vloc_psi     :  10810.93s CPU  10970.02s WALL (  583891 calls)
     add_vuspsi   :    562.31s CPU    564.53s WALL (  583891 calls)

     General routines
     calbec       :    905.22s CPU    909.89s WALL (  756007 calls)
     fft          :     19.56s CPU     19.86s WALL (    8031 calls)
     ffts         :      0.71s CPU      0.71s WALL (    1120 calls)
     fftw         :  11881.22s CPU  12078.61s WALL (36948010 calls)
     interpolate  :      1.82s CPU      1.85s WALL (     567 calls)
 
     Parallel routines
     fft_scatt_xy :   2280.02s CPU   2298.21s WALL (36957161 calls)
     fft_scatt_yz :   2195.83s CPU   2273.46s WALL (36957161 calls)
 
     PWSCF        :     6h12m CPU       12h 7m WALL

       3h
 
   This run was terminated on:  19:11:54   4Feb2020            

=------------------------------------------------------------------------------=
   JOB DONE.
=------------------------------------------------------------------------------=
