
     Program PWSCF v.6.3MaX starts on 24Jan2020 at 12: 5: 7 

     This program is part of the open-source Quantum ESPRESSO suite
     for quantum simulation of materials; please cite
         "P. Giannozzi et al., J. Phys.:Condens. Matter 21 395502 (2009);
         "P. Giannozzi et al., J. Phys.:Condens. Matter 29 465901 (2017);
          URL http://www.quantum-espresso.org", 
     in publications or presentations arising from this work. More details at
     http://www.quantum-espresso.org/quote

     Parallel version (MPI), running on     4 processors

     MPI processes distributed on     1 nodes
     R & G space division:  proc/nbgrp/npool/nimage =       4
     Waiting for input...
     Reading input from standard input

     Current dimensions of program PWSCF are:
     Max number of different atomic species (ntypx) = 10
     Max number of k-points (npk) =  40000
     Max angular momentum in pseudopotentials (lmaxx) =  3
     Message from routine iosys:
     minimal I/O required, wf_collect reset to FALSE

     Subspace diagonalization in iterative solution of the eigenvalue problem:
     a serial algorithm will be used

 
     Parallelization info
     --------------------
     sticks:   dense  smooth     PW     G-vecs:    dense   smooth      PW
     Min         228      91     28                27310     6922    1177
     Max         229      92     31                27335     6930    1184
     Sum         913     367    121               109271    27707    4719
 


     bravais-lattice index     =            0
     lattice parameter (alat)  =       1.8897  a.u.
     unit-cell volume          =     808.3427 (a.u.)^3
     number of atoms/cell      =            6
     number of atomic types    =            2
     number of electrons       =        77.00
     number of Kohn-Sham states=           47
     kinetic-energy cutoff     =      40.0000  Ry
     charge density cutoff     =     400.0000  Ry
     convergence threshold     =      1.0E-10
     mixing beta               =       0.6000
     number of iterations used =            8  plain     mixing
     Exchange-correlation      = SLA PW PBE PBE ( 1  4  3  4 0 0)
     nstep                     =           50


     celldm(1)=   1.889726  celldm(2)=   0.000000  celldm(3)=   0.000000
     celldm(4)=   0.000000  celldm(5)=   0.000000  celldm(6)=   0.000000

     crystal axes: (cart. coord. in units of alat)
               a(1) = (  -1.522502  -2.637051   0.000000 )  
               a(2) = (   3.045004   0.000000   0.000000 )  
               a(3) = (   0.000000   0.000000  14.917383 )  

     reciprocal axes: (cart. coord. in units 2 pi/alat)
               b(1) = (  0.000000 -0.379211  0.000000 )  
               b(2) = (  0.328407 -0.189606  0.000000 )  
               b(3) = (  0.000000  0.000000  0.067036 )  


     PseudoPot. # 1 for Nb read from file:
     ./Nb.pbe-nsp-van.UPF
     MD5 check sum: 0a22fc7fb0ba19a08ca5db297a5d2854
     Pseudo is Ultrasoft + core correction, Zval = 13.0
     Generated by new atomic code, or converted to UPF format
     Using radial grid of  887 points,  6 beta functions with: 
                l(1) =   0
                l(2) =   0
                l(3) =   1
                l(4) =   1
                l(5) =   2
                l(6) =   2
     Q(r) pseudized with  6 coefficients,  rinner =    1.000   1.000   1.000
                                                       1.000   1.000

     PseudoPot. # 2 for Ti read from file:
     ./Ti.pbe-sp-van_ak.UPF
     MD5 check sum: f98fea3e8887528921fefa5636a534ca
     Pseudo is Ultrasoft, Zval = 12.0
     Generated by new atomic code, or converted to UPF format
     Using radial grid of  851 points,  6 beta functions with: 
                l(1) =   0
                l(2) =   0
                l(3) =   1
                l(4) =   1
                l(5) =   2
                l(6) =   2
     Q(r) pseudized with  8 coefficients,  rinner =    1.000   1.000   1.000
                                                       1.000   1.000

     atomic species   valence    mass     pseudopotential
        Nb            13.00    92.90638     Nb( 1.00)
        Ti            12.00    47.86700     Ti( 1.00)

     12 Sym. Ops. (no inversion) found ( 6 have fractional translation)



   Cartesian axes

     site n.     atom                  positions (alat units)
         1           Ti  tau(   1) = (   1.5225021  -2.6370512   4.9724614  )
         2           Nb  tau(   2) = (   0.0000015  -1.7580350   2.4862307  )
         3           Nb  tau(   3) = (   1.5225021  -2.6370512   9.9449228  )
         4           Nb  tau(   4) = (   0.0000015  -1.7580350   7.4586921  )
         5           Nb  tau(   5) = (   1.5225021  -2.6370512  14.9173841  )
         6           Nb  tau(   6) = (   0.0000015  -1.7580350  12.4311534  )

     number of k points=   120  Marzari-Vanderbilt smearing, width (Ry)=  0.0200

     Number of k-points >= 100: set verbosity='high' to print them.

     Dense  grid:   109271 G-vectors     FFT dimensions: (  40,  40, 180)

     Smooth grid:    27707 G-vectors     FFT dimensions: (  24,  24, 120)

     Estimated max dynamical RAM per process >     179.73 MB

     Estimated total dynamical RAM >     718.90 MB

     Check: negative/imaginary core charge=   -0.000001    0.000000

     Initial potential from superposition of free atoms

     starting charge   75.98629, renormalised to   77.00000
     Starting wfcs are   75 randomized atomic wfcs

     total cpu time spent up to now is       12.9 secs

     Self-consistent Calculation

     iteration #  1     ecut=    40.00 Ry     beta= 0.60
     Davidson diagonalization with overlap
     ethr =  1.00E-02,  avg # of iterations =  5.0

     total cpu time spent up to now is       28.9 secs

     total energy              =    -337.31041983 Ry
     Harris-Foulkes estimate   =    -731.97194267 Ry
     estimated scf accuracy    <     474.68625273 Ry

     iteration #  2     ecut=    40.00 Ry     beta= 0.60
     Davidson diagonalization with overlap
     c_bands:  1 eigenvalues not converged
     c_bands:  1 eigenvalues not converged
     c_bands:  4 eigenvalues not converged
     c_bands:  2 eigenvalues not converged
     c_bands:  1 eigenvalues not converged
     c_bands:  2 eigenvalues not converged
     c_bands:  1 eigenvalues not converged
     c_bands:  1 eigenvalues not converged
     c_bands:  2 eigenvalues not converged
     c_bands:  1 eigenvalues not converged
     c_bands:  1 eigenvalues not converged
     c_bands:  2 eigenvalues not converged
     c_bands:  1 eigenvalues not converged
     c_bands:  1 eigenvalues not converged
     c_bands:  1 eigenvalues not converged
     c_bands:  2 eigenvalues not converged
     c_bands:  1 eigenvalues not converged
     c_bands:  1 eigenvalues not converged
     c_bands:  1 eigenvalues not converged
     c_bands:  1 eigenvalues not converged
     c_bands:  1 eigenvalues not converged
     c_bands:  1 eigenvalues not converged
     c_bands:  1 eigenvalues not converged
     c_bands:  2 eigenvalues not converged
     c_bands:  1 eigenvalues not converged
     c_bands:  2 eigenvalues not converged
     c_bands:  2 eigenvalues not converged
     c_bands:  1 eigenvalues not converged
     c_bands:  1 eigenvalues not converged
     c_bands:  1 eigenvalues not converged
     c_bands:  1 eigenvalues not converged
     c_bands:  1 eigenvalues not converged
     c_bands:  1 eigenvalues not converged
     c_bands:  1 eigenvalues not converged
     c_bands:  1 eigenvalues not converged
     c_bands:  2 eigenvalues not converged
     c_bands:  1 eigenvalues not converged
     c_bands:  1 eigenvalues not converged
     c_bands:  1 eigenvalues not converged
     c_bands:  1 eigenvalues not converged
     c_bands:  1 eigenvalues not converged
     c_bands:  1 eigenvalues not converged
     c_bands:  1 eigenvalues not converged
     c_bands:  1 eigenvalues not converged
     c_bands:  2 eigenvalues not converged
     c_bands:  1 eigenvalues not converged
     c_bands:  2 eigenvalues not converged
     c_bands:  2 eigenvalues not converged
     c_bands:  2 eigenvalues not converged
     c_bands:  3 eigenvalues not converged
     c_bands:  1 eigenvalues not converged
     c_bands:  1 eigenvalues not converged
     c_bands:  1 eigenvalues not converged
     c_bands:  1 eigenvalues not converged
     c_bands:  1 eigenvalues not converged
     c_bands:  1 eigenvalues not converged
     c_bands:  1 eigenvalues not converged
     c_bands:  1 eigenvalues not converged
     c_bands:  1 eigenvalues not converged
     c_bands:  2 eigenvalues not converged
     c_bands:  4 eigenvalues not converged
     c_bands:  3 eigenvalues not converged
     c_bands:  2 eigenvalues not converged
     c_bands:  5 eigenvalues not converged
     c_bands:  1 eigenvalues not converged
     c_bands:  1 eigenvalues not converged
     c_bands:  1 eigenvalues not converged
     c_bands:  2 eigenvalues not converged
     c_bands:  1 eigenvalues not converged
     c_bands:  1 eigenvalues not converged
     c_bands:  2 eigenvalues not converged
     c_bands:  1 eigenvalues not converged
     c_bands:  1 eigenvalues not converged
     c_bands:  1 eigenvalues not converged
     c_bands:  1 eigenvalues not converged
     c_bands:  1 eigenvalues not converged
     c_bands:  1 eigenvalues not converged
     c_bands:  1 eigenvalues not converged
     c_bands:  1 eigenvalues not converged
     c_bands:  1 eigenvalues not converged
     c_bands:  1 eigenvalues not converged
     ethr =  1.00E-02,  avg # of iterations = 19.7

     total cpu time spent up to now is       93.4 secs

     total energy              =    -651.02546679 Ry
     Harris-Foulkes estimate   =   -1823.45910584 Ry
     estimated scf accuracy    <    4650.25986703 Ry

     iteration #  3     ecut=    40.00 Ry     beta= 0.60
     Davidson diagonalization with overlap
     ethr =  1.00E-02,  avg # of iterations =  9.2

     total cpu time spent up to now is      128.2 secs

     total energy              =    -731.81689444 Ry
     Harris-Foulkes estimate   =    -940.70605944 Ry
     estimated scf accuracy    <     996.83004557 Ry

     iteration #  4     ecut=    40.00 Ry     beta= 0.60
     Davidson diagonalization with overlap
     ethr =  1.00E-02,  avg # of iterations =  7.6

     total cpu time spent up to now is      152.0 secs

     total energy              =    -684.68626785 Ry
     Harris-Foulkes estimate   =    -779.27235486 Ry
     estimated scf accuracy    <     722.13559940 Ry

     iteration #  5     ecut=    40.00 Ry     beta= 0.60
     Davidson diagonalization with overlap
     ethr =  1.00E-02,  avg # of iterations =  7.1

     total cpu time spent up to now is      175.1 secs

     total energy              =    -707.63301203 Ry
     Harris-Foulkes estimate   =    -717.19828226 Ry
     estimated scf accuracy    <     101.19673946 Ry

     iteration #  6     ecut=    40.00 Ry     beta= 0.60
     Davidson diagonalization with overlap
     ethr =  1.00E-02,  avg # of iterations =  7.1

     total cpu time spent up to now is    18390.1 secs

     total energy              =    -690.08208716 Ry
     Harris-Foulkes estimate   =    -726.28146576 Ry
     estimated scf accuracy    <     487.43652758 Ry

     iteration #  7     ecut=    40.00 Ry     beta= 0.60
     Davidson diagonalization with overlap
     ethr =  1.00E-02,  avg # of iterations =  3.8

     total cpu time spent up to now is    18404.5 secs

     total energy              =    -707.37576578 Ry
     Harris-Foulkes estimate   =    -707.82313388 Ry
     estimated scf accuracy    <      15.76483938 Ry

     iteration #  8     ecut=    40.00 Ry     beta= 0.60
     Davidson diagonalization with overlap
     ethr =  1.00E-02,  avg # of iterations =  1.1

     total cpu time spent up to now is    37259.5 secs

     total energy              =    -707.98521398 Ry
     Harris-Foulkes estimate   =    -707.49687441 Ry
     estimated scf accuracy    <      15.56956999 Ry

     iteration #  9     ecut=    40.00 Ry     beta= 0.60
     Davidson diagonalization with overlap
     ethr =  1.00E-02,  avg # of iterations =  1.0

     total cpu time spent up to now is    37269.0 secs

     total energy              =    -708.36281323 Ry
     Harris-Foulkes estimate   =    -708.01516919 Ry
     estimated scf accuracy    <      16.14156895 Ry

     iteration # 10     ecut=    40.00 Ry     beta= 0.60
     Davidson diagonalization with overlap
     ethr =  1.00E-02,  avg # of iterations =  1.0

     total cpu time spent up to now is    37278.6 secs

     total energy              =    -697.59518309 Ry
     Harris-Foulkes estimate   =    -708.38384052 Ry
     estimated scf accuracy    <      17.15516968 Ry

     iteration # 11     ecut=    40.00 Ry     beta= 0.60
     Davidson diagonalization with overlap
     ethr =  1.00E-02,  avg # of iterations =  6.3

     total cpu time spent up to now is    37301.5 secs

     total energy              =    -688.02594531 Ry
     Harris-Foulkes estimate   =    -760.03325447 Ry
     estimated scf accuracy    <     717.30365170 Ry

     iteration # 12     ecut=    40.00 Ry     beta= 0.60
     Davidson diagonalization with overlap
     ethr =  1.00E-02,  avg # of iterations =  6.2

     total cpu time spent up to now is    37323.1 secs

     total energy              =    -704.74351131 Ry
     Harris-Foulkes estimate   =    -706.71294311 Ry
     estimated scf accuracy    <      37.16183500 Ry

     iteration # 13     ecut=    40.00 Ry     beta= 0.60
     Davidson diagonalization with overlap
     ethr =  1.00E-02,  avg # of iterations =  3.8

     total cpu time spent up to now is    37335.6 secs

     total energy              =    -706.47527926 Ry
     Harris-Foulkes estimate   =    -707.14590236 Ry
     estimated scf accuracy    <      14.63803862 Ry

     iteration # 14     ecut=    40.00 Ry     beta= 0.60
     Davidson diagonalization with overlap
     ethr =  1.00E-02,  avg # of iterations =  1.2

     total cpu time spent up to now is    37345.1 secs

     total energy              =    -706.52330198 Ry
     Harris-Foulkes estimate   =    -706.57317154 Ry
     estimated scf accuracy    <       7.10177358 Ry

     iteration # 15     ecut=    40.00 Ry     beta= 0.60
     Davidson diagonalization with overlap
     ethr =  9.22E-03,  avg # of iterations =  1.0

     total cpu time spent up to now is    37354.6 secs

     total energy              =    -706.28346375 Ry
     Harris-Foulkes estimate   =    -706.53597311 Ry
     estimated scf accuracy    <       6.22587089 Ry

     iteration # 16     ecut=    40.00 Ry     beta= 0.60
     Davidson diagonalization with overlap
     ethr =  8.09E-03,  avg # of iterations =  1.0

     total cpu time spent up to now is    37364.1 secs

     total energy              =    -706.53196566 Ry
     Harris-Foulkes estimate   =    -706.45314119 Ry
     estimated scf accuracy    <       5.27606681 Ry

     iteration # 17     ecut=    40.00 Ry     beta= 0.60
     Davidson diagonalization with overlap
     ethr =  6.85E-03,  avg # of iterations =  1.0

     total cpu time spent up to now is    37373.5 secs

     total energy              =    -706.23704941 Ry
     Harris-Foulkes estimate   =    -706.54593553 Ry
     estimated scf accuracy    <       5.72844510 Ry

     iteration # 18     ecut=    40.00 Ry     beta= 0.60
     Davidson diagonalization with overlap
     ethr =  6.85E-03,  avg # of iterations =  1.1

     total cpu time spent up to now is    37382.9 secs

     total energy              =    -706.16265954 Ry
     Harris-Foulkes estimate   =    -706.38829985 Ry
     estimated scf accuracy    <      10.81497171 Ry

     iteration # 19     ecut=    40.00 Ry     beta= 0.60
     Davidson diagonalization with overlap
     ethr =  6.85E-03,  avg # of iterations =  4.2

     total cpu time spent up to now is    37397.5 secs

     total energy              =    -708.30201784 Ry
     Harris-Foulkes estimate   =    -708.86154631 Ry
     estimated scf accuracy    <     100.99307347 Ry

     iteration # 20     ecut=    40.00 Ry     beta= 0.60
     Davidson diagonalization with overlap
     ethr =  6.85E-03,  avg # of iterations =  1.0

     total cpu time spent up to now is    37406.9 secs

     total energy              =    -706.56853890 Ry
     Harris-Foulkes estimate   =    -708.34324864 Ry
     estimated scf accuracy    <     101.51597693 Ry

     iteration # 21     ecut=    40.00 Ry     beta= 0.60
     Davidson diagonalization with overlap
     ethr =  6.85E-03,  avg # of iterations =  1.0

     total cpu time spent up to now is    37416.4 secs

     total energy              =    -706.65532038 Ry
     Harris-Foulkes estimate   =    -706.87387451 Ry
     estimated scf accuracy    <      39.86189567 Ry

     iteration # 22     ecut=    40.00 Ry     beta= 0.60
     Davidson diagonalization with overlap
     ethr =  6.85E-03,  avg # of iterations =  1.0

     total cpu time spent up to now is    37425.8 secs

     total energy              =    -704.63298694 Ry
     Harris-Foulkes estimate   =    -706.68172851 Ry
     estimated scf accuracy    <      32.09824592 Ry

     iteration # 23     ecut=    40.00 Ry     beta= 0.60
     Davidson diagonalization with overlap
     ethr =  6.85E-03,  avg # of iterations =  2.9

     total cpu time spent up to now is    37436.8 secs

     total energy              =    -706.06422226 Ry
     Harris-Foulkes estimate   =    -706.38924201 Ry
     estimated scf accuracy    <       7.19833449 Ry

     iteration # 24     ecut=    40.00 Ry     beta= 0.60
     Davidson diagonalization with overlap
     ethr =  6.85E-03,  avg # of iterations =  1.2

     total cpu time spent up to now is    37446.4 secs

     total energy              =    -706.18348965 Ry
     Harris-Foulkes estimate   =    -706.16574307 Ry
     estimated scf accuracy    <       0.72796036 Ry

     iteration # 25     ecut=    40.00 Ry     beta= 0.60
     Davidson diagonalization with overlap
     ethr =  9.45E-04,  avg # of iterations =  4.7

     total cpu time spent up to now is    37459.0 secs

     total energy              =    -706.12422430 Ry
     Harris-Foulkes estimate   =    -706.19262040 Ry
     estimated scf accuracy    <       1.26528184 Ry

     iteration # 26     ecut=    40.00 Ry     beta= 0.60
     Davidson diagonalization with overlap
     ethr =  9.45E-04,  avg # of iterations =  1.4

     total cpu time spent up to now is    37468.7 secs

     total energy              =    -706.15798647 Ry
     Harris-Foulkes estimate   =    -706.15878288 Ry
     estimated scf accuracy    <       0.04154745 Ry

     iteration # 27     ecut=    40.00 Ry     beta= 0.60
     Davidson diagonalization with overlap
     ethr =  5.40E-05,  avg # of iterations =  7.0

     total cpu time spent up to now is    37486.0 secs

     total energy              =    -706.16387357 Ry
     Harris-Foulkes estimate   =    -706.16515041 Ry
     estimated scf accuracy    <       0.01008012 Ry

     iteration # 28     ecut=    40.00 Ry     beta= 0.60
     Davidson diagonalization with overlap
     ethr =  1.31E-05,  avg # of iterations =  1.8

     total cpu time spent up to now is    37496.0 secs

     total energy              =    -706.16506129 Ry
     Harris-Foulkes estimate   =    -706.16444431 Ry
     estimated scf accuracy    <       0.01386339 Ry

     iteration # 29     ecut=    40.00 Ry     beta= 0.60
     Davidson diagonalization with overlap
     ethr =  1.31E-05,  avg # of iterations =  3.2

     total cpu time spent up to now is    37507.2 secs

     total energy              =    -706.16599120 Ry
     Harris-Foulkes estimate   =    -706.16595499 Ry
     estimated scf accuracy    <       0.06961278 Ry

     iteration # 30     ecut=    40.00 Ry     beta= 0.60
     Davidson diagonalization with overlap
     ethr =  1.31E-05,  avg # of iterations =  1.1

     total cpu time spent up to now is    37516.7 secs

     total energy              =    -706.16589325 Ry
     Harris-Foulkes estimate   =    -706.16605745 Ry
     estimated scf accuracy    <       0.08526772 Ry

     iteration # 31     ecut=    40.00 Ry     beta= 0.60
     Davidson diagonalization with overlap
     ethr =  1.31E-05,  avg # of iterations =  1.0

     total cpu time spent up to now is    37526.1 secs

     total energy              =    -706.16369771 Ry
     Harris-Foulkes estimate   =    -706.16590870 Ry
     estimated scf accuracy    <       0.08007699 Ry

     iteration # 32     ecut=    40.00 Ry     beta= 0.60
     Davidson diagonalization with overlap
     ethr =  1.31E-05,  avg # of iterations =  1.4

     total cpu time spent up to now is    37535.9 secs

     total energy              =    -706.16172825 Ry
     Harris-Foulkes estimate   =    -706.16407471 Ry
     estimated scf accuracy    <       0.03478204 Ry

     iteration # 33     ecut=    40.00 Ry     beta= 0.60
     Davidson diagonalization with overlap
     ethr =  1.31E-05,  avg # of iterations =  4.1

     total cpu time spent up to now is    37548.4 secs

     total energy              =    -706.16286980 Ry
     Harris-Foulkes estimate   =    -706.16297497 Ry
     estimated scf accuracy    <       0.00106592 Ry

     iteration # 34     ecut=    40.00 Ry     beta= 0.60
     Davidson diagonalization with overlap
     ethr =  1.38E-06,  avg # of iterations =  4.9

     total cpu time spent up to now is    37561.8 secs

     total energy              =    -706.16294530 Ry
     Harris-Foulkes estimate   =    -706.16294914 Ry
     estimated scf accuracy    <       0.00006451 Ry

     iteration # 35     ecut=    40.00 Ry     beta= 0.60
     Davidson diagonalization with overlap
     ethr =  8.38E-08,  avg # of iterations =  3.4

     total cpu time spent up to now is    37574.0 secs

     total energy              =    -706.16295234 Ry
     Harris-Foulkes estimate   =    -706.16295291 Ry
     estimated scf accuracy    <       0.00001188 Ry

     iteration # 36     ecut=    40.00 Ry     beta= 0.60
     Davidson diagonalization with overlap
     ethr =  1.54E-08,  avg # of iterations =  3.0

     total cpu time spent up to now is    37585.3 secs

     total energy              =    -706.16295293 Ry
     Harris-Foulkes estimate   =    -706.16295302 Ry
     estimated scf accuracy    <       0.00000042 Ry

     iteration # 37     ecut=    40.00 Ry     beta= 0.60
     Davidson diagonalization with overlap
     ethr =  5.49E-10,  avg # of iterations =  5.0

     total cpu time spent up to now is    37601.2 secs

     total energy              =    -706.16295308 Ry
     Harris-Foulkes estimate   =    -706.16295312 Ry
     estimated scf accuracy    <       0.00000025 Ry

     iteration # 38     ecut=    40.00 Ry     beta= 0.60
     Davidson diagonalization with overlap
     ethr =  3.27E-10,  avg # of iterations =  2.9

     total cpu time spent up to now is    37611.9 secs

     total energy              =    -706.16295310 Ry
     Harris-Foulkes estimate   =    -706.16295310 Ry
     estimated scf accuracy    <       0.00000004 Ry

     iteration # 39     ecut=    40.00 Ry     beta= 0.60
     Davidson diagonalization with overlap
     ethr =  5.29E-11,  avg # of iterations =  3.4

     total cpu time spent up to now is    37623.6 secs

     total energy              =    -706.16295310 Ry
     Harris-Foulkes estimate   =    -706.16295311 Ry
     estimated scf accuracy    <          4.6E-09 Ry

     iteration # 40     ecut=    40.00 Ry     beta= 0.60
     Davidson diagonalization with overlap
     ethr =  5.92E-12,  avg # of iterations =  3.7

     total cpu time spent up to now is    37636.1 secs

     total energy              =    -706.16295311 Ry
     Harris-Foulkes estimate   =    -706.16295311 Ry
     estimated scf accuracy    <          2.4E-09 Ry

     iteration # 41     ecut=    40.00 Ry     beta= 0.60
     Davidson diagonalization with overlap
     ethr =  3.15E-12,  avg # of iterations =  1.1

     total cpu time spent up to now is    37645.6 secs

     total energy              =    -706.16295311 Ry
     Harris-Foulkes estimate   =    -706.16295311 Ry
     estimated scf accuracy    <          4.9E-10 Ry

     iteration # 42     ecut=    40.00 Ry     beta= 0.60
     Davidson diagonalization with overlap
     ethr =  6.30E-13,  avg # of iterations =  3.8

     total cpu time spent up to now is    37657.9 secs

     End of self-consistent calculation

     Number of k-points >= 100: set verbosity='high' to print the bands.

     the Fermi energy is    15.4870 ev

!    total energy              =    -706.16295311 Ry
     Harris-Foulkes estimate   =    -706.16295311 Ry
     estimated scf accuracy    <          7.9E-11 Ry

     The total energy is the sum of the following terms:

     one-electron contribution =    -151.75744179 Ry
     hartree contribution      =     108.01614278 Ry
     xc contribution           =    -106.09007850 Ry
     ewald contribution        =    -556.33015863 Ry
     smearing contrib. (-TS)   =      -0.00141696 Ry

     convergence has been achieved in  42 iterations

     Forces acting on atoms (cartesian axes, Ry/au):

     atom    1 type  2   force =     0.00000000    0.00000000    0.00000000
     atom    2 type  1   force =     0.00000000   -0.00000000    0.01629498
     atom    3 type  1   force =     0.00000000   -0.00000000    0.00180547
     atom    4 type  1   force =    -0.00000000    0.00000000   -0.01629498
     atom    5 type  1   force =    -0.00000000    0.00000000   -0.00180547
     atom    6 type  1   force =     0.00000000    0.00000000    0.00000000

     Total force =     0.023186     Total SCF correction =     0.000043


     Computing stress (Cartesian axis) and pressure

          total   stress  (Ry/bohr**3)                   (kbar)     P= -108.28
  -0.00088216  -0.00000000   0.00000000       -129.77     -0.00      0.00
  -0.00000000  -0.00088216   0.00000000         -0.00   -129.77      0.00
   0.00000000   0.00000000  -0.00044397          0.00      0.00    -65.31


     BFGS Geometry Optimization

     number of scf cycles    =   1
     number of bfgs steps    =   0

     enthalpy new            =    -706.1629531054 Ry

     new trust radius        =       0.1254046780 bohr
     new conv_thr            =            1.0E-10 Ry

     new unit-cell volume =    764.50093 a.u.^3 (   113.28735 Ang^3 )
     density =      7.51062 g/cm^3

CELL_PARAMETERS (alat=  1.88972599)
  -1.488924849  -2.578893672  -0.000000000
   2.977849698   0.000000000   0.000000000
   0.000000000   0.000000000  14.751809735

ATOMIC_POSITIONS (angstrom)
Ti       1.488924849  -2.578893672   4.917269912
Nb       0.000001489  -1.719263308   2.467162179
Nb       1.488924849  -2.578893672   9.835484630
Nb       0.000001489  -1.719263308   7.367377644
Nb       1.488924849  -2.578893672  14.750864928
Nb       0.000001489  -1.719263308  12.293174779


     NEW-OLD atomic charge density approx. for the potential

     Check: negative/imaginary core charge=   -0.000001    0.000000
     extrapolated charge   72.64242, renormalised to   77.00000

     total cpu time spent up to now is    37667.0 secs

     Self-consistent Calculation

     iteration #  1     ecut=    40.00 Ry     beta= 0.60
     Davidson diagonalization with overlap
     c_bands:  1 eigenvalues not converged
     c_bands:  2 eigenvalues not converged
     c_bands:  2 eigenvalues not converged
     c_bands:  1 eigenvalues not converged
     c_bands:  1 eigenvalues not converged
     c_bands:  1 eigenvalues not converged
     c_bands:  1 eigenvalues not converged
     c_bands:  1 eigenvalues not converged
     c_bands:  1 eigenvalues not converged
     ethr =  1.00E-06,  avg # of iterations = 14.2

     total cpu time spent up to now is    37707.4 secs

     total energy              =    -672.45140714 Ry
     Harris-Foulkes estimate   =    -712.13742901 Ry
     estimated scf accuracy    <      40.33991943 Ry

     iteration #  2     ecut=    40.00 Ry     beta= 0.60
     Davidson diagonalization with overlap
     ethr =  1.00E-02,  avg # of iterations =  9.5

     total cpu time spent up to now is    37741.4 secs

     total energy              =    -616.33938532 Ry
     Harris-Foulkes estimate   =    -982.49106555 Ry
     estimated scf accuracy    <    3221.22433099 Ry

     iteration #  3     ecut=    40.00 Ry     beta= 0.60
     Davidson diagonalization with overlap
     ethr =  1.00E-02,  avg # of iterations =  7.6

     total cpu time spent up to now is    37770.4 secs

     total energy              =    -708.17682207 Ry
     Harris-Foulkes estimate   =    -719.95763866 Ry
     estimated scf accuracy    <     193.76587358 Ry

     iteration #  4     ecut=    40.00 Ry     beta= 0.60
     Davidson diagonalization with overlap
     ethr =  1.00E-02,  avg # of iterations =  2.9

     total cpu time spent up to now is    37782.4 secs

     total energy              =    -708.48798992 Ry
     Harris-Foulkes estimate   =    -710.53682077 Ry
     estimated scf accuracy    <     175.00691609 Ry

     iteration #  5     ecut=    40.00 Ry     beta= 0.60
     Davidson diagonalization with overlap
     ethr =  1.00E-02,  avg # of iterations =  1.1

     total cpu time spent up to now is    37791.7 secs

     total energy              =    -708.00955129 Ry
     Harris-Foulkes estimate   =    -708.64482879 Ry
     estimated scf accuracy    <     124.40256447 Ry

     iteration #  6     ecut=    40.00 Ry     beta= 0.60
     Davidson diagonalization with overlap
     ethr =  1.00E-02,  avg # of iterations =  1.9

     total cpu time spent up to now is    37801.7 secs

     total energy              =    -704.13970429 Ry
     Harris-Foulkes estimate   =    -708.18747272 Ry
     estimated scf accuracy    <     147.19901097 Ry

     iteration #  7     ecut=    40.00 Ry     beta= 0.60
     Davidson diagonalization with overlap
     ethr =  1.00E-02,  avg # of iterations =  4.3

     total cpu time spent up to now is    37816.1 secs

     total energy              =    -706.56272226 Ry
     Harris-Foulkes estimate   =    -706.71783682 Ry
     estimated scf accuracy    <       5.02766816 Ry

     iteration #  8     ecut=    40.00 Ry     beta= 0.60
     Davidson diagonalization with overlap
     ethr =  6.53E-03,  avg # of iterations =  4.1

     total cpu time spent up to now is    37828.5 secs

     total energy              =    -706.48866240 Ry
     Harris-Foulkes estimate   =    -707.60425208 Ry
     estimated scf accuracy    <      56.65728665 Ry

     iteration #  9     ecut=    40.00 Ry     beta= 0.60
     Davidson diagonalization with overlap
     ethr =  6.53E-03,  avg # of iterations =  1.1

     total cpu time spent up to now is    37837.9 secs

     total energy              =    -705.56347132 Ry
     Harris-Foulkes estimate   =    -706.66372997 Ry
     estimated scf accuracy    <      22.73743270 Ry

     iteration # 10     ecut=    40.00 Ry     beta= 0.60
     Davidson diagonalization with overlap
     ethr =  6.53E-03,  avg # of iterations =  2.1

     total cpu time spent up to now is    37848.0 secs

     total energy              =    -706.11846341 Ry
     Harris-Foulkes estimate   =    -706.28000378 Ry
     estimated scf accuracy    <       2.32430006 Ry

     iteration # 11     ecut=    40.00 Ry     beta= 0.60
     Davidson diagonalization with overlap
     ethr =  3.02E-03,  avg # of iterations =  1.5

     total cpu time spent up to now is    37857.6 secs

     total energy              =    -706.08517651 Ry
     Harris-Foulkes estimate   =    -706.42236862 Ry
     estimated scf accuracy    <       9.94262437 Ry

     iteration # 12     ecut=    40.00 Ry     beta= 0.60
     Davidson diagonalization with overlap
     ethr =  3.02E-03,  avg # of iterations =  1.4

     total cpu time spent up to now is    37867.2 secs

     total energy              =    -706.24034710 Ry
     Harris-Foulkes estimate   =    -706.34854908 Ry
     estimated scf accuracy    <       2.11193264 Ry

     iteration # 13     ecut=    40.00 Ry     beta= 0.60
     Davidson diagonalization with overlap
     ethr =  2.74E-03,  avg # of iterations =  1.0

     total cpu time spent up to now is    37876.4 secs

     total energy              =    -706.51464671 Ry
     Harris-Foulkes estimate   =    -706.34999690 Ry
     estimated scf accuracy    <       1.94805175 Ry

     iteration # 14     ecut=    40.00 Ry     beta= 0.60
     Davidson diagonalization with overlap
     ethr =  2.53E-03,  avg # of iterations =  1.1

     total cpu time spent up to now is    37885.7 secs

     total energy              =    -706.09927188 Ry
     Harris-Foulkes estimate   =    -706.55252336 Ry
     estimated scf accuracy    <       6.08346191 Ry

     iteration # 15     ecut=    40.00 Ry     beta= 0.60
     Davidson diagonalization with overlap
     ethr =  2.53E-03,  avg # of iterations =  1.4

     total cpu time spent up to now is    37895.4 secs

     total energy              =    -706.10421706 Ry
     Harris-Foulkes estimate   =    -706.19816715 Ry
     estimated scf accuracy    <       0.82606349 Ry

     iteration # 16     ecut=    40.00 Ry     beta= 0.60
     Davidson diagonalization with overlap
     ethr =  1.07E-03,  avg # of iterations =  5.0

     total cpu time spent up to now is    37909.2 secs

     total energy              =    -706.16558249 Ry
     Harris-Foulkes estimate   =    -706.23137390 Ry
     estimated scf accuracy    <       2.02941154 Ry

     iteration # 17     ecut=    40.00 Ry     beta= 0.60
     Davidson diagonalization with overlap
     ethr =  1.07E-03,  avg # of iterations =  1.1

     total cpu time spent up to now is    37918.5 secs

     total energy              =    -706.18240028 Ry
     Harris-Foulkes estimate   =    -706.19833013 Ry
     estimated scf accuracy    <       0.19750203 Ry

     iteration # 18     ecut=    40.00 Ry     beta= 0.60
     Davidson diagonalization with overlap
     ethr =  2.56E-04,  avg # of iterations =  2.3

     total cpu time spent up to now is    37928.6 secs

     total energy              =    -706.17932113 Ry
     Harris-Foulkes estimate   =    -706.19258041 Ry
     estimated scf accuracy    <       0.26714350 Ry

     iteration # 19     ecut=    40.00 Ry     beta= 0.60
     Davidson diagonalization with overlap
     ethr =  2.56E-04,  avg # of iterations =  2.1

     total cpu time spent up to now is    37938.6 secs

     total energy              =    -706.18681945 Ry
     Harris-Foulkes estimate   =    -706.18728507 Ry
     estimated scf accuracy    <       0.00379694 Ry

     iteration # 20     ecut=    40.00 Ry     beta= 0.60
     Davidson diagonalization with overlap
     ethr =  4.93E-06,  avg # of iterations =  7.1

     total cpu time spent up to now is    37958.5 secs

     total energy              =    -706.18871713 Ry
     Harris-Foulkes estimate   =    -706.18916371 Ry
     estimated scf accuracy    <       0.00847642 Ry

     iteration # 21     ecut=    40.00 Ry     beta= 0.60
     Davidson diagonalization with overlap
     ethr =  4.93E-06,  avg # of iterations =  1.0

     total cpu time spent up to now is    37967.8 secs

     total energy              =    -706.18850411 Ry
     Harris-Foulkes estimate   =    -706.18885883 Ry
     estimated scf accuracy    <       0.00509461 Ry

     iteration # 22     ecut=    40.00 Ry     beta= 0.60
     Davidson diagonalization with overlap
     ethr =  4.93E-06,  avg # of iterations =  1.3

     total cpu time spent up to now is    37977.3 secs

     total energy              =    -706.18847361 Ry
     Harris-Foulkes estimate   =    -706.18857554 Ry
     estimated scf accuracy    <       0.00275868 Ry

     iteration # 23     ecut=    40.00 Ry     beta= 0.60
     Davidson diagonalization with overlap
     ethr =  3.58E-06,  avg # of iterations =  1.0

     total cpu time spent up to now is    37986.6 secs

     total energy              =    -706.18838948 Ry
     Harris-Foulkes estimate   =    -706.18850839 Ry
     estimated scf accuracy    <       0.00085794 Ry

     iteration # 24     ecut=    40.00 Ry     beta= 0.60
     Davidson diagonalization with overlap
     ethr =  1.11E-06,  avg # of iterations =  4.3

     total cpu time spent up to now is    37999.2 secs

     total energy              =    -706.18847742 Ry
     Harris-Foulkes estimate   =    -706.18848228 Ry
     estimated scf accuracy    <       0.00006106 Ry

     iteration # 25     ecut=    40.00 Ry     beta= 0.60
     Davidson diagonalization with overlap
     ethr =  7.93E-08,  avg # of iterations =  2.6

     total cpu time spent up to now is    38010.0 secs

     total energy              =    -706.18848058 Ry
     Harris-Foulkes estimate   =    -706.18848096 Ry
     estimated scf accuracy    <       0.00000390 Ry

     iteration # 26     ecut=    40.00 Ry     beta= 0.60
     Davidson diagonalization with overlap
     ethr =  5.07E-09,  avg # of iterations =  4.2

     total cpu time spent up to now is    38023.7 secs

     total energy              =    -706.18848132 Ry
     Harris-Foulkes estimate   =    -706.18848135 Ry
     estimated scf accuracy    <       0.00000026 Ry

     iteration # 27     ecut=    40.00 Ry     beta= 0.60
     Davidson diagonalization with overlap
     ethr =  3.32E-10,  avg # of iterations =  2.7

     total cpu time spent up to now is    38034.5 secs

     total energy              =    -706.18848134 Ry
     Harris-Foulkes estimate   =    -706.18848134 Ry
     estimated scf accuracy    <       0.00000001 Ry

     iteration # 28     ecut=    40.00 Ry     beta= 0.60
     Davidson diagonalization with overlap
     ethr =  1.65E-11,  avg # of iterations =  4.7

     total cpu time spent up to now is    38050.1 secs

     total energy              =    -706.18848134 Ry
     Harris-Foulkes estimate   =    -706.18848134 Ry
     estimated scf accuracy    <          8.7E-09 Ry

     iteration # 29     ecut=    40.00 Ry     beta= 0.60
     Davidson diagonalization with overlap
     ethr =  1.13E-11,  avg # of iterations =  1.1

     total cpu time spent up to now is    38059.4 secs

     total energy              =    -706.18848134 Ry
     Harris-Foulkes estimate   =    -706.18848134 Ry
     estimated scf accuracy    <          1.3E-09 Ry

     iteration # 30     ecut=    40.00 Ry     beta= 0.60
     Davidson diagonalization with overlap
     ethr =  1.64E-12,  avg # of iterations =  4.0

     total cpu time spent up to now is    38072.2 secs

     total energy              =    -706.18848134 Ry
     Harris-Foulkes estimate   =    -706.18848134 Ry
     estimated scf accuracy    <          1.9E-10 Ry

     iteration # 31     ecut=    40.00 Ry     beta= 0.60
     Davidson diagonalization with overlap
     ethr =  2.43E-13,  avg # of iterations =  1.7

     total cpu time spent up to now is    38081.9 secs

     End of self-consistent calculation

     Number of k-points >= 100: set verbosity='high' to print the bands.

     the Fermi energy is    16.5258 ev

!    total energy              =    -706.18848134 Ry
     Harris-Foulkes estimate   =    -706.18848134 Ry
     estimated scf accuracy    <          7.5E-12 Ry

     The total energy is the sum of the following terms:

     one-electron contribution =    -136.61282721 Ry
     hartree contribution      =     103.70383968 Ry
     xc contribution           =    -106.41986960 Ry
     ewald contribution        =    -566.85892603 Ry
     smearing contrib. (-TS)   =      -0.00069819 Ry

     convergence has been achieved in  31 iterations

     Forces acting on atoms (cartesian axes, Ry/au):

     atom    1 type  2   force =    -0.00000000    0.00000000   -0.00000000
     atom    2 type  1   force =     0.00000000   -0.00000000    0.01855874
     atom    3 type  1   force =     0.00000000    0.00000000   -0.00131630
     atom    4 type  1   force =     0.00000000    0.00000000   -0.01855874
     atom    5 type  1   force =    -0.00000000    0.00000000    0.00131630
     atom    6 type  1   force =    -0.00000000    0.00000000   -0.00000000

     Total force =     0.026312     Total SCF correction =     0.000009


     Computing stress (Cartesian axis) and pressure

          total   stress  (Ry/bohr**3)                   (kbar)     P=  -38.26
  -0.00041487  -0.00000000   0.00000000        -61.03     -0.00      0.00
  -0.00000000  -0.00041487  -0.00000000         -0.00    -61.03     -0.00
  -0.00000000   0.00000000   0.00004945         -0.00      0.00      7.27


     number of scf cycles    =   2
     number of bfgs steps    =   1

     enthalpy old            =    -706.1629531054 Ry
     enthalpy new            =    -706.1884813435 Ry

     CASE: enthalpy_new < enthalpy_old

     new trust radius        =       0.1085362920 bohr
     new conv_thr            =            1.0E-10 Ry

     new unit-cell volume =    735.35393 a.u.^3 (   108.96821 Ang^3 )
     density =      7.80832 g/cm^3

CELL_PARAMETERS (alat=  1.88972599)
  -1.459701582  -2.528277494  -0.000000000
   2.919403165   0.000000000   0.000000000
   0.000000000  -0.000000000  14.763220162

ATOMIC_POSITIONS (angstrom)
Ti       1.459701582  -2.528277494   4.921073387
Nb       0.000001460  -1.685519172   2.486085749
Nb       1.459701582  -2.528277494   9.842055017
Nb       0.000001460  -1.685519172   7.356061026
Nb       1.459701582  -2.528277494  14.763311920
Nb       0.000001460  -1.685519172  12.302683469


     NEW-OLD atomic charge density approx. for the potential

     Check: negative/imaginary core charge=   -0.000001    0.000000
     extrapolated charge   73.98815, renormalised to   77.00000

     total cpu time spent up to now is    38090.8 secs

     Self-consistent Calculation

     iteration #  1     ecut=    40.00 Ry     beta= 0.60
     Davidson diagonalization with overlap
     c_bands:  1 eigenvalues not converged
     c_bands:  1 eigenvalues not converged
     ethr =  1.00E-06,  avg # of iterations = 13.2

     total cpu time spent up to now is    38129.3 secs

     total energy              =    -693.70250027 Ry
     Harris-Foulkes estimate   =    -709.89494054 Ry
     estimated scf accuracy    <      14.93770424 Ry

     iteration #  2     ecut=    40.00 Ry     beta= 0.60
     Davidson diagonalization with overlap
     ethr =  1.00E-02,  avg # of iterations =  8.8

     total cpu time spent up to now is    38156.0 secs

     total energy              =    -637.11549070 Ry
     Harris-Foulkes estimate   =    -833.78924127 Ry
     estimated scf accuracy    <    2295.57169017 Ry

     iteration #  3     ecut=    40.00 Ry     beta= 0.60
     Davidson diagonalization with overlap
     ethr =  1.00E-02,  avg # of iterations =  7.1

     total cpu time spent up to now is    38180.1 secs

     total energy              =    -705.84883770 Ry
     Harris-Foulkes estimate   =    -709.47650293 Ry
     estimated scf accuracy    <      94.13046973 Ry

     iteration #  4     ecut=    40.00 Ry     beta= 0.60
     Davidson diagonalization with overlap
     ethr =  1.00E-02,  avg # of iterations =  2.7

     total cpu time spent up to now is    38190.9 secs

     total energy              =    -706.17833877 Ry
     Harris-Foulkes estimate   =    -706.89872227 Ry
     estimated scf accuracy    <      50.93489556 Ry

     iteration #  5     ecut=    40.00 Ry     beta= 0.60
     Davidson diagonalization with overlap
     ethr =  1.00E-02,  avg # of iterations =  1.9

     total cpu time spent up to now is    38200.8 secs

     total energy              =    -705.76449775 Ry
     Harris-Foulkes estimate   =    -706.40146663 Ry
     estimated scf accuracy    <      20.79717021 Ry

     iteration #  6     ecut=    40.00 Ry     beta= 0.60
     Davidson diagonalization with overlap
     ethr =  1.00E-02,  avg # of iterations =  1.6

     total cpu time spent up to now is    38210.5 secs

     total energy              =    -706.09085434 Ry
     Harris-Foulkes estimate   =    -706.08261074 Ry
     estimated scf accuracy    <       1.06454889 Ry

     iteration #  7     ecut=    40.00 Ry     beta= 0.60
     Davidson diagonalization with overlap
     ethr =  1.38E-03,  avg # of iterations =  4.7

     total cpu time spent up to now is    38224.5 secs

     total energy              =    -706.20476213 Ry
     Harris-Foulkes estimate   =    -706.23677781 Ry
     estimated scf accuracy    <       0.71065127 Ry

     iteration #  8     ecut=    40.00 Ry     beta= 0.60
     Davidson diagonalization with overlap
     ethr =  9.23E-04,  avg # of iterations =  1.2

     total cpu time spent up to now is    38233.8 secs

     total energy              =    -706.20286341 Ry
     Harris-Foulkes estimate   =    -706.21187092 Ry
     estimated scf accuracy    <       0.27041532 Ry

     iteration #  9     ecut=    40.00 Ry     beta= 0.60
     Davidson diagonalization with overlap
     ethr =  3.51E-04,  avg # of iterations =  1.3

     total cpu time spent up to now is    38243.2 secs

     total energy              =    -706.19730575 Ry
     Harris-Foulkes estimate   =    -706.20542499 Ry
     estimated scf accuracy    <       0.24641866 Ry

     iteration # 10     ecut=    40.00 Ry     beta= 0.60
     Davidson diagonalization with overlap
     ethr =  3.20E-04,  avg # of iterations =  1.2

     total cpu time spent up to now is    38252.5 secs

     total energy              =    -706.19265944 Ry
     Harris-Foulkes estimate   =    -706.20008860 Ry
     estimated scf accuracy    <       0.20206874 Ry

     iteration # 11     ecut=    40.00 Ry     beta= 0.60
     Davidson diagonalization with overlap
     ethr =  2.62E-04,  avg # of iterations =  2.2

     total cpu time spent up to now is    38262.6 secs

     total energy              =    -706.19714122 Ry
     Harris-Foulkes estimate   =    -706.20067683 Ry
     estimated scf accuracy    <       0.17078893 Ry

     iteration # 12     ecut=    40.00 Ry     beta= 0.60
     Davidson diagonalization with overlap
     ethr =  2.22E-04,  avg # of iterations =  1.0

     total cpu time spent up to now is    38271.9 secs

     total energy              =    -706.19515974 Ry
     Harris-Foulkes estimate   =    -706.19844077 Ry
     estimated scf accuracy    <       0.08825312 Ry

     iteration # 13     ecut=    40.00 Ry     beta= 0.60
     Davidson diagonalization with overlap
     ethr =  1.15E-04,  avg # of iterations =  1.7

     total cpu time spent up to now is    38281.7 secs

     total energy              =    -706.19588546 Ry
     Harris-Foulkes estimate   =    -706.19633426 Ry
     estimated scf accuracy    <       0.01512477 Ry

     iteration # 14     ecut=    40.00 Ry     beta= 0.60
     Davidson diagonalization with overlap
     ethr =  1.96E-05,  avg # of iterations =  5.1

     total cpu time spent up to now is    38294.2 secs

     total energy              =    -706.19606360 Ry
     Harris-Foulkes estimate   =    -706.19619002 Ry
     estimated scf accuracy    <       0.00293637 Ry

     iteration # 15     ecut=    40.00 Ry     beta= 0.60
     Davidson diagonalization with overlap
     ethr =  3.81E-06,  avg # of iterations =  5.2

     total cpu time spent up to now is    38307.4 secs

     total energy              =    -706.19618405 Ry
     Harris-Foulkes estimate   =    -706.19620833 Ry
     estimated scf accuracy    <       0.00038675 Ry

     iteration # 16     ecut=    40.00 Ry     beta= 0.60
     Davidson diagonalization with overlap
     ethr =  5.02E-07,  avg # of iterations =  2.7

     total cpu time spent up to now is    38318.1 secs

     total energy              =    -706.19620810 Ry
     Harris-Foulkes estimate   =    -706.19620967 Ry
     estimated scf accuracy    <       0.00001224 Ry

     iteration # 17     ecut=    40.00 Ry     beta= 0.60
     Davidson diagonalization with overlap
     ethr =  1.59E-08,  avg # of iterations =  4.0

     total cpu time spent up to now is    38331.3 secs

     total energy              =    -706.19620937 Ry
     Harris-Foulkes estimate   =    -706.19621043 Ry
     estimated scf accuracy    <       0.00000500 Ry

     iteration # 18     ecut=    40.00 Ry     beta= 0.60
     Davidson diagonalization with overlap
     ethr =  6.49E-09,  avg # of iterations =  2.5

     total cpu time spent up to now is    38342.0 secs

     total energy              =    -706.19620973 Ry
     Harris-Foulkes estimate   =    -706.19620982 Ry
     estimated scf accuracy    <       0.00000082 Ry

     iteration # 19     ecut=    40.00 Ry     beta= 0.60
     Davidson diagonalization with overlap
     ethr =  1.07E-09,  avg # of iterations =  3.8

     total cpu time spent up to now is    38354.4 secs

     total energy              =    -706.19620975 Ry
     Harris-Foulkes estimate   =    -706.19620985 Ry
     estimated scf accuracy    <       0.00000107 Ry

     iteration # 20     ecut=    40.00 Ry     beta= 0.60
     Davidson diagonalization with overlap
     ethr =  1.07E-09,  avg # of iterations =  1.0

     total cpu time spent up to now is    38363.6 secs

     total energy              =    -706.19620974 Ry
     Harris-Foulkes estimate   =    -706.19620978 Ry
     estimated scf accuracy    <       0.00000022 Ry

     iteration # 21     ecut=    40.00 Ry     beta= 0.60
     Davidson diagonalization with overlap
     ethr =  2.83E-10,  avg # of iterations =  3.2

     total cpu time spent up to now is    38375.4 secs

     total energy              =    -706.19620977 Ry
     Harris-Foulkes estimate   =    -706.19620978 Ry
     estimated scf accuracy    <       0.00000008 Ry

     iteration # 22     ecut=    40.00 Ry     beta= 0.60
     Davidson diagonalization with overlap
     ethr =  1.00E-10,  avg # of iterations =  1.0

     total cpu time spent up to now is    38384.7 secs

     total energy              =    -706.19620977 Ry
     Harris-Foulkes estimate   =    -706.19620977 Ry
     estimated scf accuracy    <       0.00000004 Ry

     iteration # 23     ecut=    40.00 Ry     beta= 0.60
     Davidson diagonalization with overlap
     ethr =  5.62E-11,  avg # of iterations =  2.6

     total cpu time spent up to now is    38395.1 secs

     total energy              =    -706.19620977 Ry
     Harris-Foulkes estimate   =    -706.19620977 Ry
     estimated scf accuracy    <          6.2E-10 Ry

     iteration # 24     ecut=    40.00 Ry     beta= 0.60
     Davidson diagonalization with overlap
     ethr =  8.02E-13,  avg # of iterations =  4.7

     total cpu time spent up to now is    38411.3 secs

     total energy              =    -706.19620977 Ry
     Harris-Foulkes estimate   =    -706.19620977 Ry
     estimated scf accuracy    <          5.7E-10 Ry

     iteration # 25     ecut=    40.00 Ry     beta= 0.60
     Davidson diagonalization with overlap
     ethr =  7.41E-13,  avg # of iterations =  1.0

     total cpu time spent up to now is    38420.5 secs

     total energy              =    -706.19620977 Ry
     Harris-Foulkes estimate   =    -706.19620977 Ry
     estimated scf accuracy    <          1.1E-10 Ry

     iteration # 26     ecut=    40.00 Ry     beta= 0.60
     Davidson diagonalization with overlap
     ethr =  1.44E-13,  avg # of iterations =  2.7

     total cpu time spent up to now is    38431.3 secs

     End of self-consistent calculation

     Number of k-points >= 100: set verbosity='high' to print the bands.

     the Fermi energy is    17.2753 ev

!    total energy              =    -706.19620977 Ry
     Harris-Foulkes estimate   =    -706.19620977 Ry
     estimated scf accuracy    <          2.8E-11 Ry

     The total energy is the sum of the following terms:

     one-electron contribution =    -125.85039540 Ry
     hartree contribution      =     100.68405670 Ry
     xc contribution           =    -106.66511890 Ry
     ewald contribution        =    -574.36442424 Ry
     smearing contrib. (-TS)   =      -0.00032792 Ry

     convergence has been achieved in  26 iterations

     Forces acting on atoms (cartesian axes, Ry/au):

     atom    1 type  2   force =    -0.00000000    0.00000000    0.00000000
     atom    2 type  1   force =    -0.00000000    0.00000000    0.01534016
     atom    3 type  1   force =     0.00000000   -0.00000000   -0.00665898
     atom    4 type  1   force =     0.00000000    0.00000000   -0.01534016
     atom    5 type  1   force =     0.00000000   -0.00000000    0.00665898
     atom    6 type  1   force =     0.00000000    0.00000000    0.00000000

     Total force =     0.023650     Total SCF correction =     0.000029


     Computing stress (Cartesian axis) and pressure

          total   stress  (Ry/bohr**3)                   (kbar)     P=   19.59
  -0.00000430  -0.00000000  -0.00000000         -0.63     -0.00     -0.00
  -0.00000000  -0.00000430  -0.00000000         -0.00     -0.63     -0.00
  -0.00000000  -0.00000000   0.00040812         -0.00     -0.00     60.04


     number of scf cycles    =   3
     number of bfgs steps    =   2

     enthalpy old            =    -706.1884813435 Ry
     enthalpy new            =    -706.1962097720 Ry

     CASE: enthalpy_new < enthalpy_old

     new trust radius        =       0.0512365252 bohr
     new conv_thr            =            1.0E-10 Ry

     new unit-cell volume =    733.22800 a.u.^3 (   108.65318 Ang^3 )
     density =      7.83096 g/cm^3

CELL_PARAMETERS (alat=  1.88972599)
  -1.450753387  -2.512778766  -0.000000000
   2.901506774   0.000000000   0.000000000
   0.000000000  -0.000000000  14.902690729

ATOMIC_POSITIONS (angstrom)
Ti       1.450753387  -2.512778766   4.967563576
Nb       0.000001451  -1.675186681   2.522439899
Nb       1.450753387  -2.512778766   9.931082817
Nb       0.000001451  -1.675186681   7.412687254
Nb       1.450753387  -2.512778766  14.906735065
Nb       0.000001451  -1.675186681  12.418908941


     NEW-OLD atomic charge density approx. for the potential

     Check: negative/imaginary core charge=   -0.000001    0.000000
     extrapolated charge   76.77968, renormalised to   77.00000

     total cpu time spent up to now is    38440.3 secs

     Self-consistent Calculation

     iteration #  1     ecut=    40.00 Ry     beta= 0.60
     Davidson diagonalization with overlap
     c_bands:  1 eigenvalues not converged
     c_bands:  1 eigenvalues not converged
     ethr =  1.00E-06,  avg # of iterations =  7.3

     total cpu time spent up to now is    38465.4 secs

     total energy              =    -706.18859254 Ry
     Harris-Foulkes estimate   =    -706.45257041 Ry
     estimated scf accuracy    <       0.01251512 Ry

     iteration #  2     ecut=    40.00 Ry     beta= 0.60
     Davidson diagonalization with overlap
     ethr =  1.63E-05,  avg # of iterations =  6.8

     total cpu time spent up to now is    38487.7 secs

     total energy              =    -705.99464156 Ry
     Harris-Foulkes estimate   =    -706.40799893 Ry
     estimated scf accuracy    <      15.84193854 Ry

     iteration #  3     ecut=    40.00 Ry     beta= 0.60
     Davidson diagonalization with overlap
     ethr =  1.63E-05,  avg # of iterations =  6.4

     total cpu time spent up to now is    38507.9 secs

     total energy              =    -706.18384141 Ry
     Harris-Foulkes estimate   =    -706.21787154 Ry
     estimated scf accuracy    <       0.39653297 Ry

     iteration #  4     ecut=    40.00 Ry     beta= 0.60
     Davidson diagonalization with overlap
     ethr =  1.63E-05,  avg # of iterations =  5.8

     total cpu time spent up to now is    38525.2 secs

     total energy              =    -706.19881109 Ry
     Harris-Foulkes estimate   =    -706.20032482 Ry
     estimated scf accuracy    <       0.00541059 Ry

     iteration #  5     ecut=    40.00 Ry     beta= 0.60
     Davidson diagonalization with overlap
     ethr =  7.03E-06,  avg # of iterations =  3.4

     total cpu time spent up to now is    38537.3 secs

     total energy              =    -706.19905178 Ry
     Harris-Foulkes estimate   =    -706.20009383 Ry
     estimated scf accuracy    <       0.00700651 Ry

     iteration #  6     ecut=    40.00 Ry     beta= 0.60
     Davidson diagonalization with overlap
     ethr =  7.03E-06,  avg # of iterations =  1.9

     total cpu time spent up to now is    38547.2 secs

     total energy              =    -706.19939753 Ry
     Harris-Foulkes estimate   =    -706.19951677 Ry
     estimated scf accuracy    <       0.00071164 Ry

     iteration #  7     ecut=    40.00 Ry     beta= 0.60
     Davidson diagonalization with overlap
     ethr =  9.24E-07,  avg # of iterations =  3.3

     total cpu time spent up to now is    38559.0 secs

     total energy              =    -706.19942386 Ry
     Harris-Foulkes estimate   =    -706.19946215 Ry
     estimated scf accuracy    <       0.00019185 Ry

     iteration #  8     ecut=    40.00 Ry     beta= 0.60
     Davidson diagonalization with overlap
     ethr =  2.49E-07,  avg # of iterations =  2.6

     total cpu time spent up to now is    38569.9 secs

     total energy              =    -706.19943804 Ry
     Harris-Foulkes estimate   =    -706.19943992 Ry
     estimated scf accuracy    <       0.00001581 Ry

     iteration #  9     ecut=    40.00 Ry     beta= 0.60
     Davidson diagonalization with overlap
     ethr =  2.05E-08,  avg # of iterations =  4.0

     total cpu time spent up to now is    38583.3 secs

     total energy              =    -706.19944123 Ry
     Harris-Foulkes estimate   =    -706.19944161 Ry
     estimated scf accuracy    <       0.00000321 Ry

     iteration # 10     ecut=    40.00 Ry     beta= 0.60
     Davidson diagonalization with overlap
     ethr =  4.17E-09,  avg # of iterations =  1.5

     total cpu time spent up to now is    38592.9 secs

     total energy              =    -706.19944127 Ry
     Harris-Foulkes estimate   =    -706.19944138 Ry
     estimated scf accuracy    <       0.00000067 Ry

     iteration # 11     ecut=    40.00 Ry     beta= 0.60
     Davidson diagonalization with overlap
     ethr =  8.72E-10,  avg # of iterations =  3.6

     total cpu time spent up to now is    38605.1 secs

     total energy              =    -706.19944137 Ry
     Harris-Foulkes estimate   =    -706.19944138 Ry
     estimated scf accuracy    <       0.00000009 Ry

     iteration # 12     ecut=    40.00 Ry     beta= 0.60
     Davidson diagonalization with overlap
     ethr =  1.19E-10,  avg # of iterations =  2.5

     total cpu time spent up to now is    38615.8 secs

     total energy              =    -706.19944137 Ry
     Harris-Foulkes estimate   =    -706.19944138 Ry
     estimated scf accuracy    <       0.00000001 Ry

     iteration # 13     ecut=    40.00 Ry     beta= 0.60
     Davidson diagonalization with overlap
     ethr =  1.74E-11,  avg # of iterations =  3.7

     total cpu time spent up to now is    38628.2 secs

     total energy              =    -706.19944138 Ry
     Harris-Foulkes estimate   =    -706.19944138 Ry
     estimated scf accuracy    <          7.1E-09 Ry

     iteration # 14     ecut=    40.00 Ry     beta= 0.60
     Davidson diagonalization with overlap
     ethr =  9.18E-12,  avg # of iterations =  1.1

     total cpu time spent up to now is    38637.5 secs

     total energy              =    -706.19944138 Ry
     Harris-Foulkes estimate   =    -706.19944138 Ry
     estimated scf accuracy    <          3.4E-09 Ry

     iteration # 15     ecut=    40.00 Ry     beta= 0.60
     Davidson diagonalization with overlap
     ethr =  4.42E-12,  avg # of iterations =  1.2

     total cpu time spent up to now is    38646.8 secs

     total energy              =    -706.19944138 Ry
     Harris-Foulkes estimate   =    -706.19944138 Ry
     estimated scf accuracy    <          1.6E-10 Ry

     iteration # 16     ecut=    40.00 Ry     beta= 0.60
     Davidson diagonalization with overlap
     ethr =  2.08E-13,  avg # of iterations =  4.2

     total cpu time spent up to now is    38659.5 secs

     End of self-consistent calculation

     Number of k-points >= 100: set verbosity='high' to print the bands.

     the Fermi energy is    17.3246 ev

!    total energy              =    -706.19944138 Ry
     Harris-Foulkes estimate   =    -706.19944138 Ry
     estimated scf accuracy    <          1.8E-11 Ry

     The total energy is the sum of the following terms:

     one-electron contribution =    -125.02577952 Ry
     hartree contribution      =     100.45134325 Ry
     xc contribution           =    -106.68817594 Ry
     ewald contribution        =    -574.93652968 Ry
     smearing contrib. (-TS)   =      -0.00029949 Ry

     convergence has been achieved in  16 iterations

     Forces acting on atoms (cartesian axes, Ry/au):

     atom    1 type  2   force =     0.00000000    0.00000000    0.00000000
     atom    2 type  1   force =     0.00000000   -0.00000000    0.01064041
     atom    3 type  1   force =    -0.00000000    0.00000000   -0.00859660
     atom    4 type  1   force =    -0.00000000    0.00000000   -0.01064041
     atom    5 type  1   force =    -0.00000000   -0.00000000    0.00859660
     atom    6 type  1   force =    -0.00000000    0.00000000    0.00000000

     Total force =     0.019345     Total SCF correction =     0.000018


     Computing stress (Cartesian axis) and pressure

          total   stress  (Ry/bohr**3)                   (kbar)     P=   23.57
   0.00005413  -0.00000000  -0.00000000          7.96     -0.00     -0.00
  -0.00000000   0.00005413  -0.00000000         -0.00      7.96     -0.00
   0.00000000   0.00000000   0.00037236          0.00      0.00     54.78


     number of scf cycles    =   4
     number of bfgs steps    =   3

     enthalpy old            =    -706.1962097720 Ry
     enthalpy new            =    -706.1994413769 Ry

     CASE: enthalpy_new < enthalpy_old

     new trust radius        =       0.0760253882 bohr
     new conv_thr            =            1.0E-10 Ry

     new unit-cell volume =    735.72167 a.u.^3 (   109.02270 Ang^3 )
     density =      7.80441 g/cm^3

CELL_PARAMETERS (alat=  1.88972599)
  -1.443124186  -2.499564603  -0.000000000
   2.886248372   0.000000000   0.000000000
   0.000000000  -0.000000000  15.111896580

ATOMIC_POSITIONS (angstrom)
Ti       1.443124186  -2.499564603   5.037298860
Nb       0.000001444  -1.666377235   2.573476936
Nb       1.443124186  -2.499564603  10.062493617
Nb       0.000001444  -1.666377235   7.501120784
Nb       1.443124186  -2.499564603  15.124000682
Nb       0.000001444  -1.666377235  12.593247150


     NEW-OLD atomic charge density approx. for the potential

     Check: negative/imaginary core charge=   -0.000001    0.000000
     extrapolated charge   77.25755, renormalised to   77.00000

     total cpu time spent up to now is    38668.5 secs

     Self-consistent Calculation

     iteration #  1     ecut=    40.00 Ry     beta= 0.60
     Davidson diagonalization with overlap
     c_bands:  1 eigenvalues not converged
     c_bands:  1 eigenvalues not converged
     c_bands:  1 eigenvalues not converged
     c_bands:  2 eigenvalues not converged
     c_bands:  1 eigenvalues not converged
     c_bands:  1 eigenvalues not converged
     c_bands:  1 eigenvalues not converged
     c_bands:  1 eigenvalues not converged
     c_bands:  1 eigenvalues not converged
     ethr =  1.00E-06,  avg # of iterations = 10.8

     total cpu time spent up to now is    38697.3 secs

     total energy              =    -705.98281371 Ry
     Harris-Foulkes estimate   =    -705.90891316 Ry
     estimated scf accuracy    <       0.26744098 Ry

     iteration #  2     ecut=    40.00 Ry     beta= 0.60
     Davidson diagonalization with overlap
     ethr =  3.47E-04,  avg # of iterations =  6.5

     total cpu time spent up to now is    38719.2 secs

     total energy              =    -702.98963318 Ry
     Harris-Foulkes estimate   =    -711.58545994 Ry
     estimated scf accuracy    <     225.25469672 Ry

     iteration #  3     ecut=    40.00 Ry     beta= 0.60
     Davidson diagonalization with overlap
     ethr =  3.47E-04,  avg # of iterations =  6.7

     total cpu time spent up to now is    38741.6 secs

     total energy              =    -706.12901114 Ry
     Harris-Foulkes estimate   =    -706.29803131 Ry
     estimated scf accuracy    <       2.26963362 Ry

     iteration #  4     ecut=    40.00 Ry     beta= 0.60
     Davidson diagonalization with overlap
     ethr =  3.47E-04,  avg # of iterations =  4.0

     total cpu time spent up to now is    38754.0 secs

     total energy              =    -706.20177497 Ry
     Harris-Foulkes estimate   =    -706.20416406 Ry
     estimated scf accuracy    <       0.08761489 Ry

     iteration #  5     ecut=    40.00 Ry     beta= 0.60
     Davidson diagonalization with overlap
     ethr =  1.14E-04,  avg # of iterations =  3.1

     total cpu time spent up to now is    38765.0 secs

     total energy              =    -706.20231794 Ry
     Harris-Foulkes estimate   =    -706.20325888 Ry
     estimated scf accuracy    <       0.03798177 Ry

     iteration #  6     ecut=    40.00 Ry     beta= 0.60
     Davidson diagonalization with overlap
     ethr =  4.93E-05,  avg # of iterations =  2.6

     total cpu time spent up to now is    38775.4 secs

     total energy              =    -706.20274772 Ry
     Harris-Foulkes estimate   =    -706.20278950 Ry
     estimated scf accuracy    <       0.00327053 Ry

     iteration #  7     ecut=    40.00 Ry     beta= 0.60
     Davidson diagonalization with overlap
     ethr =  4.25E-06,  avg # of iterations =  7.2

     total cpu time spent up to now is    38790.7 secs

     total energy              =    -706.20276258 Ry
     Harris-Foulkes estimate   =    -706.20288259 Ry
     estimated scf accuracy    <       0.00449948 Ry

     iteration #  8     ecut=    40.00 Ry     beta= 0.60
     Davidson diagonalization with overlap
     ethr =  4.25E-06,  avg # of iterations =  1.0

     total cpu time spent up to now is    38799.9 secs

     total energy              =    -706.20281729 Ry
     Harris-Foulkes estimate   =    -706.20282148 Ry
     estimated scf accuracy    <       0.00010026 Ry

     iteration #  9     ecut=    40.00 Ry     beta= 0.60
     Davidson diagonalization with overlap
     ethr =  1.30E-07,  avg # of iterations =  4.0

     total cpu time spent up to now is    38812.3 secs

     total energy              =    -706.20282845 Ry
     Harris-Foulkes estimate   =    -706.20282859 Ry
     estimated scf accuracy    <       0.00000176 Ry

     iteration # 10     ecut=    40.00 Ry     beta= 0.60
     Davidson diagonalization with overlap
     ethr =  2.28E-09,  avg # of iterations =  4.2

     total cpu time spent up to now is    38826.3 secs

     total energy              =    -706.20282898 Ry
     Harris-Foulkes estimate   =    -706.20282910 Ry
     estimated scf accuracy    <       0.00000025 Ry

     iteration # 11     ecut=    40.00 Ry     beta= 0.60
     Davidson diagonalization with overlap
     ethr =  3.22E-10,  avg # of iterations =  4.2

     total cpu time spent up to now is    38841.1 secs

     total energy              =    -706.20282904 Ry
     Harris-Foulkes estimate   =    -706.20282909 Ry
     estimated scf accuracy    <       0.00000038 Ry

     iteration # 12     ecut=    40.00 Ry     beta= 0.60
     Davidson diagonalization with overlap
     ethr =  3.22E-10,  avg # of iterations =  1.4

     total cpu time spent up to now is    38850.6 secs

     total energy              =    -706.20282903 Ry
     Harris-Foulkes estimate   =    -706.20282905 Ry
     estimated scf accuracy    <       0.00000011 Ry

     iteration # 13     ecut=    40.00 Ry     beta= 0.60
     Davidson diagonalization with overlap
     ethr =  1.46E-10,  avg # of iterations =  3.2

     total cpu time spent up to now is    38862.8 secs

     total energy              =    -706.20282905 Ry
     Harris-Foulkes estimate   =    -706.20282905 Ry
     estimated scf accuracy    <       0.00000001 Ry

     iteration # 14     ecut=    40.00 Ry     beta= 0.60
     Davidson diagonalization with overlap
     ethr =  1.66E-11,  avg # of iterations =  2.5

     total cpu time spent up to now is    38873.2 secs

     total energy              =    -706.20282905 Ry
     Harris-Foulkes estimate   =    -706.20282905 Ry
     estimated scf accuracy    <          2.2E-09 Ry

     iteration # 15     ecut=    40.00 Ry     beta= 0.60
     Davidson diagonalization with overlap
     ethr =  2.84E-12,  avg # of iterations =  3.6

     total cpu time spent up to now is    38885.3 secs

     total energy              =    -706.20282905 Ry
     Harris-Foulkes estimate   =    -706.20282905 Ry
     estimated scf accuracy    <          1.1E-10 Ry

     iteration # 16     ecut=    40.00 Ry     beta= 0.60
     Davidson diagonalization with overlap
     ethr =  1.38E-13,  avg # of iterations =  4.2

     total cpu time spent up to now is    38899.6 secs

     total energy              =    -706.20282905 Ry
     Harris-Foulkes estimate   =    -706.20282905 Ry
     estimated scf accuracy    <          8.7E-10 Ry

     iteration # 17     ecut=    40.00 Ry     beta= 0.60
     Davidson diagonalization with overlap
     ethr =  1.38E-13,  avg # of iterations =  3.2

     total cpu time spent up to now is    38911.3 secs

     End of self-consistent calculation

     Number of k-points >= 100: set verbosity='high' to print the bands.

     the Fermi energy is    17.2467 ev

!    total energy              =    -706.20282905 Ry
     Harris-Foulkes estimate   =    -706.20282905 Ry
     estimated scf accuracy    <          1.2E-11 Ry

     The total energy is the sum of the following terms:

     one-electron contribution =    -126.10725455 Ry
     hartree contribution      =     100.78534553 Ry
     xc contribution           =    -106.67573547 Ry
     ewald contribution        =    -574.20489534 Ry
     smearing contrib. (-TS)   =      -0.00028922 Ry

     convergence has been achieved in  17 iterations

     Forces acting on atoms (cartesian axes, Ry/au):

     atom    1 type  2   force =    -0.00000000    0.00000000    0.00000000
     atom    2 type  1   force =    -0.00000000   -0.00000000    0.00497381
     atom    3 type  1   force =     0.00000000    0.00000000   -0.00880541
     atom    4 type  1   force =    -0.00000000    0.00000000   -0.00497381
     atom    5 type  1   force =    -0.00000000    0.00000000    0.00880541
     atom    6 type  1   force =    -0.00000000    0.00000000    0.00000000

     Total force =     0.014302     Total SCF correction =     0.000016


     Computing stress (Cartesian axis) and pressure

          total   stress  (Ry/bohr**3)                   (kbar)     P=   17.52
   0.00006228   0.00000000   0.00000000          9.16      0.00      0.00
   0.00000000   0.00006228  -0.00000000          0.00      9.16     -0.00
  -0.00000000  -0.00000000   0.00023280         -0.00     -0.00     34.25


     number of scf cycles    =   5
     number of bfgs steps    =   4

     enthalpy old            =    -706.1994413769 Ry
     enthalpy new            =    -706.2028290505 Ry

     CASE: enthalpy_new < enthalpy_old

     new trust radius        =       0.1033846275 bohr
     new conv_thr            =            1.0E-10 Ry

     new unit-cell volume =    742.79560 a.u.^3 (   110.07095 Ang^3 )
     density =      7.73009 g/cm^3

CELL_PARAMETERS (alat=  1.88972599)
  -1.436422561  -2.487957048  -0.000000000
   2.872845121   0.000000000   0.000000000
   0.000000000  -0.000000000  15.399893720

ATOMIC_POSITIONS (angstrom)
Ti       1.436422561  -2.487957048   5.133297907
Nb       0.000001437  -1.658638861   2.641793114
Nb       1.436422561  -2.487957048  10.238750496
Nb       0.000001437  -1.658638861   7.624802699
Nb       1.436422561  -2.487957048  15.427739037
Nb       0.000001437  -1.658638861  12.833244767


     NEW-OLD atomic charge density approx. for the potential

     Check: negative/imaginary core charge=   -0.000001    0.000000
     extrapolated charge   77.72365, renormalised to   77.00000

     total cpu time spent up to now is    38920.3 secs

     Self-consistent Calculation

     iteration #  1     ecut=    40.00 Ry     beta= 0.60
     Davidson diagonalization with overlap
     c_bands:  1 eigenvalues not converged
     c_bands:  1 eigenvalues not converged
     c_bands:  1 eigenvalues not converged
     c_bands:  2 eigenvalues not converged
     c_bands:  1 eigenvalues not converged
     c_bands:  1 eigenvalues not converged
     c_bands:  1 eigenvalues not converged
     c_bands:  1 eigenvalues not converged
     c_bands:  1 eigenvalues not converged
     c_bands:  1 eigenvalues not converged
     ethr =  1.00E-06,  avg # of iterations = 12.3

     total cpu time spent up to now is    38952.8 secs

     total energy              =    -705.32460162 Ry
     Harris-Foulkes estimate   =    -705.36391086 Ry
     estimated scf accuracy    <       1.06765445 Ry

     iteration #  2     ecut=    40.00 Ry     beta= 0.60
     Davidson diagonalization with overlap
     ethr =  1.39E-03,  avg # of iterations =  6.4

     total cpu time spent up to now is    38975.5 secs

     total energy              =    -701.80350913 Ry
     Harris-Foulkes estimate   =    -721.68619286 Ry
     estimated scf accuracy    <     318.38277206 Ry

     iteration #  3     ecut=    40.00 Ry     beta= 0.60
     Davidson diagonalization with overlap
     ethr =  1.39E-03,  avg # of iterations =  6.3

     total cpu time spent up to now is    38998.0 secs

     total energy              =    -705.98708007 Ry
     Harris-Foulkes estimate   =    -706.61236216 Ry
     estimated scf accuracy    <      10.19983072 Ry

     iteration #  4     ecut=    40.00 Ry     beta= 0.60
     Davidson diagonalization with overlap
     ethr =  1.39E-03,  avg # of iterations =  4.3

     total cpu time spent up to now is    39010.9 secs

     total energy              =    -706.20061292 Ry
     Harris-Foulkes estimate   =    -706.22278636 Ry
     estimated scf accuracy    <       1.34901046 Ry

     iteration #  5     ecut=    40.00 Ry     beta= 0.60
     Davidson diagonalization with overlap
     ethr =  1.39E-03,  avg # of iterations =  1.1

     total cpu time spent up to now is    39020.4 secs

     total energy              =    -706.19365818 Ry
     Harris-Foulkes estimate   =    -706.21065337 Ry
     estimated scf accuracy    <       0.55074284 Ry

     iteration #  6     ecut=    40.00 Ry     beta= 0.60
     Davidson diagonalization with overlap
     ethr =  7.15E-04,  avg # of iterations =  1.5

     total cpu time spent up to now is    39030.2 secs

     total energy              =    -706.20222346 Ry
     Harris-Foulkes estimate   =    -706.20386968 Ry
     estimated scf accuracy    <       0.01056956 Ry

     iteration #  7     ecut=    40.00 Ry     beta= 0.60
     Davidson diagonalization with overlap
     ethr =  1.37E-05,  avg # of iterations =  7.3

     total cpu time spent up to now is    39048.6 secs

     total energy              =    -706.20502246 Ry
     Harris-Foulkes estimate   =    -706.20594082 Ry
     estimated scf accuracy    <       0.06375156 Ry

     iteration #  8     ecut=    40.00 Ry     beta= 0.60
     Davidson diagonalization with overlap
     ethr =  1.37E-05,  avg # of iterations =  1.0

     total cpu time spent up to now is    39057.8 secs

     total energy              =    -706.20462385 Ry
     Harris-Foulkes estimate   =    -706.20518964 Ry
     estimated scf accuracy    <       0.02624406 Ry

     iteration #  9     ecut=    40.00 Ry     beta= 0.60
     Davidson diagonalization with overlap
     ethr =  1.37E-05,  avg # of iterations =  1.0

     total cpu time spent up to now is    39067.2 secs

     total energy              =    -706.20457043 Ry
     Harris-Foulkes estimate   =    -706.20479150 Ry
     estimated scf accuracy    <       0.00918060 Ry

     iteration # 10     ecut=    40.00 Ry     beta= 0.60
     Davidson diagonalization with overlap
     ethr =  1.19E-05,  avg # of iterations =  1.0

     total cpu time spent up to now is    39076.5 secs

     total energy              =    -706.20465855 Ry
     Harris-Foulkes estimate   =    -706.20467279 Ry
     estimated scf accuracy    <       0.00051705 Ry

     iteration # 11     ecut=    40.00 Ry     beta= 0.60
     Davidson diagonalization with overlap
     ethr =  6.71E-07,  avg # of iterations =  4.3

     total cpu time spent up to now is    39088.5 secs

     total energy              =    -706.20467626 Ry
     Harris-Foulkes estimate   =    -706.20468022 Ry
     estimated scf accuracy    <       0.00008004 Ry

     iteration # 12     ecut=    40.00 Ry     beta= 0.60
     Davidson diagonalization with overlap
     ethr =  1.04E-07,  avg # of iterations =  3.0

     total cpu time spent up to now is    39099.6 secs

     total energy              =    -706.20467076 Ry
     Harris-Foulkes estimate   =    -706.20467944 Ry
     estimated scf accuracy    <       0.00004996 Ry

     iteration # 13     ecut=    40.00 Ry     beta= 0.60
     Davidson diagonalization with overlap
     ethr =  6.49E-08,  avg # of iterations =  3.5

     total cpu time spent up to now is    39111.5 secs

     total energy              =    -706.20467577 Ry
     Harris-Foulkes estimate   =    -706.20467817 Ry
     estimated scf accuracy    <       0.00001588 Ry

     iteration # 14     ecut=    40.00 Ry     beta= 0.60
     Davidson diagonalization with overlap
     ethr =  2.06E-08,  avg # of iterations =  2.7

     total cpu time spent up to now is    39122.1 secs

     total energy              =    -706.20467640 Ry
     Harris-Foulkes estimate   =    -706.20467662 Ry
     estimated scf accuracy    <       0.00000505 Ry

     iteration # 15     ecut=    40.00 Ry     beta= 0.60
     Davidson diagonalization with overlap
     ethr =  6.55E-09,  avg # of iterations =  2.5

     total cpu time spent up to now is    39132.7 secs

     total energy              =    -706.20467662 Ry
     Harris-Foulkes estimate   =    -706.20467664 Ry
     estimated scf accuracy    <       0.00000012 Ry

     iteration # 16     ecut=    40.00 Ry     beta= 0.60
     Davidson diagonalization with overlap
     ethr =  1.57E-10,  avg # of iterations =  4.6

     total cpu time spent up to now is    39148.0 secs

     total energy              =    -706.20467668 Ry
     Harris-Foulkes estimate   =    -706.20467670 Ry
     estimated scf accuracy    <       0.00000021 Ry

     iteration # 17     ecut=    40.00 Ry     beta= 0.60
     Davidson diagonalization with overlap
     ethr =  1.57E-10,  avg # of iterations =  1.1

     total cpu time spent up to now is    39157.4 secs

     total energy              =    -706.20467667 Ry
     Harris-Foulkes estimate   =    -706.20467669 Ry
     estimated scf accuracy    <       0.00000008 Ry

     iteration # 18     ecut=    40.00 Ry     beta= 0.60
     Davidson diagonalization with overlap
     ethr =  1.02E-10,  avg # of iterations =  3.1

     total cpu time spent up to now is    39169.0 secs

     total energy              =    -706.20467668 Ry
     Harris-Foulkes estimate   =    -706.20467668 Ry
     estimated scf accuracy    <       0.00000002 Ry

     iteration # 19     ecut=    40.00 Ry     beta= 0.60
     Davidson diagonalization with overlap
     ethr =  2.56E-11,  avg # of iterations =  1.2

     total cpu time spent up to now is    39178.5 secs

     total energy              =    -706.20467668 Ry
     Harris-Foulkes estimate   =    -706.20467668 Ry
     estimated scf accuracy    <          3.3E-09 Ry

     iteration # 20     ecut=    40.00 Ry     beta= 0.60
     Davidson diagonalization with overlap
     ethr =  4.31E-12,  avg # of iterations =  3.1

     total cpu time spent up to now is    39190.2 secs

     total energy              =    -706.20467668 Ry
     Harris-Foulkes estimate   =    -706.20467668 Ry
     estimated scf accuracy    <          1.4E-10 Ry

     iteration # 21     ecut=    40.00 Ry     beta= 0.60
     Davidson diagonalization with overlap
     ethr =  1.75E-13,  avg # of iterations =  3.7

     total cpu time spent up to now is    39203.5 secs

     End of self-consistent calculation

[...]
     c_bands:  4 eigenvalues not converged
     c_bands:  4 eigenvalues not converged
     c_bands:  2 eigenvalues not converged
     c_bands:  3 eigenvalues not converged
     c_bands:  4 eigenvalues not converged
     c_bands:  2 eigenvalues not converged
     c_bands:  3 eigenvalues not converged
     c_bands:  3 eigenvalues not converged
     c_bands:  1 eigenvalues not converged
     c_bands:  1 eigenvalues not converged
     c_bands:  3 eigenvalues not converged
     c_bands:  1 eigenvalues not converged
     c_bands:  1 eigenvalues not converged
     c_bands:  1 eigenvalues not converged
     c_bands:  1 eigenvalues not converged
     c_bands:  2 eigenvalues not converged
     c_bands:  2 eigenvalues not converged
     c_bands:  3 eigenvalues not converged
     c_bands:  2 eigenvalues not converged
     c_bands:  1 eigenvalues not converged
     c_bands:  1 eigenvalues not converged
     c_bands:  1 eigenvalues not converged
     c_bands:  2 eigenvalues not converged
     c_bands:  1 eigenvalues not converged
     c_bands:  1 eigenvalues not converged
     c_bands:  3 eigenvalues not converged
     c_bands:  2 eigenvalues not converged
     c_bands:  2 eigenvalues not converged
     c_bands:  3 eigenvalues not converged
     c_bands:  1 eigenvalues not converged
     c_bands:  1 eigenvalues not converged
     c_bands:  1 eigenvalues not converged
     c_bands:  1 eigenvalues not converged
     c_bands:  1 eigenvalues not converged
     c_bands:  2 eigenvalues not converged
     c_bands:  2 eigenvalues not converged
     c_bands:  2 eigenvalues not converged
     c_bands:  1 eigenvalues not converged
     c_bands:  1 eigenvalues not converged
     c_bands:  1 eigenvalues not converged
     c_bands:  1 eigenvalues not converged
     c_bands:  2 eigenvalues not converged
     c_bands:  1 eigenvalues not converged
     c_bands:  2 eigenvalues not converged
     c_bands:  3 eigenvalues not converged
     c_bands:  3 eigenvalues not converged
     c_bands:  3 eigenvalues not converged
     c_bands:  1 eigenvalues not converged
     c_bands:  2 eigenvalues not converged
     c_bands:  1 eigenvalues not converged
     c_bands:  3 eigenvalues not converged
     c_bands:  1 eigenvalues not converged
     c_bands:  1 eigenvalues not converged
     c_bands:  2 eigenvalues not converged
     c_bands:  2 eigenvalues not converged
     c_bands:  1 eigenvalues not converged
     c_bands:  2 eigenvalues not converged
     c_bands:  1 eigenvalues not converged
     c_bands:  1 eigenvalues not converged
     c_bands:  1 eigenvalues not converged
     c_bands:  1 eigenvalues not converged
     c_bands:  1 eigenvalues not converged
     c_bands:  2 eigenvalues not converged
     c_bands:  2 eigenvalues not converged
     c_bands:  1 eigenvalues not converged
     c_bands:  2 eigenvalues not converged
     c_bands:  1 eigenvalues not converged
     c_bands:  3 eigenvalues not converged
     c_bands:  4 eigenvalues not converged
     c_bands:  2 eigenvalues not converged
     c_bands:  5 eigenvalues not converged
     ethr =  1.00E-02,  avg # of iterations = 20.4

     total cpu time spent up to now is    41393.6 secs

     total energy              =    -637.33263618 Ry
     Harris-Foulkes estimate   =   -2029.34380052 Ry
     estimated scf accuracy    <    5638.87190709 Ry

     iteration #  3     ecut=    40.00 Ry     beta= 0.60
     Davidson diagonalization with overlap
     ethr =  1.00E-02,  avg # of iterations =  9.7

     total cpu time spent up to now is    41428.9 secs

     total energy              =    -730.50189625 Ry
     Harris-Foulkes estimate   =   -1003.01016907 Ry
     estimated scf accuracy    <    1356.26863153 Ry

     iteration #  4     ecut=    40.00 Ry     beta= 0.60
     Davidson diagonalization with overlap
     ethr =  1.00E-02,  avg # of iterations =  8.0

     total cpu time spent up to now is    41453.6 secs

     total energy              =    -691.10543083 Ry
     Harris-Foulkes estimate   =    -793.01658500 Ry
     estimated scf accuracy    <     797.61970483 Ry

     iteration #  5     ecut=    40.00 Ry     beta= 0.60
     Davidson diagonalization with overlap
     ethr =  1.00E-02,  avg # of iterations =  7.3

     total cpu time spent up to now is    41476.2 secs

     total energy              =    -710.38907472 Ry
     Harris-Foulkes estimate   =    -718.00110674 Ry
     estimated scf accuracy    <     101.08292522 Ry

     iteration #  6     ecut=    40.00 Ry     beta= 0.60
     Davidson diagonalization with overlap
     ethr =  1.00E-02,  avg # of iterations =  6.9

     total cpu time spent up to now is    41495.5 secs

     total energy              =    -694.79196253 Ry
     Harris-Foulkes estimate   =    -730.44629518 Ry
     estimated scf accuracy    <     560.18456723 Ry

     iteration #  7     ecut=    40.00 Ry     beta= 0.60
     Davidson diagonalization with overlap
     ethr =  1.00E-02,  avg # of iterations =  5.5

     total cpu time spent up to now is    41512.8 secs

     total energy              =    -708.35499138 Ry
     Harris-Foulkes estimate   =    -709.21240496 Ry
     estimated scf accuracy    <      40.61274140 Ry

     iteration #  8     ecut=    40.00 Ry     beta= 0.60
     Davidson diagonalization with overlap
     ethr =  1.00E-02,  avg # of iterations =  1.0

     total cpu time spent up to now is    41521.8 secs

     total energy              =    -708.48424035 Ry
     Harris-Foulkes estimate   =    -708.66122564 Ry
     estimated scf accuracy    <      19.62387758 Ry

     iteration #  9     ecut=    40.00 Ry     beta= 0.60
     Davidson diagonalization with overlap
     ethr =  1.00E-02,  avg # of iterations =  1.0

     total cpu time spent up to now is    41530.9 secs

     total energy              =    -707.19885399 Ry
     Harris-Foulkes estimate   =    -708.49651260 Ry
     estimated scf accuracy    <      18.65437413 Ry

     iteration # 10     ecut=    40.00 Ry     beta= 0.60
     Davidson diagonalization with overlap
     ethr =  1.00E-02,  avg # of iterations =  1.4

     total cpu time spent up to now is    41540.0 secs

     total energy              =    -702.21598746 Ry
     Harris-Foulkes estimate   =    -707.35781833 Ry
     estimated scf accuracy    <      16.07723723 Ry

     iteration # 11     ecut=    40.00 Ry     beta= 0.60
     Davidson diagonalization with overlap
     ethr =  1.00E-02,  avg # of iterations =  5.1

     total cpu time spent up to now is    41559.9 secs

     total energy              =    -697.41621609 Ry
     Harris-Foulkes estimate   =    -735.92171006 Ry
     estimated scf accuracy    <     603.91984561 Ry

     iteration # 12     ecut=    40.00 Ry     beta= 0.60
     Davidson diagonalization with overlap
     ethr =  1.00E-02,  avg # of iterations =  6.2

     total cpu time spent up to now is    41578.5 secs

     total energy              =    -704.50350567 Ry
     Harris-Foulkes estimate   =    -707.22993223 Ry
     estimated scf accuracy    <      60.33183167 Ry

     iteration # 13     ecut=    40.00 Ry     beta= 0.60
     Davidson diagonalization with overlap
     ethr =  1.00E-02,  avg # of iterations =  2.3

     total cpu time spent up to now is    41588.3 secs

     total energy              =    -705.95300281 Ry
     Harris-Foulkes estimate   =    -706.54381789 Ry
     estimated scf accuracy    <      15.76308215 Ry

     iteration # 14     ecut=    40.00 Ry     beta= 0.60
     Davidson diagonalization with overlap
     ethr =  1.00E-02,  avg # of iterations =  1.1

     total cpu time spent up to now is    41597.1 secs

     total energy              =    -706.52434665 Ry
     Harris-Foulkes estimate   =    -706.36119957 Ry
     estimated scf accuracy    <       2.73459848 Ry

     iteration # 15     ecut=    40.00 Ry     beta= 0.60
     Davidson diagonalization with overlap
     ethr =  3.55E-03,  avg # of iterations =  1.3

     total cpu time spent up to now is    41606.2 secs

     total energy              =    -706.22492144 Ry
     Harris-Foulkes estimate   =    -706.56694602 Ry
     estimated scf accuracy    <       7.33719443 Ry

     iteration # 16     ecut=    40.00 Ry     beta= 0.60
     Davidson diagonalization with overlap
     ethr =  3.55E-03,  avg # of iterations =  1.7

     total cpu time spent up to now is    41615.6 secs

     total energy              =    -705.59888740 Ry
     Harris-Foulkes estimate   =    -706.42541269 Ry
     estimated scf accuracy    <      18.65196208 Ry

     iteration # 17     ecut=    40.00 Ry     beta= 0.60
     Davidson diagonalization with overlap
     ethr =  3.55E-03,  avg # of iterations =  3.0

     total cpu time spent up to now is    41625.9 secs

     total energy              =    -706.19440614 Ry
     Harris-Foulkes estimate   =    -706.31147814 Ry
     estimated scf accuracy    <       3.18850837 Ry

     iteration # 18     ecut=    40.00 Ry     beta= 0.60
     Davidson diagonalization with overlap
     ethr =  3.55E-03,  avg # of iterations =  1.0

     total cpu time spent up to now is    41634.8 secs

     total energy              =    -706.17493441 Ry
     Harris-Foulkes estimate   =    -706.22822329 Ry
     estimated scf accuracy    <       0.51462703 Ry

     iteration # 19     ecut=    40.00 Ry     beta= 0.60
     Davidson diagonalization with overlap
     ethr =  6.68E-04,  avg # of iterations =  3.0

     total cpu time spent up to now is    41645.2 secs

     total energy              =    -706.20134047 Ry
     Harris-Foulkes estimate   =    -706.20220829 Ry
     estimated scf accuracy    <       0.04113267 Ry

     iteration # 20     ecut=    40.00 Ry     beta= 0.60
     Davidson diagonalization with overlap
     ethr =  5.34E-05,  avg # of iterations =  6.5

     total cpu time spent up to now is    41660.8 secs

     total energy              =    -706.18968297 Ry
     Harris-Foulkes estimate   =    -706.21469294 Ry
     estimated scf accuracy    <       0.58466824 Ry

     iteration # 21     ecut=    40.00 Ry     beta= 0.60
     Davidson diagonalization with overlap
     ethr =  5.34E-05,  avg # of iterations =  4.8

     total cpu time spent up to now is    41672.9 secs

     total energy              =    -706.20368357 Ry
     Harris-Foulkes estimate   =    -706.20405756 Ry
     estimated scf accuracy    <       0.04050642 Ry

     iteration # 22     ecut=    40.00 Ry     beta= 0.60
     Davidson diagonalization with overlap
     ethr =  5.26E-05,  avg # of iterations =  1.0

     total cpu time spent up to now is    41681.8 secs

     total energy              =    -706.20325807 Ry
     Harris-Foulkes estimate   =    -706.20384016 Ry
     estimated scf accuracy    <       0.01846582 Ry

     iteration # 23     ecut=    40.00 Ry     beta= 0.60
     Davidson diagonalization with overlap
     ethr =  2.40E-05,  avg # of iterations =  1.1

     total cpu time spent up to now is    41690.8 secs

     total energy              =    -706.20354291 Ry
     Harris-Foulkes estimate   =    -706.20357974 Ry
     estimated scf accuracy    <       0.00023988 Ry

     iteration # 24     ecut=    40.00 Ry     beta= 0.60
     Davidson diagonalization with overlap
     ethr =  3.12E-07,  avg # of iterations =  6.4

     total cpu time spent up to now is    41706.0 secs

     total energy              =    -706.20357529 Ry
     Harris-Foulkes estimate   =    -706.20358366 Ry
     estimated scf accuracy    <       0.00007625 Ry

     iteration # 25     ecut=    40.00 Ry     beta= 0.60
     Davidson diagonalization with overlap
     ethr =  9.90E-08,  avg # of iterations =  1.1

     total cpu time spent up to now is    41715.0 secs

     total energy              =    -706.20357425 Ry
     Harris-Foulkes estimate   =    -706.20357778 Ry
     estimated scf accuracy    <       0.00007734 Ry

     iteration # 26     ecut=    40.00 Ry     beta= 0.60
     Davidson diagonalization with overlap
     ethr =  9.90E-08,  avg # of iterations =  1.7

     total cpu time spent up to now is    41724.4 secs

     total energy              =    -706.20357480 Ry
     Harris-Foulkes estimate   =    -706.20357608 Ry
     estimated scf accuracy    <       0.00003202 Ry

     iteration # 27     ecut=    40.00 Ry     beta= 0.60
     Davidson diagonalization with overlap
     ethr =  4.16E-08,  avg # of iterations =  1.3

     total cpu time spent up to now is    41733.5 secs

     total energy              =    -706.20357569 Ry
     Harris-Foulkes estimate   =    -706.20357571 Ry
     estimated scf accuracy    <       0.00000034 Ry

     iteration # 28     ecut=    40.00 Ry     beta= 0.60
     Davidson diagonalization with overlap
     ethr =  4.47E-10,  avg # of iterations =  5.0

     total cpu time spent up to now is    41748.7 secs

     total energy              =    -706.20357599 Ry
     Harris-Foulkes estimate   =    -706.20357605 Ry
     estimated scf accuracy    <       0.00000108 Ry

     iteration # 29     ecut=    40.00 Ry     beta= 0.60
     Davidson diagonalization with overlap
     ethr =  4.47E-10,  avg # of iterations =  1.0

     total cpu time spent up to now is    41757.6 secs

     total energy              =    -706.20357594 Ry
     Harris-Foulkes estimate   =    -706.20357600 Ry
     estimated scf accuracy    <       0.00000051 Ry

     iteration # 30     ecut=    40.00 Ry     beta= 0.60
     Davidson diagonalization with overlap
     ethr =  4.47E-10,  avg # of iterations =  3.0

     total cpu time spent up to now is    41768.4 secs

     total energy              =    -706.20357598 Ry
     Harris-Foulkes estimate   =    -706.20357598 Ry
     estimated scf accuracy    <       0.00000003 Ry

     iteration # 31     ecut=    40.00 Ry     beta= 0.60
     Davidson diagonalization with overlap
     ethr =  3.36E-11,  avg # of iterations =  2.3

     total cpu time spent up to now is    41778.3 secs

     total energy              =    -706.20357598 Ry
     Harris-Foulkes estimate   =    -706.20357598 Ry
     estimated scf accuracy    <       0.00000001 Ry

     iteration # 32     ecut=    40.00 Ry     beta= 0.60
     Davidson diagonalization with overlap
     ethr =  1.57E-11,  avg # of iterations =  1.6

     total cpu time spent up to now is    41787.5 secs

     total energy              =    -706.20357598 Ry
     Harris-Foulkes estimate   =    -706.20357598 Ry
     estimated scf accuracy    <          1.2E-09 Ry

     iteration # 33     ecut=    40.00 Ry     beta= 0.60
     Davidson diagonalization with overlap
     ethr =  1.61E-12,  avg # of iterations =  3.8

     total cpu time spent up to now is    41799.5 secs

     total energy              =    -706.20357598 Ry
     Harris-Foulkes estimate   =    -706.20357598 Ry
     estimated scf accuracy    <          3.3E-11 Ry

     iteration # 34     ecut=    40.00 Ry     beta= 0.60
     Davidson diagonalization with overlap
     ethr =  1.00E-13,  avg # of iterations =  2.7

     total cpu time spent up to now is    41809.8 secs

     total energy              =    -706.20357598 Ry
     Harris-Foulkes estimate   =    -706.20357598 Ry
     estimated scf accuracy    <          4.3E-11 Ry

     iteration # 35     ecut=    40.00 Ry     beta= 0.60
     Davidson diagonalization with overlap
     ethr =  1.00E-13,  avg # of iterations =  1.0

     total cpu time spent up to now is    41818.7 secs

     total energy              =    -706.20357598 Ry
     Harris-Foulkes estimate   =    -706.20357598 Ry
     estimated scf accuracy    <          9.6E-12 Ry

     iteration # 36     ecut=    40.00 Ry     beta= 0.60
     Davidson diagonalization with overlap
     ethr =  1.00E-13,  avg # of iterations =  1.0

     total cpu time spent up to now is    41827.5 secs

     End of self-consistent calculation

     Number of k-points >= 100: set verbosity='high' to print the bands.

     the Fermi energy is    17.0227 ev

!    total energy              =    -706.20357598 Ry
     Harris-Foulkes estimate   =    -706.20357598 Ry
     estimated scf accuracy    <          2.9E-14 Ry

     The total energy is the sum of the following terms:

     one-electron contribution =    -129.59776468 Ry
     hartree contribution      =     101.86153904 Ry
     xc contribution           =    -106.61632991 Ry
     ewald contribution        =    -571.85063954 Ry
     smearing contrib. (-TS)   =      -0.00038090 Ry

     convergence has been achieved in  36 iterations

     Forces acting on atoms (cartesian axes, Ry/au):

     atom    1 type  2   force =    -0.00000000    0.00000000   -0.00000000
     atom    2 type  1   force =     0.00000000    0.00000000   -0.00001927
     atom    3 type  1   force =     0.00000000    0.00000000   -0.00000291
     atom    4 type  1   force =    -0.00000000   -0.00000000    0.00001927
     atom    5 type  1   force =    -0.00000000    0.00000000    0.00000291
     atom    6 type  1   force =     0.00000000    0.00000000    0.00000000

     Total force =     0.000028     Total SCF correction =     0.000001


     Computing stress (Cartesian axis) and pressure

          total   stress  (Ry/bohr**3)                   (kbar)     P=    0.02
  -0.00000088  -0.00000000   0.00000000         -0.13     -0.00      0.00
  -0.00000000  -0.00000088  -0.00000000         -0.00     -0.13     -0.00
  -0.00000000  -0.00000000   0.00000225         -0.00     -0.00      0.33

 
     init_run     :     12.39s CPU     15.16s WALL (       2 calls)
     electrons    :   4484.04s CPU  41657.31s WALL (      18 calls)
     update_pot   :     23.36s CPU     23.47s WALL (      16 calls)
     forces       :     35.44s CPU     37.13s WALL (      18 calls)
     stress       :     87.22s CPU     92.22s WALL (      18 calls)

     Called by init_run:
     wfcinit      :     10.23s CPU     10.50s WALL (       2 calls)
     potinit      :      0.63s CPU      2.75s WALL (       2 calls)
     hinit0       :      1.22s CPU      1.43s WALL (       2 calls)

     Called by electrons:
     c_bands      :   3882.78s CPU  40986.80s WALL (     350 calls)
     sum_band     :    539.04s CPU    577.10s WALL (     350 calls)
     v_of_rho     :     13.58s CPU     13.71s WALL (     364 calls)
     newd         :     49.05s CPU     80.96s WALL (     364 calls)
     mix_rho      :      1.65s CPU      1.67s WALL (     350 calls)

     Called by c_bands:
     init_us_2    :     54.71s CPU     54.88s WALL (   88560 calls)
     cegterg      :   3523.78s CPU   3580.12s WALL (   42009 calls)

     Called by sum_band:
     sum_band:bec :      2.00s CPU      1.94s WALL (   42000 calls)
     addusdens    :     56.61s CPU     84.27s WALL (     350 calls)

     Called by *egterg:
     h_psi        :   2070.50s CPU   2121.64s WALL (  180949 calls)
     s_psi        :    127.46s CPU    127.97s WALL (  180949 calls)
     g_psi        :     22.45s CPU     22.53s WALL (  138700 calls)
     cdiaghg      :    797.86s CPU    799.78s WALL (  178309 calls)

     Called by h_psi:
     h_psi:pot    :   2059.65s CPU   2110.79s WALL (  180949 calls)
     h_psi:calbec :    141.33s CPU    141.99s WALL (  180949 calls)
     vloc_psi     :   1788.35s CPU   1837.91s WALL (  180949 calls)
     add_vuspsi   :    129.23s CPU    129.89s WALL (  180949 calls)

     General routines
     calbec       :    202.93s CPU    204.06s WALL (  233749 calls)
     fft          :      7.93s CPU      8.04s WALL (    5184 calls)
     ffts         :      0.24s CPU      0.24s WALL (     714 calls)
     fftw         :   1899.56s CPU   1948.22s WALL (12248818 calls)
     interpolate  :      0.69s CPU      0.68s WALL (     364 calls)
 
     Parallel routines
     fft_scatt_xy :    374.85s CPU    390.58s WALL (12254716 calls)
     fft_scatt_yz :    461.61s CPU    470.71s WALL (12254716 calls)
 
     PWSCF        :     1h17m CPU       17h11m WALL

      37h
 
   This run was terminated on:  23:42:17  24Jan2020            

=------------------------------------------------------------------------------=
   JOB DONE.
=------------------------------------------------------------------------------=
