
     Program PWSCF v.6.0 (svn rev. 13079) starts on  1May2018 at 19:45:48 

     This program is part of the open-source Quantum ESPRESSO suite
     for quantum simulation of materials; please cite
         "P. Giannozzi et al., J. Phys.:Condens. Matter 21 395502 (2009);
          URL http://www.quantum-espresso.org", 
     in publications or presentations arising from this work. More details at
     http://www.quantum-espresso.org/quote

     Parallel version (MPI), running on     4 processors
     R & G space division:  proc/nbgrp/npool/nimage =       4
     Waiting for input...
     Reading input from standard input

     Current dimensions of program PWSCF are:
     Max number of different atomic species (ntypx) = 10
     Max number of k-points (npk) =  40000
     Max angular momentum in pseudopotentials (lmaxx) =  3

     Subspace diagonalization in iterative solution of the eigenvalue problem:
     a serial algorithm will be used


     Parallelization info
     --------------------
     sticks:   dense  smooth     PW     G-vecs:    dense   smooth      PW
     Min         311     121     39                27733     6987    1255
     Max         312     122     40                27744     6996    1262
     Sum        1247     487    159               110959    27971    5037



     bravais-lattice index     =            0
     lattice parameter (alat)  =       1.8897  a.u.
     unit-cell volume          =     586.6735 (a.u.)^3
     number of atoms/cell      =            4
     number of atomic types    =            2
     number of electrons       =        49.00
     number of Kohn-Sham states=           30
     kinetic-energy cutoff     =      50.0000  Ry
     charge density cutoff     =     500.0000  Ry
     convergence threshold     =      1.0E-10
     mixing beta               =       0.6000
     number of iterations used =            8  plain     mixing
     Exchange-correlation      = SLA  PW   PBE  PBE ( 1  4  3  4 0 0)
     nstep                     =           50


     celldm(1)=   1.889726  celldm(2)=   0.000000  celldm(3)=   0.000000
     celldm(4)=   0.000000  celldm(5)=   0.000000  celldm(6)=   0.000000

     crystal axes: (cart. coord. in units of alat)
               a(1) = (  -1.758031   1.758031  -1.758031 )  
               a(2) = (  -1.758031  -1.758031   1.758031 )  
               a(3) = (   0.000000   7.032126   7.032126 )  

     reciprocal axes: (cart. coord. in units 2 pi/alat)
               b(1) = ( -0.284409  0.142205 -0.142205 )  
               b(2) = ( -0.284409 -0.142205  0.142205 )  
               b(3) = (  0.000000  0.071102  0.071102 )  


     PseudoPot. # 1 for Nb read from file:
     ./Nb.pbe-nsp-van.UPF
     MD5 check sum: 0a22fc7fb0ba19a08ca5db297a5d2854
     Pseudo is Ultrasoft + core correction, Zval = 13.0
     Generated by new atomic code, or converted to UPF format
     Using radial grid of  887 points,  6 beta functions with: 
                l(1) =   0
                l(2) =   0
                l(3) =   1
                l(4) =   1
                l(5) =   2
                l(6) =   2
     Q(r) pseudized with  6 coefficients,  rinner =    1.000   1.000   1.000
                                                       1.000   1.000

     PseudoPot. # 2 for Ti read from file:
     ./Ti.pbe-sp-van_ak.UPF
     MD5 check sum: f98fea3e8887528921fefa5636a534ca
     Pseudo is Ultrasoft, Zval = 12.0
     Generated by new atomic code, or converted to UPF format
     Using radial grid of  851 points,  6 beta functions with: 
                l(1) =   0
                l(2) =   0
                l(3) =   1
                l(4) =   1
                l(5) =   2
                l(6) =   2
     Q(r) pseudized with  8 coefficients,  rinner =    1.000   1.000   1.000
                                                       1.000   1.000

     atomic species   valence    mass     pseudopotential
        Nb            13.00    92.90638     Nb( 1.00)
        Ti            12.00    47.86700     Ti( 1.00)

      8 Sym. Ops., with inversion, found



   Cartesian axes

     site n.     atom                  positions (alat units)
         1           Ti  tau(   1) = (  -1.7580316   1.7580316   1.7580316  )
         2           Ti  tau(   2) = (  -3.5160633   3.5160633   3.5160633  )
         3           Ti  tau(   3) = (  -1.7580316   5.2740949   5.2740949  )
         4           Nb  tau(   4) = (  -3.5160633   7.0321265   7.0321265  )

     number of k points=   400  Marzari-Vanderbilt smearing, width (Ry)=  0.0200

     Number of k-points >= 100: set verbosity='high' to print them.

     Dense  grid:   110959 G-vectors     FFT dimensions: (  45,  45, 135)

     Smooth grid:    27971 G-vectors     FFT dimensions: (  25,  25,  90)

     Estimated max dynamical RAM per process >     181.36Mb

     Estimated total allocated dynamical RAM >     725.44Mb

     Initial potential from superposition of free atoms

     starting charge   45.99713, renormalised to   49.00000
     Starting wfc are   43 randomized atomic wfcs

     total cpu time spent up to now is       23.6 secs

     per-process dynamical memory:   255.0 Mb

     Self-consistent Calculation

     iteration #  1     ecut=    50.00 Ry     beta=0.60
     Davidson diagonalization with overlap
     ethr =  1.00E-02,  avg # of iterations =  4.1

     total cpu time spent up to now is       86.7 secs

     total energy              =    -400.38453972 Ry
     Harris-Foulkes estimate   =    -475.11224565 Ry
     estimated scf accuracy    <      90.87833092 Ry

     iteration #  2     ecut=    50.00 Ry     beta=0.60
     Davidson diagonalization with overlap
     ethr =  1.00E-02,  avg # of iterations = 12.0

     total cpu time spent up to now is      264.0 secs

     total energy              =    -447.86127218 Ry
     Harris-Foulkes estimate   =    -643.95538314 Ry
     estimated scf accuracy    <     695.20539856 Ry

     iteration #  3     ecut=    50.00 Ry     beta=0.60
     Davidson diagonalization with overlap
     ethr =  1.00E-02,  avg # of iterations =  7.8

     total cpu time spent up to now is      381.3 secs

     total energy              =    -466.74024365 Ry
     Harris-Foulkes estimate   =    -490.83633582 Ry
     estimated scf accuracy    <     169.75002558 Ry

     iteration #  4     ecut=    50.00 Ry     beta=0.60
     Davidson diagonalization with overlap
     ethr =  1.00E-02,  avg # of iterations =  7.4

     total cpu time spent up to now is      491.3 secs

     total energy              =    -468.70029910 Ry
     Harris-Foulkes estimate   =    -475.38682008 Ry
     estimated scf accuracy    <      59.37651644 Ry

     iteration #  5     ecut=    50.00 Ry     beta=0.60
     Davidson diagonalization with overlap
     ethr =  1.00E-02,  avg # of iterations =  3.7

     total cpu time spent up to now is      540.8 secs

     total energy              =    -471.25049815 Ry
     Harris-Foulkes estimate   =    -471.13132344 Ry
     estimated scf accuracy    <      19.09649253 Ry

     iteration #  6     ecut=    50.00 Ry     beta=0.60
     Davidson diagonalization with overlap
     ethr =  1.00E-02,  avg # of iterations =  1.1

     total cpu time spent up to now is      578.4 secs

     total energy              =    -468.81120212 Ry
     Harris-Foulkes estimate   =    -471.28022983 Ry
     estimated scf accuracy    <      19.11644315 Ry

     iteration #  7     ecut=    50.00 Ry     beta=0.60
     Davidson diagonalization with overlap
     ethr =  1.00E-02,  avg # of iterations =  2.7

     total cpu time spent up to now is      621.7 secs

     total energy              =    -468.45150983 Ry
     Harris-Foulkes estimate   =    -469.18802233 Ry
     estimated scf accuracy    <      12.62674758 Ry

     iteration #  8     ecut=    50.00 Ry     beta=0.60
     Davidson diagonalization with overlap
     ethr =  1.00E-02,  avg # of iterations =  1.2

     total cpu time spent up to now is      671.9 secs

     total energy              =    -467.24894990 Ry
     Harris-Foulkes estimate   =    -468.53954217 Ry
     estimated scf accuracy    <      10.61274821 Ry

     iteration #  9     ecut=    50.00 Ry     beta=0.60
     Davidson diagonalization with overlap
     ethr =  1.00E-02,  avg # of iterations =  5.3

     total cpu time spent up to now is      729.4 secs

     total energy              =    -467.61673816 Ry
     Harris-Foulkes estimate   =    -468.28162368 Ry
     estimated scf accuracy    <      12.07777731 Ry

     iteration # 10     ecut=    50.00 Ry     beta=0.60
     Davidson diagonalization with overlap
     ethr =  1.00E-02,  avg # of iterations =  1.0

     total cpu time spent up to now is      767.8 secs

     total energy              =    -467.61666952 Ry
     Harris-Foulkes estimate   =    -467.80715125 Ry
     estimated scf accuracy    <       2.45121081 Ry

     iteration # 11     ecut=    50.00 Ry     beta=0.60
     Davidson diagonalization with overlap
     ethr =  5.00E-03,  avg # of iterations =  2.7

     total cpu time spent up to now is      810.6 secs

     total energy              =    -468.08910965 Ry
     Harris-Foulkes estimate   =    -467.94306259 Ry
     estimated scf accuracy    <       3.00694137 Ry

     iteration # 12     ecut=    50.00 Ry     beta=0.60
     Davidson diagonalization with overlap
     ethr =  5.00E-03,  avg # of iterations =  3.6

     total cpu time spent up to now is      857.6 secs

     total energy              =    -468.12158626 Ry
     Harris-Foulkes estimate   =    -468.29425811 Ry
     estimated scf accuracy    <       8.00703416 Ry

     iteration # 13     ecut=    50.00 Ry     beta=0.60
     Davidson diagonalization with overlap
     ethr =  5.00E-03,  avg # of iterations =  1.0

     total cpu time spent up to now is      894.9 secs

     total energy              =    -467.05027033 Ry
     Harris-Foulkes estimate   =    -468.14760977 Ry
     estimated scf accuracy    <       6.98053338 Ry

     iteration # 14     ecut=    50.00 Ry     beta=0.60
     Davidson diagonalization with overlap
     ethr =  5.00E-03,  avg # of iterations =  5.5

     total cpu time spent up to now is      954.8 secs

     total energy              =    -468.48744493 Ry
     Harris-Foulkes estimate   =    -468.24317681 Ry
     estimated scf accuracy    <      15.31355111 Ry

     iteration # 15     ecut=    50.00 Ry     beta=0.60
     Davidson diagonalization with overlap
     ethr =  5.00E-03,  avg # of iterations =  1.2

     total cpu time spent up to now is      992.9 secs

     total energy              =    -468.07899151 Ry
     Harris-Foulkes estimate   =    -468.51998168 Ry
     estimated scf accuracy    <      20.78605501 Ry

     iteration # 16     ecut=    50.00 Ry     beta=0.60
     Davidson diagonalization with overlap
     ethr =  5.00E-03,  avg # of iterations =  1.0

     total cpu time spent up to now is     1030.5 secs

     total energy              =    -467.39058093 Ry
     Harris-Foulkes estimate   =    -468.12019350 Ry
     estimated scf accuracy    <      11.79460126 Ry

     iteration # 17     ecut=    50.00 Ry     beta=0.60
     Davidson diagonalization with overlap
     ethr =  5.00E-03,  avg # of iterations =  1.3

     total cpu time spent up to now is     1068.7 secs

     total energy              =    -467.76628206 Ry
     Harris-Foulkes estimate   =    -467.77259249 Ry
     estimated scf accuracy    <       0.38386826 Ry

     iteration # 18     ecut=    50.00 Ry     beta=0.60
     Davidson diagonalization with overlap
     ethr =  7.83E-04,  avg # of iterations =  5.7

     total cpu time spent up to now is     1124.6 secs

     total energy              =    -467.80174555 Ry
     Harris-Foulkes estimate   =    -467.80700123 Ry
     estimated scf accuracy    <       0.53745142 Ry

     iteration # 19     ecut=    50.00 Ry     beta=0.60
     Davidson diagonalization with overlap
     ethr =  7.83E-04,  avg # of iterations =  1.1

     total cpu time spent up to now is     1162.6 secs

     total energy              =    -467.78570482 Ry
     Harris-Foulkes estimate   =    -467.80337927 Ry
     estimated scf accuracy    <       0.53862370 Ry

     iteration # 20     ecut=    50.00 Ry     beta=0.60
     Davidson diagonalization with overlap
     ethr =  7.83E-04,  avg # of iterations =  1.0

     total cpu time spent up to now is     1200.4 secs

     total energy              =    -467.78775003 Ry
     Harris-Foulkes estimate   =    -467.78967535 Ry
     estimated scf accuracy    <       0.21612089 Ry

     iteration # 21     ecut=    50.00 Ry     beta=0.60
     Davidson diagonalization with overlap
     ethr =  4.41E-04,  avg # of iterations =  1.0

     total cpu time spent up to now is     1238.0 secs

     total energy              =    -467.78681997 Ry
     Harris-Foulkes estimate   =    -467.78856264 Ry
     estimated scf accuracy    <       0.14768522 Ry

     iteration # 22     ecut=    50.00 Ry     beta=0.60
     Davidson diagonalization with overlap
     ethr =  3.01E-04,  avg # of iterations =  1.0

     total cpu time spent up to now is     1275.6 secs

     total energy              =    -467.78697743 Ry
     Harris-Foulkes estimate   =    -467.78742354 Ry
     estimated scf accuracy    <       0.08771321 Ry

     iteration # 23     ecut=    50.00 Ry     beta=0.60
     Davidson diagonalization with overlap
     ethr =  1.79E-04,  avg # of iterations =  1.3

     total cpu time spent up to now is     1313.6 secs

     total energy              =    -467.78720219 Ry
     Harris-Foulkes estimate   =    -467.78729999 Ry
     estimated scf accuracy    <       0.07365752 Ry

     iteration # 24     ecut=    50.00 Ry     beta=0.60
     Davidson diagonalization with overlap
     ethr =  1.50E-04,  avg # of iterations =  1.3

     total cpu time spent up to now is     1351.8 secs

     total energy              =    -467.78336611 Ry
     Harris-Foulkes estimate   =    -467.78749864 Ry
     estimated scf accuracy    <       0.08244349 Ry

     iteration # 25     ecut=    50.00 Ry     beta=0.60
     Davidson diagonalization with overlap
     ethr =  1.50E-04,  avg # of iterations =  1.9

     total cpu time spent up to now is     1391.3 secs

     total energy              =    -467.78449536 Ry
     Harris-Foulkes estimate   =    -467.78600126 Ry
     estimated scf accuracy    <       0.00570718 Ry

     iteration # 26     ecut=    50.00 Ry     beta=0.60
     Davidson diagonalization with overlap
     c_bands:  1 eigenvalues not converged
     c_bands:  1 eigenvalues not converged
     ethr =  1.16E-05,  avg # of iterations =  7.8

     total cpu time spent up to now is     1465.0 secs

     total energy              =    -467.78531793 Ry
     Harris-Foulkes estimate   =    -467.78695120 Ry
     estimated scf accuracy    <       0.01566315 Ry

     iteration # 27     ecut=    50.00 Ry     beta=0.60
     Davidson diagonalization with overlap
     ethr =  1.16E-05,  avg # of iterations =  2.9

     total cpu time spent up to now is     1507.2 secs

     total energy              =    -467.78617206 Ry
     Harris-Foulkes estimate   =    -467.78623188 Ry
     estimated scf accuracy    <       0.00057742 Ry

     iteration # 28     ecut=    50.00 Ry     beta=0.60
     Davidson diagonalization with overlap
     c_bands:  1 eigenvalues not converged
     c_bands:  1 eigenvalues not converged
     ethr =  1.18E-06,  avg # of iterations =  6.4

     total cpu time spent up to now is     1576.5 secs

     total energy              =    -467.78632737 Ry
     Harris-Foulkes estimate   =    -467.78639625 Ry
     estimated scf accuracy    <       0.00099868 Ry

     iteration # 29     ecut=    50.00 Ry     beta=0.60
     Davidson diagonalization with overlap
     ethr =  1.18E-06,  avg # of iterations =  1.3

     total cpu time spent up to now is     1614.8 secs

     total energy              =    -467.78630673 Ry
     Harris-Foulkes estimate   =    -467.78634383 Ry
     estimated scf accuracy    <       0.00027411 Ry

     iteration # 30     ecut=    50.00 Ry     beta=0.60
     Davidson diagonalization with overlap
     ethr =  5.59E-07,  avg # of iterations =  3.8

     total cpu time spent up to now is     1664.7 secs

     total energy              =    -467.78633888 Ry
     Harris-Foulkes estimate   =    -467.78635015 Ry
     estimated scf accuracy    <       0.00011311 Ry

     iteration # 31     ecut=    50.00 Ry     beta=0.60
     Davidson diagonalization with overlap
     ethr =  2.31E-07,  avg # of iterations =  1.1

     total cpu time spent up to now is     1702.6 secs

     total energy              =    -467.78634080 Ry
     Harris-Foulkes estimate   =    -467.78634281 Ry
     estimated scf accuracy    <       0.00001664 Ry

     iteration # 32     ecut=    50.00 Ry     beta=0.60
     Davidson diagonalization with overlap
     ethr =  3.40E-08,  avg # of iterations =  4.5

     total cpu time spent up to now is     1758.1 secs

     total energy              =    -467.78634409 Ry
     Harris-Foulkes estimate   =    -467.78634483 Ry
     estimated scf accuracy    <       0.00000703 Ry

     iteration # 33     ecut=    50.00 Ry     beta=0.60
     Davidson diagonalization with overlap
     ethr =  1.44E-08,  avg # of iterations =  1.4

     total cpu time spent up to now is     1796.4 secs

     total energy              =    -467.78634423 Ry
     Harris-Foulkes estimate   =    -467.78634435 Ry
     estimated scf accuracy    <       0.00000096 Ry

     iteration # 34     ecut=    50.00 Ry     beta=0.60
     Davidson diagonalization with overlap
     ethr =  1.96E-09,  avg # of iterations =  4.7

     total cpu time spent up to now is     1855.0 secs

     total energy              =    -467.78634447 Ry
     Harris-Foulkes estimate   =    -467.78634450 Ry
     estimated scf accuracy    <       0.00000045 Ry

     iteration # 35     ecut=    50.00 Ry     beta=0.60
     Davidson diagonalization with overlap
     ethr =  9.09E-10,  avg # of iterations =  1.0

     total cpu time spent up to now is     1892.8 secs

     total energy              =    -467.78634446 Ry
     Harris-Foulkes estimate   =    -467.78634448 Ry
     estimated scf accuracy    <       0.00000015 Ry

     iteration # 36     ecut=    50.00 Ry     beta=0.60
     Davidson diagonalization with overlap
     c_bands:  1 eigenvalues not converged
     ethr =  3.15E-10,  avg # of iterations =  3.4

     total cpu time spent up to now is     1938.4 secs

     total energy              =    -467.78634448 Ry
     Harris-Foulkes estimate   =    -467.78634448 Ry
     estimated scf accuracy    <          4.3E-10 Ry

     iteration # 37     ecut=    50.00 Ry     beta=0.60
     Davidson diagonalization with overlap
     ethr =  8.75E-13,  avg # of iterations =  6.2

     total cpu time spent up to now is     2035.8 secs

     total energy              =    -467.78634448 Ry
     Harris-Foulkes estimate   =    -467.78634448 Ry
     estimated scf accuracy    <       0.00000001 Ry

     iteration # 38     ecut=    50.00 Ry     beta=0.60
     Davidson diagonalization with overlap
     ethr =  8.75E-13,  avg # of iterations =  5.1

     total cpu time spent up to now is     2098.4 secs

     total energy              =    -467.78634448 Ry
     Harris-Foulkes estimate   =    -467.78634448 Ry
     estimated scf accuracy    <          5.9E-10 Ry

     iteration # 39     ecut=    50.00 Ry     beta=0.60
     Davidson diagonalization with overlap
     ethr =  8.75E-13,  avg # of iterations =  1.0

     total cpu time spent up to now is     2135.7 secs

     total energy              =    -467.78634448 Ry
     Harris-Foulkes estimate   =    -467.78634448 Ry
     estimated scf accuracy    <          3.3E-10 Ry

     iteration # 40     ecut=    50.00 Ry     beta=0.60
     Davidson diagonalization with overlap
     ethr =  6.82E-13,  avg # of iterations =  2.3

     total cpu time spent up to now is     2176.7 secs

     End of self-consistent calculation

     Number of k-points >= 100: set verbosity='high' to print the bands.

     the Fermi energy is    11.0638 ev

!    total energy              =    -467.78634448 Ry
     Harris-Foulkes estimate   =    -467.78634448 Ry
     estimated scf accuracy    <          6.9E-12 Ry

     The total energy is the sum of the following terms:

     one-electron contribution =    -177.73405440 Ry
     hartree contribution      =     100.02376013 Ry
     xc contribution           =     -61.37576259 Ry
     ewald contribution        =    -328.69891923 Ry
     smearing contrib. (-TS)   =      -0.00136839 Ry

     convergence has been achieved in  40 iterations

     Forces acting on atoms (Ry/au):

     atom    1 type  2   force =    -0.00000000   -0.00681640   -0.00681640
     atom    2 type  2   force =     0.00000000    0.00000000    0.00000000
     atom    3 type  2   force =     0.00000000    0.00681640    0.00681640
     atom    4 type  1   force =     0.00000000    0.00000000    0.00000000

     Total force =     0.013633     Total SCF correction =     0.000002


     entering subroutine stress ...

          total   stress  (Ry/bohr**3)                   (kbar)     P= -182.81
  -0.00122438   0.00000000   0.00000000       -180.11      0.00      0.00
   0.00000000  -0.00125186   0.00001293          0.00   -184.15      1.90
   0.00000000   0.00001293  -0.00125186          0.00      1.90   -184.15


     BFGS Geometry Optimization

     number of scf cycles    =   1
     number of bfgs steps    =   0

     enthalpy new            =    -467.7863444800 Ry

     new trust radius        =       0.1516166069 bohr
     new conv_thr            =            1.0E-10 Ry

     new unit-cell volume =    533.67503 a.u.^3 (    79.08248 Ang^3 )

CELL_PARAMETERS (alat=  1.88972599)
  -1.704218889   1.702443086  -1.702443086
  -1.704218889  -1.702443086   1.702443086
   0.000000000   6.814318170   6.814318170

ATOMIC_POSITIONS (angstrom)
Ti      -1.704218889   1.700084184   1.700084184
Ti      -3.408437777   3.407159085   3.407159085
Ti      -1.704218889   5.114233985   5.114233985
Nb      -3.408437777   6.814318170   6.814318170


     NEW-OLD atomic charge density approx. for the potential
     extrapolated charge   44.43210, renormalised to   49.00000

     total cpu time spent up to now is     2204.8 secs

     per-process dynamical memory:   267.5 Mb

     Self-consistent Calculation

     iteration #  1     ecut=    50.00 Ry     beta=0.60
     Davidson diagonalization with overlap
     c_bands:  2 eigenvalues not converged
     c_bands:  1 eigenvalues not converged
     c_bands:  3 eigenvalues not converged
     c_bands:  1 eigenvalues not converged
     c_bands:  1 eigenvalues not converged
     c_bands:  1 eigenvalues not converged
     c_bands:  1 eigenvalues not converged
     c_bands:  2 eigenvalues not converged
     c_bands:  1 eigenvalues not converged
     c_bands:  1 eigenvalues not converged
     c_bands:  1 eigenvalues not converged
     c_bands:  1 eigenvalues not converged
     c_bands:  1 eigenvalues not converged
     c_bands:  1 eigenvalues not converged
     c_bands:  1 eigenvalues not converged
     c_bands:  1 eigenvalues not converged
     c_bands:  1 eigenvalues not converged
     c_bands:  1 eigenvalues not converged
     c_bands:  1 eigenvalues not converged
     c_bands:  1 eigenvalues not converged
     c_bands:  1 eigenvalues not converged
     c_bands:  1 eigenvalues not converged
     c_bands:  1 eigenvalues not converged
     c_bands:  1 eigenvalues not converged
     c_bands:  1 eigenvalues not converged
     c_bands:  1 eigenvalues not converged
     ethr =  1.00E-06,  avg # of iterations = 14.3

     total cpu time spent up to now is     2399.5 secs

     total energy              =    -452.53837393 Ry
     Harris-Foulkes estimate   =    -479.85769891 Ry
     estimated scf accuracy    <      17.28814799 Ry

     iteration #  2     ecut=    50.00 Ry     beta=0.60
     Davidson diagonalization with overlap
     ethr =  1.00E-02,  avg # of iterations =  6.9

     total cpu time spent up to now is     2506.5 secs

     total energy              =    -455.64311284 Ry
     Harris-Foulkes estimate   =    -505.58853500 Ry
     estimated scf accuracy    <     239.35967034 Ry

     iteration #  3     ecut=    50.00 Ry     beta=0.60
     Davidson diagonalization with overlap
     ethr =  1.00E-02,  avg # of iterations =  8.0

     total cpu time spent up to now is     2610.9 secs

     total energy              =    -464.77314595 Ry
     Harris-Foulkes estimate   =    -477.98134650 Ry
     estimated scf accuracy    <      78.42889160 Ry

     iteration #  4     ecut=    50.00 Ry     beta=0.60
     Davidson diagonalization with overlap
     ethr =  1.00E-02,  avg # of iterations =  5.0

     total cpu time spent up to now is     2670.8 secs

     total energy              =    -468.45658881 Ry
     Harris-Foulkes estimate   =    -470.48394535 Ry
     estimated scf accuracy    <      16.21693457 Ry

     iteration #  5     ecut=    50.00 Ry     beta=0.60
     Davidson diagonalization with overlap
     ethr =  1.00E-02,  avg # of iterations =  1.2

     total cpu time spent up to now is     2708.7 secs

     total energy              =    -468.16951743 Ry
     Harris-Foulkes estimate   =    -468.85945804 Ry
     estimated scf accuracy    <       5.49124786 Ry

     iteration #  6     ecut=    50.00 Ry     beta=0.60
     Davidson diagonalization with overlap
     ethr =  1.00E-02,  avg # of iterations =  1.0

     total cpu time spent up to now is     2746.2 secs

     total energy              =    -467.98805947 Ry
     Harris-Foulkes estimate   =    -468.28153180 Ry
     estimated scf accuracy    <       3.00973359 Ry

     iteration #  7     ecut=    50.00 Ry     beta=0.60
     Davidson diagonalization with overlap
     ethr =  6.14E-03,  avg # of iterations =  1.2

     total cpu time spent up to now is     2784.1 secs

     total energy              =    -467.94722611 Ry
     Harris-Foulkes estimate   =    -468.03946464 Ry
     estimated scf accuracy    <       2.38477514 Ry

     iteration #  8     ecut=    50.00 Ry     beta=0.60
     Davidson diagonalization with overlap
     ethr =  4.87E-03,  avg # of iterations =  1.1

     total cpu time spent up to now is     2821.5 secs

     total energy              =    -467.96011780 Ry
     Harris-Foulkes estimate   =    -467.97927174 Ry
     estimated scf accuracy    <       1.54255059 Ry

     iteration #  9     ecut=    50.00 Ry     beta=0.60
     Davidson diagonalization with overlap
     ethr =  3.15E-03,  avg # of iterations =  1.1

     total cpu time spent up to now is     2859.2 secs

     total energy              =    -467.85900126 Ry
     Harris-Foulkes estimate   =    -467.98287257 Ry
     estimated scf accuracy    <       2.06142833 Ry

     iteration # 10     ecut=    50.00 Ry     beta=0.60
     Davidson diagonalization with overlap
     ethr =  3.15E-03,  avg # of iterations =  1.5

     total cpu time spent up to now is     2897.5 secs

     total energy              =    -467.63909940 Ry
     Harris-Foulkes estimate   =    -467.89119890 Ry
     estimated scf accuracy    <       0.86150768 Ry

     iteration # 11     ecut=    50.00 Ry     beta=0.60
     Davidson diagonalization with overlap
     ethr =  1.76E-03,  avg # of iterations =  5.4

     total cpu time spent up to now is     2960.1 secs

     total energy              =    -467.80680487 Ry
     Harris-Foulkes estimate   =    -467.93424184 Ry
     estimated scf accuracy    <       1.81791224 Ry

     iteration # 12     ecut=    50.00 Ry     beta=0.60
     Davidson diagonalization with overlap
     ethr =  1.76E-03,  avg # of iterations =  1.1

     total cpu time spent up to now is     2997.6 secs

     total energy              =    -467.84524639 Ry
     Harris-Foulkes estimate   =    -467.84003086 Ry
     estimated scf accuracy    <       0.42815488 Ry

     iteration # 13     ecut=    50.00 Ry     beta=0.60
     Davidson diagonalization with overlap
     ethr =  8.74E-04,  avg # of iterations =  1.1

     total cpu time spent up to now is     3035.0 secs

     total energy              =    -467.82288755 Ry
     Harris-Foulkes estimate   =    -467.84900793 Ry
     estimated scf accuracy    <       0.50750703 Ry

     iteration # 14     ecut=    50.00 Ry     beta=0.60
     Davidson diagonalization with overlap
     ethr =  8.74E-04,  avg # of iterations =  1.0

     total cpu time spent up to now is     3072.4 secs

     total energy              =    -467.81956928 Ry
     Harris-Foulkes estimate   =    -467.83074380 Ry
     estimated scf accuracy    <       0.16104376 Ry

     iteration # 15     ecut=    50.00 Ry     beta=0.60
     Davidson diagonalization with overlap
     ethr =  3.29E-04,  avg # of iterations =  5.0

     total cpu time spent up to now is     3124.4 secs

     total energy              =    -467.84040696 Ry
     Harris-Foulkes estimate   =    -467.84183050 Ry
     estimated scf accuracy    <       0.02844210 Ry

     iteration # 16     ecut=    50.00 Ry     beta=0.60
     Davidson diagonalization with overlap
     ethr =  5.80E-05,  avg # of iterations =  6.0

     total cpu time spent up to now is     3180.1 secs

     total energy              =    -467.84289201 Ry
     Harris-Foulkes estimate   =    -467.84287809 Ry
     estimated scf accuracy    <       0.00775676 Ry

     iteration # 17     ecut=    50.00 Ry     beta=0.60
     Davidson diagonalization with overlap
     c_bands:  1 eigenvalues not converged
     c_bands:  1 eigenvalues not converged
     c_bands:  1 eigenvalues not converged
     c_bands:  1 eigenvalues not converged
     c_bands:  1 eigenvalues not converged
     c_bands:  1 eigenvalues not converged
     ethr =  1.58E-05,  avg # of iterations =  4.1

     total cpu time spent up to now is     3225.5 secs

     total energy              =    -467.84269170 Ry
     Harris-Foulkes estimate   =    -467.84312799 Ry
     estimated scf accuracy    <       0.01184556 Ry

     iteration # 18     ecut=    50.00 Ry     beta=0.60
     Davidson diagonalization with overlap
     ethr =  1.58E-05,  avg # of iterations =  1.0

     total cpu time spent up to now is     3263.0 secs

     total energy              =    -467.84266631 Ry
     Harris-Foulkes estimate   =    -467.84281789 Ry
     estimated scf accuracy    <       0.00360541 Ry

     iteration # 19     ecut=    50.00 Ry     beta=0.60
     Davidson diagonalization with overlap
     c_bands:  1 eigenvalues not converged
     c_bands:  1 eigenvalues not converged
     ethr =  7.36E-06,  avg # of iterations =  2.8

     total cpu time spent up to now is     3304.9 secs

     total energy              =    -467.84275668 Ry
     Harris-Foulkes estimate   =    -467.84277653 Ry
     estimated scf accuracy    <       0.00097109 Ry

     iteration # 20     ecut=    50.00 Ry     beta=0.60
     Davidson diagonalization with overlap
     c_bands:  1 eigenvalues not converged
     c_bands:  1 eigenvalues not converged
     c_bands:  1 eigenvalues not converged
     c_bands:  1 eigenvalues not converged
     c_bands:  1 eigenvalues not converged
     c_bands:  1 eigenvalues not converged
     c_bands:  1 eigenvalues not converged
     c_bands:  1 eigenvalues not converged
     ethr =  1.98E-06,  avg # of iterations =  6.8

     total cpu time spent up to now is     3360.1 secs

     total energy              =    -467.84281331 Ry
     Harris-Foulkes estimate   =    -467.84280395 Ry
     estimated scf accuracy    <       0.00038928 Ry

     iteration # 21     ecut=    50.00 Ry     beta=0.60
     Davidson diagonalization with overlap
     c_bands:  2 eigenvalues not converged
     c_bands:  1 eigenvalues not converged
     c_bands:  1 eigenvalues not converged
     c_bands:  1 eigenvalues not converged
     ethr =  7.94E-07,  avg # of iterations =  2.1

     total cpu time spent up to now is     3400.1 secs

     total energy              =    -467.84282065 Ry
     Harris-Foulkes estimate   =    -467.84282084 Ry
     estimated scf accuracy    <       0.00062475 Ry

     iteration # 22     ecut=    50.00 Ry     beta=0.60
     Davidson diagonalization with overlap
     c_bands:  1 eigenvalues not converged
     ethr =  7.94E-07,  avg # of iterations =  1.1

     total cpu time spent up to now is     3437.7 secs

     total energy              =    -467.84281590 Ry
     Harris-Foulkes estimate   =    -467.84282358 Ry
     estimated scf accuracy    <       0.00064962 Ry

     iteration # 23     ecut=    50.00 Ry     beta=0.60
     Davidson diagonalization with overlap
     ethr =  7.94E-07,  avg # of iterations =  1.0

     total cpu time spent up to now is     3475.0 secs

     total energy              =    -467.84273406 Ry
     Harris-Foulkes estimate   =    -467.84281754 Ry
     estimated scf accuracy    <       0.00055953 Ry

     iteration # 24     ecut=    50.00 Ry     beta=0.60
     Davidson diagonalization with overlap
     c_bands:  1 eigenvalues not converged
     ethr =  7.94E-07,  avg # of iterations =  3.2

     total cpu time spent up to now is     3518.0 secs

     total energy              =    -467.84277975 Ry
     Harris-Foulkes estimate   =    -467.84278376 Ry
     estimated scf accuracy    <       0.00004958 Ry

     iteration # 25     ecut=    50.00 Ry     beta=0.60
     Davidson diagonalization with overlap
     ethr =  1.01E-07,  avg # of iterations =  4.5

     total cpu time spent up to now is     3571.1 secs

     total energy              =    -467.84278543 Ry
     Harris-Foulkes estimate   =    -467.84279032 Ry
     estimated scf accuracy    <       0.00004616 Ry

     iteration # 26     ecut=    50.00 Ry     beta=0.60
     Davidson diagonalization with overlap
     ethr =  9.42E-08,  avg # of iterations =  1.9

     total cpu time spent up to now is     3610.3 secs

     total energy              =    -467.84278722 Ry
     Harris-Foulkes estimate   =    -467.84278737 Ry
     estimated scf accuracy    <       0.00000227 Ry

     iteration # 27     ecut=    50.00 Ry     beta=0.60
     Davidson diagonalization with overlap
     ethr =  4.64E-09,  avg # of iterations =  5.0

     total cpu time spent up to now is     3670.6 secs

     total energy              =    -467.84278800 Ry
     Harris-Foulkes estimate   =    -467.84278809 Ry
     estimated scf accuracy    <       0.00000094 Ry

     iteration # 28     ecut=    50.00 Ry     beta=0.60
     Davidson diagonalization with overlap
     ethr =  1.91E-09,  avg # of iterations =  1.1

     total cpu time spent up to now is     3708.1 secs

     total energy              =    -467.84278799 Ry
     Harris-Foulkes estimate   =    -467.84278803 Ry
     estimated scf accuracy    <       0.00000016 Ry

     iteration # 29     ecut=    50.00 Ry     beta=0.60
     Davidson diagonalization with overlap
     ethr =  3.31E-10,  avg # of iterations =  4.3

     total cpu time spent up to now is     3763.9 secs

     total energy              =    -467.84278804 Ry
     Harris-Foulkes estimate   =    -467.84278806 Ry
     estimated scf accuracy    <       0.00000031 Ry

     iteration # 30     ecut=    50.00 Ry     beta=0.60
     Davidson diagonalization with overlap
     ethr =  3.31E-10,  avg # of iterations =  1.0

     total cpu time spent up to now is     3801.4 secs

     total energy              =    -467.84278803 Ry
     Harris-Foulkes estimate   =    -467.84278804 Ry
     estimated scf accuracy    <       0.00000010 Ry

     iteration # 31     ecut=    50.00 Ry     beta=0.60
     Davidson diagonalization with overlap
     ethr =  1.96E-10,  avg # of iterations =  2.6

     total cpu time spent up to now is     3842.5 secs

     total energy              =    -467.84278804 Ry
     Harris-Foulkes estimate   =    -467.84278804 Ry
     estimated scf accuracy    <       0.00000001 Ry

     iteration # 32     ecut=    50.00 Ry     beta=0.60
     Davidson diagonalization with overlap
     ethr =  2.69E-11,  avg # of iterations =  4.5

     total cpu time spent up to now is     3898.0 secs

     total energy              =    -467.84278804 Ry
     Harris-Foulkes estimate   =    -467.84278804 Ry
     estimated scf accuracy    <          2.2E-09 Ry

     iteration # 33     ecut=    50.00 Ry     beta=0.60
     Davidson diagonalization with overlap
     ethr =  4.59E-12,  avg # of iterations =  3.0

     total cpu time spent up to now is     3940.9 secs

     total energy              =    -467.84278804 Ry
     Harris-Foulkes estimate   =    -467.84278804 Ry
     estimated scf accuracy    <          2.5E-09 Ry

     iteration # 34     ecut=    50.00 Ry     beta=0.60
     Davidson diagonalization with overlap
     ethr =  4.59E-12,  avg # of iterations =  1.0

     total cpu time spent up to now is     3978.2 secs

     total energy              =    -467.84278804 Ry
     Harris-Foulkes estimate   =    -467.84278804 Ry
     estimated scf accuracy    <          1.5E-09 Ry

     iteration # 35     ecut=    50.00 Ry     beta=0.60
     Davidson diagonalization with overlap
     ethr =  3.11E-12,  avg # of iterations =  1.3

     total cpu time spent up to now is     4016.2 secs

     total energy              =    -467.84278804 Ry
     Harris-Foulkes estimate   =    -467.84278804 Ry
     estimated scf accuracy    <          2.5E-10 Ry

     iteration # 36     ecut=    50.00 Ry     beta=0.60
     Davidson diagonalization with overlap
     ethr =  5.09E-13,  avg # of iterations =  4.2

     total cpu time spent up to now is     4069.5 secs

     End of self-consistent calculation

     Number of k-points >= 100: set verbosity='high' to print the bands.

     the Fermi energy is    12.4362 ev

!    total energy              =    -467.84278804 Ry
     Harris-Foulkes estimate   =    -467.84278804 Ry
     estimated scf accuracy    <          3.8E-11 Ry

     The total energy is the sum of the following terms:

     one-electron contribution =    -162.00434336 Ry
     hartree contribution      =      94.99289909 Ry
     xc contribution           =     -61.64127095 Ry
     ewald contribution        =    -339.18908568 Ry
     smearing contrib. (-TS)   =      -0.00098715 Ry

     convergence has been achieved in  36 iterations

     Forces acting on atoms (Ry/au):

     atom    1 type  2   force =    -0.00000000   -0.00400770   -0.00400770
     atom    2 type  2   force =     0.00000000    0.00000000    0.00000000
     atom    3 type  2   force =     0.00000000    0.00400770    0.00400770
     atom    4 type  1   force =     0.00000000    0.00000000    0.00000000

     Total force =     0.008015     Total SCF correction =     0.000011


     entering subroutine stress ...

          total   stress  (Ry/bohr**3)                   (kbar)     P= -124.52
  -0.00083007   0.00000000   0.00000000       -122.11      0.00      0.00
   0.00000000  -0.00085464   0.00000539          0.00   -125.72      0.79
   0.00000000   0.00000539  -0.00085464          0.00      0.79   -125.72


     number of scf cycles    =   2
     number of bfgs steps    =   1

     enthalpy old            =    -467.7863444800 Ry
     enthalpy new            =    -467.8427880404 Ry

     CASE: enthalpy_new < enthalpy_old

     new trust radius        =       0.2239187363 bohr
     new conv_thr            =            1.0E-10 Ry

     new unit-cell volume =    460.48928 a.u.^3 (    68.23747 Ang^3 )

CELL_PARAMETERS (alat=  1.88972599)
  -1.624115178   1.619361981  -1.619361981
  -1.624115178  -1.619361981   1.619361981
   0.000000000   6.486378088   6.486378088

ATOMIC_POSITIONS (angstrom)
Ti      -1.624115178   1.613831903   1.613831903
Ti      -3.248230356   3.243189044   3.243189044
Ti      -1.624115178   4.872546185   4.872546185
Nb      -3.248230356   6.486378088   6.486378088


     NEW-OLD atomic charge density approx. for the potential
     extrapolated charge   41.68966, renormalised to   49.00000

     total cpu time spent up to now is     4097.6 secs

     per-process dynamical memory:   267.5 Mb

     Self-consistent Calculation

     iteration #  1     ecut=    50.00 Ry     beta=0.60
     Davidson diagonalization with overlap
     c_bands:  3 eigenvalues not converged
     c_bands:  1 eigenvalues not converged
     c_bands:  1 eigenvalues not converged
     c_bands:  1 eigenvalues not converged
     c_bands:  1 eigenvalues not converged
     c_bands:  1 eigenvalues not converged
     c_bands:  1 eigenvalues not converged
     c_bands:  1 eigenvalues not converged
     c_bands:  1 eigenvalues not converged
     c_bands:  1 eigenvalues not converged
     c_bands:  2 eigenvalues not converged
     ethr =  1.00E-06,  avg # of iterations = 15.2

     total cpu time spent up to now is     4303.2 secs

     total energy              =    -441.92266961 Ry
     Harris-Foulkes estimate   =    -485.37767632 Ry
     estimated scf accuracy    <      29.14510825 Ry

     iteration #  2     ecut=    50.00 Ry     beta=0.60
     Davidson diagonalization with overlap
     ethr =  1.00E-02,  avg # of iterations =  7.0

     total cpu time spent up to now is     4416.6 secs

     total energy              =    -437.21092392 Ry
     Harris-Foulkes estimate   =    -513.78967719 Ry
     estimated scf accuracy    <     355.24951690 Ry

     iteration #  3     ecut=    50.00 Ry     beta=0.60
     Davidson diagonalization with overlap
     ethr =  1.00E-02,  avg # of iterations =  7.1

     total cpu time spent up to now is     4524.2 secs

     total energy              =    -464.14628828 Ry
     Harris-Foulkes estimate   =    -489.46963916 Ry
     estimated scf accuracy    <     142.21392847 Ry

     iteration #  4     ecut=    50.00 Ry     beta=0.60
     Davidson diagonalization with overlap
     ethr =  1.00E-02,  avg # of iterations =  6.5

     total cpu time spent up to now is     4611.1 secs

     total energy              =    -469.14520887 Ry
     Harris-Foulkes estimate   =    -471.05280445 Ry
     estimated scf accuracy    <       9.25795395 Ry

     iteration #  5     ecut=    50.00 Ry     beta=0.60
     Davidson diagonalization with overlap
     ethr =  1.00E-02,  avg # of iterations =  1.2

     total cpu time spent up to now is     4648.7 secs

     total energy              =    -467.69278308 Ry
     Harris-Foulkes estimate   =    -469.30820112 Ry
     estimated scf accuracy    <       6.51565109 Ry

     iteration #  6     ecut=    50.00 Ry     beta=0.60
     Davidson diagonalization with overlap
     ethr =  1.00E-02,  avg # of iterations =  2.0

     total cpu time spent up to now is     4689.5 secs

     total energy              =    -468.41075631 Ry
     Harris-Foulkes estimate   =    -468.06893367 Ry
     estimated scf accuracy    <       1.37678075 Ry

     iteration #  7     ecut=    50.00 Ry     beta=0.60
     Davidson diagonalization with overlap
     ethr =  2.81E-03,  avg # of iterations =  2.1

     total cpu time spent up to now is     4729.5 secs

     total energy              =    -468.21804656 Ry
     Harris-Foulkes estimate   =    -468.54709527 Ry
     estimated scf accuracy    <       3.39385051 Ry

     iteration #  8     ecut=    50.00 Ry     beta=0.60
     Davidson diagonalization with overlap
     ethr =  2.81E-03,  avg # of iterations =  1.0

     total cpu time spent up to now is     4766.6 secs

     total energy              =    -467.86848243 Ry
     Harris-Foulkes estimate   =    -468.24272859 Ry
     estimated scf accuracy    <       2.20316636 Ry

     iteration #  9     ecut=    50.00 Ry     beta=0.60
     Davidson diagonalization with overlap
     ethr =  2.81E-03,  avg # of iterations =  2.5

     total cpu time spent up to now is     4807.5 secs

     total energy              =    -468.10179202 Ry
     Harris-Foulkes estimate   =    -467.94345311 Ry
     estimated scf accuracy    <       0.55082635 Ry

     iteration # 10     ecut=    50.00 Ry     beta=0.60
     Davidson diagonalization with overlap
     ethr =  1.12E-03,  avg # of iterations =  2.7

     total cpu time spent up to now is     4849.5 secs

     total energy              =    -467.44768113 Ry
     Harris-Foulkes estimate   =    -468.16244085 Ry
     estimated scf accuracy    <       1.76231685 Ry

     iteration # 11     ecut=    50.00 Ry     beta=0.60
     Davidson diagonalization with overlap
     ethr =  1.12E-03,  avg # of iterations =  5.1

     total cpu time spent up to now is     4925.8 secs

     total energy              =    -467.90494709 Ry
     Harris-Foulkes estimate   =    -468.10057758 Ry
     estimated scf accuracy    <       3.45626796 Ry

     iteration # 12     ecut=    50.00 Ry     beta=0.60
     Davidson diagonalization with overlap
     ethr =  1.12E-03,  avg # of iterations =  1.0

     total cpu time spent up to now is     4962.9 secs

     total energy              =    -467.87022659 Ry
     Harris-Foulkes estimate   =    -467.93697510 Ry
     estimated scf accuracy    <       1.68112226 Ry

     iteration # 13     ecut=    50.00 Ry     beta=0.60
     Davidson diagonalization with overlap
     ethr =  1.12E-03,  avg # of iterations =  2.3

     total cpu time spent up to now is     5003.0 secs

     total energy              =    -467.79681675 Ry
     Harris-Foulkes estimate   =    -467.89059636 Ry
     estimated scf accuracy    <       0.90337198 Ry

     iteration # 14     ecut=    50.00 Ry     beta=0.60
     Davidson diagonalization with overlap
     ethr =  1.12E-03,  avg # of iterations =  4.1

     total cpu time spent up to now is     5050.3 secs

     total energy              =    -467.85989517 Ry
     Harris-Foulkes estimate   =    -467.87014127 Ry
     estimated scf accuracy    <       0.11423277 Ry

     iteration # 15     ecut=    50.00 Ry     beta=0.60
     Davidson diagonalization with overlap
     ethr =  2.33E-04,  avg # of iterations =  4.3

     total cpu time spent up to now is     5099.9 secs

     total energy              =    -467.87445138 Ry
     Harris-Foulkes estimate   =    -467.87644275 Ry
     estimated scf accuracy    <       0.06001931 Ry

     iteration # 16     ecut=    50.00 Ry     beta=0.60
     Davidson diagonalization with overlap
     ethr =  1.22E-04,  avg # of iterations =  2.4

     total cpu time spent up to now is     5140.3 secs

     total energy              =    -467.87672968 Ry
     Harris-Foulkes estimate   =    -467.87534610 Ry
     estimated scf accuracy    <       0.04478959 Ry

     iteration # 17     ecut=    50.00 Ry     beta=0.60
     Davidson diagonalization with overlap
     ethr =  9.14E-05,  avg # of iterations =  1.3

     total cpu time spent up to now is     5178.0 secs

     total energy              =    -467.87584933 Ry
     Harris-Foulkes estimate   =    -467.87723580 Ry
     estimated scf accuracy    <       0.06293694 Ry

     iteration # 18     ecut=    50.00 Ry     beta=0.60
     Davidson diagonalization with overlap
     ethr =  9.14E-05,  avg # of iterations =  1.2

     total cpu time spent up to now is     5215.5 secs

     total energy              =    -467.86771420 Ry
     Harris-Foulkes estimate   =    -467.87624273 Ry
     estimated scf accuracy    <       0.05516608 Ry

     iteration # 19     ecut=    50.00 Ry     beta=0.60
     Davidson diagonalization with overlap
     ethr =  9.14E-05,  avg # of iterations =  2.5

     total cpu time spent up to now is     5256.3 secs

     total energy              =    -467.87050994 Ry
     Harris-Foulkes estimate   =    -467.87102089 Ry
     estimated scf accuracy    <       0.00519995 Ry

     iteration # 20     ecut=    50.00 Ry     beta=0.60
     Davidson diagonalization with overlap
     c_bands:  2 eigenvalues not converged
     ethr =  1.06E-05,  avg # of iterations =  6.8

     total cpu time spent up to now is     5327.7 secs

     total energy              =    -467.87182105 Ry
     Harris-Foulkes estimate   =    -467.87204513 Ry
     estimated scf accuracy    <       0.00254217 Ry

     iteration # 21     ecut=    50.00 Ry     beta=0.60
     Davidson diagonalization with overlap
     ethr =  5.19E-06,  avg # of iterations =  1.1

     total cpu time spent up to now is     5365.1 secs

     total energy              =    -467.87173024 Ry
     Harris-Foulkes estimate   =    -467.87186408 Ry
     estimated scf accuracy    <       0.00095992 Ry

     iteration # 22     ecut=    50.00 Ry     beta=0.60
     Davidson diagonalization with overlap
     c_bands:  1 eigenvalues not converged
     c_bands:  1 eigenvalues not converged
     ethr =  1.96E-06,  avg # of iterations =  4.1

     total cpu time spent up to now is     5414.1 secs

     total energy              =    -467.87183985 Ry
     Harris-Foulkes estimate   =    -467.87184285 Ry
     estimated scf accuracy    <       0.00003673 Ry

     iteration # 23     ecut=    50.00 Ry     beta=0.60
     Davidson diagonalization with overlap
     ethr =  7.50E-08,  avg # of iterations =  4.2

     total cpu time spent up to now is     5464.6 secs

     total energy              =    -467.87184532 Ry
     Harris-Foulkes estimate   =    -467.87184562 Ry
     estimated scf accuracy    <       0.00002466 Ry

     iteration # 24     ecut=    50.00 Ry     beta=0.60
     Davidson diagonalization with overlap
     ethr =  5.03E-08,  avg # of iterations =  1.0

     total cpu time spent up to now is     5501.7 secs

     total energy              =    -467.87184334 Ry
     Harris-Foulkes estimate   =    -467.87184558 Ry
     estimated scf accuracy    <       0.00002151 Ry

     iteration # 25     ecut=    50.00 Ry     beta=0.60
     Davidson diagonalization with overlap
     ethr =  4.39E-08,  avg # of iterations =  1.1

     total cpu time spent up to now is     5539.0 secs

     total energy              =    -467.87184327 Ry
     Harris-Foulkes estimate   =    -467.87184388 Ry
     estimated scf accuracy    <       0.00000529 Ry

     iteration # 26     ecut=    50.00 Ry     beta=0.60
     Davidson diagonalization with overlap
     ethr =  1.08E-08,  avg # of iterations =  3.7

     total cpu time spent up to now is     5586.3 secs

     total energy              =    -467.87184388 Ry
     Harris-Foulkes estimate   =    -467.87184388 Ry
     estimated scf accuracy    <       0.00000002 Ry

     iteration # 27     ecut=    50.00 Ry     beta=0.60
     Davidson diagonalization with overlap
     ethr =  4.91E-11,  avg # of iterations =  5.8

     total cpu time spent up to now is     5661.6 secs

     total energy              =    -467.87184392 Ry
     Harris-Foulkes estimate   =    -467.87184393 Ry
     estimated scf accuracy    <       0.00000004 Ry

     iteration # 28     ecut=    50.00 Ry     beta=0.60
     Davidson diagonalization with overlap
     ethr =  4.91E-11,  avg # of iterations =  4.2

     total cpu time spent up to now is     5717.0 secs

     total energy              =    -467.87184392 Ry
     Harris-Foulkes estimate   =    -467.87184393 Ry
     estimated scf accuracy    <       0.00000006 Ry

     iteration # 29     ecut=    50.00 Ry     beta=0.60
     Davidson diagonalization with overlap
     ethr =  4.91E-11,  avg # of iterations =  2.6

     total cpu time spent up to now is     5757.9 secs

     total energy              =    -467.87184392 Ry
     Harris-Foulkes estimate   =    -467.87184392 Ry
     estimated scf accuracy    <          3.8E-09 Ry

     iteration # 30     ecut=    50.00 Ry     beta=0.60
     Davidson diagonalization with overlap
     ethr =  7.70E-12,  avg # of iterations =  4.1

     total cpu time spent up to now is     5810.8 secs

     total energy              =    -467.87184392 Ry
     Harris-Foulkes estimate   =    -467.87184392 Ry
     estimated scf accuracy    <          3.0E-10 Ry

     iteration # 31     ecut=    50.00 Ry     beta=0.60
     Davidson diagonalization with overlap
     ethr =  6.12E-13,  avg # of iterations =  3.1

     total cpu time spent up to now is     5854.5 secs

     End of self-consistent calculation

     Number of k-points >= 100: set verbosity='high' to print the bands.

     the Fermi energy is    14.8260 ev

!    total energy              =    -467.87184392 Ry
     Harris-Foulkes estimate   =    -467.87184392 Ry
     estimated scf accuracy    <          2.0E-11 Ry

     The total energy is the sum of the following terms:

     one-electron contribution =    -136.88237062 Ry
     hartree contribution      =      87.34454528 Ry
     xc contribution           =     -62.12708329 Ry
     ewald contribution        =    -356.20646907 Ry
     smearing contrib. (-TS)   =      -0.00046621 Ry

     convergence has been achieved in  31 iterations

     Forces acting on atoms (Ry/au):

     atom    1 type  2   force =     0.00000000    0.00275522    0.00275522
     atom    2 type  2   force =     0.00000000    0.00000000    0.00000000
     atom    3 type  2   force =    -0.00000000   -0.00275522   -0.00275522
     atom    4 type  1   force =     0.00000000    0.00000000    0.00000000

     Total force =     0.005510     Total SCF correction =     0.000016


     entering subroutine stress ...

          total   stress  (Ry/bohr**3)                   (kbar)     P=   25.18
   0.00018017  -0.00000000   0.00000000         26.50     -0.00      0.00
  -0.00000000   0.00016670  -0.00001181         -0.00     24.52     -1.74
   0.00000000  -0.00001181   0.00016670          0.00     -1.74     24.52


     number of scf cycles    =   3
     number of bfgs steps    =   2

     enthalpy old            =    -467.8427880404 Ry
     enthalpy new            =    -467.8718439244 Ry

     CASE: enthalpy_new < enthalpy_old

     new trust radius        =       0.0338283995 bohr
     new conv_thr            =            1.0E-10 Ry

     new unit-cell volume =    471.36747 a.u.^3 (    69.84945 Ang^3 )

CELL_PARAMETERS (alat=  1.88972599)
  -1.636916609   1.632392594  -1.632392594
  -1.636916609  -1.632392594   1.632392594
   0.000000000   6.535095419   6.535095419

ATOMIC_POSITIONS (angstrom)
Ti      -1.636916609   1.627405453   1.627405453
Ti      -3.273833218   3.267547710   3.267547710
Ti      -1.636916609   4.907689966   4.907689966
Nb      -3.273833218   6.535095419   6.535095419


     NEW-OLD atomic charge density approx. for the potential
     extrapolated charge   50.06152, renormalised to   49.00000

     total cpu time spent up to now is     5882.6 secs

     per-process dynamical memory:   267.5 Mb

     Self-consistent Calculation

     iteration #  1     ecut=    50.00 Ry     beta=0.60
     Davidson diagonalization with overlap
     c_bands:  1 eigenvalues not converged
     c_bands:  1 eigenvalues not converged
     c_bands:  1 eigenvalues not converged
     c_bands:  1 eigenvalues not converged
     c_bands:  1 eigenvalues not converged
     c_bands:  1 eigenvalues not converged
     c_bands:  1 eigenvalues not converged
     ethr =  1.00E-06,  avg # of iterations = 11.6

     total cpu time spent up to now is     6020.2 secs

     total energy              =    -467.41015168 Ry
     Harris-Foulkes estimate   =    -465.71429482 Ry
     estimated scf accuracy    <       0.51360403 Ry

     iteration #  2     ecut=    50.00 Ry     beta=0.60
     Davidson diagonalization with overlap
     ethr =  1.05E-03,  avg # of iterations =  6.1

     total cpu time spent up to now is     6117.4 secs

     total energy              =    -466.33752977 Ry
     Harris-Foulkes estimate   =    -470.59719867 Ry
     estimated scf accuracy    <      39.94173176 Ry

     iteration #  3     ecut=    50.00 Ry     beta=0.60
     Davidson diagonalization with overlap
     ethr =  1.05E-03,  avg # of iterations =  6.2

     total cpu time spent up to now is     6204.4 secs

     total energy              =    -467.67373809 Ry
     Harris-Foulkes estimate   =    -468.15020296 Ry
     estimated scf accuracy    <       4.07659853 Ry

     iteration #  4     ecut=    50.00 Ry     beta=0.60
     Davidson diagonalization with overlap
     ethr =  1.05E-03,  avg # of iterations =  5.0

     total cpu time spent up to now is     6262.0 secs

     total energy              =    -467.85736871 Ry
     Harris-Foulkes estimate   =    -467.90910796 Ry
     estimated scf accuracy    <       0.22352401 Ry

     iteration #  5     ecut=    50.00 Ry     beta=0.60
     Davidson diagonalization with overlap
     ethr =  4.56E-04,  avg # of iterations =  2.8

     total cpu time spent up to now is     6304.0 secs

     total energy              =    -467.87674878 Ry
     Harris-Foulkes estimate   =    -467.88704826 Ry
     estimated scf accuracy    <       0.30626386 Ry

     iteration #  6     ecut=    50.00 Ry     beta=0.60
     Davidson diagonalization with overlap
     ethr =  4.56E-04,  avg # of iterations =  1.0

     total cpu time spent up to now is     6341.4 secs

     total energy              =    -467.87363022 Ry
     Harris-Foulkes estimate   =    -467.87998100 Ry
     estimated scf accuracy    <       0.10971570 Ry

     iteration #  7     ecut=    50.00 Ry     beta=0.60
     Davidson diagonalization with overlap
     ethr =  2.24E-04,  avg # of iterations =  1.2

     total cpu time spent up to now is     6379.2 secs

     total energy              =    -467.87288825 Ry
     Harris-Foulkes estimate   =    -467.87510701 Ry
     estimated scf accuracy    <       0.04968871 Ry

     iteration #  8     ecut=    50.00 Ry     beta=0.60
     Davidson diagonalization with overlap
     ethr =  1.01E-04,  avg # of iterations =  2.6

     total cpu time spent up to now is     6420.4 secs

     total energy              =    -467.87294775 Ry
     Harris-Foulkes estimate   =    -467.87406582 Ry
     estimated scf accuracy    <       0.02565877 Ry

     iteration #  9     ecut=    50.00 Ry     beta=0.60
     Davidson diagonalization with overlap
     ethr =  5.24E-05,  avg # of iterations =  2.7

     total cpu time spent up to now is     6461.8 secs

     total energy              =    -467.87329838 Ry
     Harris-Foulkes estimate   =    -467.87339842 Ry
     estimated scf accuracy    <       0.01392129 Ry

     iteration # 10     ecut=    50.00 Ry     beta=0.60
     Davidson diagonalization with overlap
     ethr =  2.84E-05,  avg # of iterations =  3.3

     total cpu time spent up to now is     6504.8 secs

     total energy              =    -467.87132571 Ry
     Harris-Foulkes estimate   =    -467.87354001 Ry
     estimated scf accuracy    <       0.01272002 Ry

     iteration # 11     ecut=    50.00 Ry     beta=0.60
     Davidson diagonalization with overlap
     c_bands:  1 eigenvalues not converged
     ethr =  2.60E-05,  avg # of iterations =  2.9

     total cpu time spent up to now is     6547.1 secs

     total energy              =    -467.87227404 Ry
     Harris-Foulkes estimate   =    -467.87237494 Ry
     estimated scf accuracy    <       0.00144936 Ry

     iteration # 12     ecut=    50.00 Ry     beta=0.60
     Davidson diagonalization with overlap
     c_bands:  1 eigenvalues not converged
     ethr =  2.96E-06,  avg # of iterations =  7.1

     total cpu time spent up to now is     6619.4 secs

     total energy              =    -467.87263396 Ry
     Harris-Foulkes estimate   =    -467.87264158 Ry
     estimated scf accuracy    <       0.00030864 Ry

     iteration # 13     ecut=    50.00 Ry     beta=0.60
     Davidson diagonalization with overlap
     ethr =  6.30E-07,  avg # of iterations =  1.3

     total cpu time spent up to now is     6657.4 secs

     total energy              =    -467.87260078 Ry
     Harris-Foulkes estimate   =    -467.87263761 Ry
     estimated scf accuracy    <       0.00022607 Ry

     iteration # 14     ecut=    50.00 Ry     beta=0.60
     Davidson diagonalization with overlap
     ethr =  4.61E-07,  avg # of iterations =  2.5

     total cpu time spent up to now is     6698.1 secs

     total energy              =    -467.87261905 Ry
     Harris-Foulkes estimate   =    -467.87261909 Ry
     estimated scf accuracy    <       0.00000321 Ry

     iteration # 15     ecut=    50.00 Ry     beta=0.60
     Davidson diagonalization with overlap
     ethr =  6.56E-09,  avg # of iterations =  5.5

     total cpu time spent up to now is     6781.9 secs

     total energy              =    -467.87261821 Ry
     Harris-Foulkes estimate   =    -467.87263407 Ry
     estimated scf accuracy    <       0.00013312 Ry

     iteration # 16     ecut=    50.00 Ry     beta=0.60
     Davidson diagonalization with overlap
     ethr =  6.56E-09,  avg # of iterations =  5.0

     total cpu time spent up to now is     6854.2 secs

     total energy              =    -467.87262518 Ry
     Harris-Foulkes estimate   =    -467.87262475 Ry
     estimated scf accuracy    <       0.00000714 Ry

     iteration # 17     ecut=    50.00 Ry     beta=0.60
     Davidson diagonalization with overlap
     ethr =  6.56E-09,  avg # of iterations =  1.0

     total cpu time spent up to now is     6891.6 secs

     total energy              =    -467.87262320 Ry
     Harris-Foulkes estimate   =    -467.87262536 Ry
     estimated scf accuracy    <       0.00001338 Ry

     iteration # 18     ecut=    50.00 Ry     beta=0.60
     Davidson diagonalization with overlap
     ethr =  6.56E-09,  avg # of iterations =  3.9

     total cpu time spent up to now is     6941.1 secs

     total energy              =    -467.87262355 Ry
     Harris-Foulkes estimate   =    -467.87262430 Ry
     estimated scf accuracy    <       0.00000469 Ry

     iteration # 19     ecut=    50.00 Ry     beta=0.60
     Davidson diagonalization with overlap
     ethr =  6.56E-09,  avg # of iterations =  1.2

     total cpu time spent up to now is     6978.7 secs

     total energy              =    -467.87262333 Ry
     Harris-Foulkes estimate   =    -467.87262367 Ry
     estimated scf accuracy    <       0.00000236 Ry

     iteration # 20     ecut=    50.00 Ry     beta=0.60
     Davidson diagonalization with overlap
     ethr =  4.81E-09,  avg # of iterations =  2.6

     total cpu time spent up to now is     7022.9 secs

     total energy              =    -467.87262355 Ry
     Harris-Foulkes estimate   =    -467.87262357 Ry
     estimated scf accuracy    <       0.00000053 Ry

     iteration # 21     ecut=    50.00 Ry     beta=0.60
     Davidson diagonalization with overlap
     ethr =  1.09E-09,  avg # of iterations =  2.1

     total cpu time spent up to now is     7063.5 secs

     total energy              =    -467.87262352 Ry
     Harris-Foulkes estimate   =    -467.87262358 Ry
     estimated scf accuracy    <       0.00000060 Ry

     iteration # 22     ecut=    50.00 Ry     beta=0.60
     Davidson diagonalization with overlap
     ethr =  1.09E-09,  avg # of iterations =  1.2

     total cpu time spent up to now is     7101.2 secs

     total energy              =    -467.87262352 Ry
     Harris-Foulkes estimate   =    -467.87262354 Ry
     estimated scf accuracy    <       0.00000014 Ry

     iteration # 23     ecut=    50.00 Ry     beta=0.60
     Davidson diagonalization with overlap
     ethr =  2.94E-10,  avg # of iterations =  3.8

     total cpu time spent up to now is     7150.4 secs

     total energy              =    -467.87262354 Ry
     Harris-Foulkes estimate   =    -467.87262354 Ry
     estimated scf accuracy    <          1.3E-09 Ry

     iteration # 24     ecut=    50.00 Ry     beta=0.60
     Davidson diagonalization with overlap
     ethr =  2.57E-12,  avg # of iterations =  5.6

     total cpu time spent up to now is     7223.4 secs

     total energy              =    -467.87262354 Ry
     Harris-Foulkes estimate   =    -467.87262354 Ry
     estimated scf accuracy    <       0.00000001 Ry

     iteration # 25     ecut=    50.00 Ry     beta=0.60
     Davidson diagonalization with overlap
     ethr =  2.57E-12,  avg # of iterations =  4.1

     total cpu time spent up to now is     7277.5 secs

     total energy              =    -467.87262354 Ry
     Harris-Foulkes estimate   =    -467.87262354 Ry
     estimated scf accuracy    <          3.9E-10 Ry

     iteration # 26     ecut=    50.00 Ry     beta=0.60
     Davidson diagonalization with overlap
     ethr =  7.90E-13,  avg # of iterations =  4.1

     total cpu time spent up to now is     7329.8 secs

     total energy              =    -467.87262354 Ry
     Harris-Foulkes estimate   =    -467.87262354 Ry
     estimated scf accuracy    <          5.4E-10 Ry

     iteration # 27     ecut=    50.00 Ry     beta=0.60
     Davidson diagonalization with overlap
     ethr =  7.90E-13,  avg # of iterations =  1.0

     total cpu time spent up to now is     7367.2 secs

     total energy              =    -467.87262354 Ry
     Harris-Foulkes estimate   =    -467.87262354 Ry
     estimated scf accuracy    <          1.0E-10 Ry

     iteration # 28     ecut=    50.00 Ry     beta=0.60
     Davidson diagonalization with overlap
     ethr =  2.05E-13,  avg # of iterations =  3.9

     total cpu time spent up to now is     7418.0 secs

     End of self-consistent calculation

     Number of k-points >= 100: set verbosity='high' to print the bands.

     the Fermi energy is    14.4260 ev

!    total energy              =    -467.87262354 Ry
     Harris-Foulkes estimate   =    -467.87262354 Ry
     estimated scf accuracy    <          2.0E-11 Ry

     The total energy is the sum of the following terms:

     one-electron contribution =    -140.88349699 Ry
     hartree contribution      =      88.52613753 Ry
     xc contribution           =     -62.04395295 Ry
     ewald contribution        =    -353.47076145 Ry
     smearing contrib. (-TS)   =      -0.00054969 Ry

     convergence has been achieved in  28 iterations

     Forces acting on atoms (Ry/au):

     atom    1 type  2   force =     0.00000000    0.00132923    0.00132923
     atom    2 type  2   force =     0.00000000    0.00000000    0.00000000
     atom    3 type  2   force =    -0.00000000   -0.00132923   -0.00132923
     atom    4 type  1   force =     0.00000000    0.00000000    0.00000000

     Total force =     0.002658     Total SCF correction =     0.000007


     entering subroutine stress ...

          total   stress  (Ry/bohr**3)                   (kbar)     P=   -4.27
  -0.00001866  -0.00000000   0.00000000         -2.74     -0.00      0.00
   0.00000000  -0.00003425  -0.00000699          0.00     -5.04     -1.03
   0.00000000  -0.00000699  -0.00003425          0.00     -1.03     -5.04


     number of scf cycles    =   4
     number of bfgs steps    =   3

     enthalpy old            =    -467.8718439244 Ry
     enthalpy new            =    -467.8726235430 Ry

     CASE: enthalpy_new < enthalpy_old

     new trust radius        =       0.0053079662 bohr
     new conv_thr            =            1.0E-10 Ry

     new unit-cell volume =    469.81371 a.u.^3 (    69.61921 Ang^3 )

CELL_PARAMETERS (alat=  1.88972599)
  -1.635489629   1.630643809  -1.630643809
  -1.635489629  -1.630643809   1.630643809
   0.000000000   6.526228607   6.526228607

ATOMIC_POSITIONS (angstrom)
Ti      -1.635489629   1.625698661   1.625698661
Ti      -3.270979258   3.263114304   3.263114304
Ti      -1.635489629   4.900529946   4.900529946
Nb      -3.270979258   6.526228607   6.526228607


     NEW-OLD atomic charge density approx. for the potential
     extrapolated charge   48.84788, renormalised to   49.00000

     total cpu time spent up to now is     7453.1 secs

     per-process dynamical memory:   267.5 Mb

     Self-consistent Calculation

     iteration #  1     ecut=    50.00 Ry     beta=0.60
     Davidson diagonalization with overlap
     ethr =  1.00E-06,  avg # of iterations =  4.2

     total cpu time spent up to now is     7542.2 secs

     total energy              =    -467.86575866 Ry
     Harris-Foulkes estimate   =    -468.18755003 Ry
     estimated scf accuracy    <       0.00718110 Ry

     iteration #  2     ecut=    50.00 Ry     beta=0.60
     Davidson diagonalization with overlap
     c_bands:  1 eigenvalues not converged
     c_bands:  1 eigenvalues not converged
     ethr =  1.47E-05,  avg # of iterations =  6.5

     total cpu time spent up to now is     7640.3 secs

     total energy              =    -467.82198545 Ry
     Harris-Foulkes estimate   =    -467.92527771 Ry
     estimated scf accuracy    <       1.88185553 Ry

     iteration #  3     ecut=    50.00 Ry     beta=0.60
     Davidson diagonalization with overlap
     ethr =  1.47E-05,  avg # of iterations =  6.1

     total cpu time spent up to now is     7720.5 secs

     total energy              =    -467.87079186 Ry
     Harris-Foulkes estimate   =    -467.87547372 Ry
     estimated scf accuracy    <       0.02473791 Ry

     iteration #  4     ecut=    50.00 Ry     beta=0.60
     Davidson diagonalization with overlap
     ethr =  1.47E-05,  avg # of iterations =  4.8

     total cpu time spent up to now is     7777.8 secs

     total energy              =    -467.87162562 Ry
     Harris-Foulkes estimate   =    -467.87429632 Ry
     estimated scf accuracy    <       0.01750289 Ry

     iteration #  5     ecut=    50.00 Ry     beta=0.60
     Davidson diagonalization with overlap
     ethr =  1.47E-05,  avg # of iterations =  2.8

     total cpu time spent up to now is     7820.5 secs

     total energy              =    -467.87262107 Ry
     Harris-Foulkes estimate   =    -467.87277297 Ry
     estimated scf accuracy    <       0.00091616 Ry

     iteration #  6     ecut=    50.00 Ry     beta=0.60
     Davidson diagonalization with overlap
     ethr =  1.87E-06,  avg # of iterations =  5.3

     total cpu time spent up to now is     7883.0 secs

     total energy              =    -467.87272555 Ry
     Harris-Foulkes estimate   =    -467.87281171 Ry
     estimated scf accuracy    <       0.00087433 Ry

     iteration #  7     ecut=    50.00 Ry     beta=0.60
     Davidson diagonalization with overlap
     ethr =  1.78E-06,  avg # of iterations =  1.0

     total cpu time spent up to now is     7921.0 secs

     total energy              =    -467.87268639 Ry
     Harris-Foulkes estimate   =    -467.87273524 Ry
     estimated scf accuracy    <       0.00049835 Ry

     iteration #  8     ecut=    50.00 Ry     beta=0.60
     Davidson diagonalization with overlap
     ethr =  1.02E-06,  avg # of iterations =  1.0

     total cpu time spent up to now is     7958.8 secs

     total energy              =    -467.87265224 Ry
     Harris-Foulkes estimate   =    -467.87269474 Ry
     estimated scf accuracy    <       0.00026130 Ry

     iteration #  9     ecut=    50.00 Ry     beta=0.60
     Davidson diagonalization with overlap
     ethr =  5.33E-07,  avg # of iterations =  1.5

     total cpu time spent up to now is     7997.6 secs

     total energy              =    -467.87264763 Ry
     Harris-Foulkes estimate   =    -467.87266111 Ry
     estimated scf accuracy    <       0.00008240 Ry

     iteration # 10     ecut=    50.00 Ry     beta=0.60
     Davidson diagonalization with overlap
     ethr =  1.68E-07,  avg # of iterations =  3.5

     total cpu time spent up to now is     8046.5 secs

     total energy              =    -467.87265258 Ry
     Harris-Foulkes estimate   =    -467.87265677 Ry
     estimated scf accuracy    <       0.00000977 Ry

     iteration # 11     ecut=    50.00 Ry     beta=0.60
     Davidson diagonalization with overlap
     ethr =  1.99E-08,  avg # of iterations =  4.5

     total cpu time spent up to now is     8106.3 secs

     total energy              =    -467.87265566 Ry
     Harris-Foulkes estimate   =    -467.87265631 Ry
     estimated scf accuracy    <       0.00000817 Ry

     iteration # 12     ecut=    50.00 Ry     beta=0.60
     Davidson diagonalization with overlap
     ethr =  1.67E-08,  avg # of iterations =  1.0

     total cpu time spent up to now is     8144.2 secs

     total energy              =    -467.87265551 Ry
     Harris-Foulkes estimate   =    -467.87265582 Ry
     estimated scf accuracy    <       0.00000345 Ry

     iteration # 13     ecut=    50.00 Ry     beta=0.60
     Davidson diagonalization with overlap
     ethr =  7.05E-09,  avg # of iterations =  2.5

     total cpu time spent up to now is     8185.9 secs

     total energy              =    -467.87265560 Ry
     Harris-Foulkes estimate   =    -467.87265567 Ry
     estimated scf accuracy    <       0.00000052 Ry

     iteration # 14     ecut=    50.00 Ry     beta=0.60
     Davidson diagonalization with overlap
     ethr =  1.06E-09,  avg # of iterations =  4.1

     total cpu time spent up to now is     8239.1 secs

     total energy              =    -467.87265566 Ry
     Harris-Foulkes estimate   =    -467.87265569 Ry
     estimated scf accuracy    <       0.00000015 Ry

     iteration # 15     ecut=    50.00 Ry     beta=0.60
     Davidson diagonalization with overlap
     ethr =  3.01E-10,  avg # of iterations =  3.9

     total cpu time spent up to now is     8291.4 secs

     total energy              =    -467.87265569 Ry
     Harris-Foulkes estimate   =    -467.87265571 Ry
     estimated scf accuracy    <       0.00000025 Ry

     iteration # 16     ecut=    50.00 Ry     beta=0.60
     Davidson diagonalization with overlap
     ethr =  3.01E-10,  avg # of iterations =  1.0

     total cpu time spent up to now is     8329.3 secs

     total energy              =    -467.87265569 Ry
     Harris-Foulkes estimate   =    -467.87265569 Ry
     estimated scf accuracy    <       0.00000009 Ry

     iteration # 17     ecut=    50.00 Ry     beta=0.60
     Davidson diagonalization with overlap
     ethr =  1.89E-10,  avg # of iterations =  1.1

     total cpu time spent up to now is     8367.3 secs

     total energy              =    -467.87265568 Ry
     Harris-Foulkes estimate   =    -467.87265569 Ry
     estimated scf accuracy    <       0.00000005 Ry

     iteration # 18     ecut=    50.00 Ry     beta=0.60
     Davidson diagonalization with overlap
     ethr =  1.05E-10,  avg # of iterations =  3.8

     total cpu time spent up to now is     8416.8 secs

     total energy              =    -467.87265568 Ry
     Harris-Foulkes estimate   =    -467.87265569 Ry
     estimated scf accuracy    <          9.3E-09 Ry

     iteration # 19     ecut=    50.00 Ry     beta=0.60
     Davidson diagonalization with overlap
     ethr =  1.90E-11,  avg # of iterations =  2.8

     total cpu time spent up to now is     8460.2 secs

     total energy              =    -467.87265568 Ry
     Harris-Foulkes estimate   =    -467.87265568 Ry
     estimated scf accuracy    <          2.6E-09 Ry

     iteration # 20     ecut=    50.00 Ry     beta=0.60
     Davidson diagonalization with overlap
     ethr =  5.33E-12,  avg # of iterations =  3.0

     total cpu time spent up to now is     8503.2 secs

     total energy              =    -467.87265568 Ry
     Harris-Foulkes estimate   =    -467.87265568 Ry
     estimated scf accuracy    <          8.8E-10 Ry

     iteration # 21     ecut=    50.00 Ry     beta=0.60
     Davidson diagonalization with overlap
     ethr =  1.79E-12,  avg # of iterations =  3.5

     total cpu time spent up to now is     8549.5 secs

     End of self-consistent calculation

     Number of k-points >= 100: set verbosity='high' to print the bands.

     the Fermi energy is    14.4820 ev

!    total energy              =    -467.87265568 Ry
     Harris-Foulkes estimate   =    -467.87265568 Ry
     estimated scf accuracy    <          4.8E-11 Ry

     The total energy is the sum of the following terms:

     one-electron contribution =    -140.29410649 Ry
     hartree contribution      =      88.34625157 Ry
     xc contribution           =     -62.05537442 Ry
     ewald contribution        =    -353.86888578 Ry
     smearing contrib. (-TS)   =      -0.00054057 Ry

     convergence has been achieved in  21 iterations

     Forces acting on atoms (Ry/au):

     atom    1 type  2   force =     0.00000000    0.00139665    0.00139665
     atom    2 type  2   force =     0.00000000    0.00000000    0.00000000
     atom    3 type  2   force =    -0.00000000   -0.00139665   -0.00139665
     atom    4 type  1   force =     0.00000000    0.00000000    0.00000000

     Total force =     0.002793     Total SCF correction =     0.000017


     entering subroutine stress ...

          total   stress  (Ry/bohr**3)                   (kbar)     P=   -0.35
   0.00000791  -0.00000000   0.00000000          1.16     -0.00      0.00
   0.00000000  -0.00000753  -0.00000644          0.00     -1.11     -0.95
  -0.00000000  -0.00000644  -0.00000753         -0.00     -0.95     -1.11


     number of scf cycles    =   5
     number of bfgs steps    =   4

     enthalpy old            =    -467.8726235430 Ry
     enthalpy new            =    -467.8726556848 Ry

     CASE: enthalpy_new < enthalpy_old

     new trust radius        =       0.0024779250 bohr
     new conv_thr            =            1.0E-10 Ry

     new unit-cell volume =    469.37118 a.u.^3 (    69.55363 Ang^3 )

CELL_PARAMETERS (alat=  1.88972599)
  -1.635558652   1.630206470  -1.630206470
  -1.635558652  -1.630206470   1.630206470
   0.000000000   6.521555340   6.521555340

ATOMIC_POSITIONS (angstrom)
Ti      -1.635558652   1.625461078   1.625461078
Ti      -3.271117304   3.260777670   3.260777670
Ti      -1.635558652   4.896094262   4.896094262
Nb      -3.271117304   6.521555340   6.521555340


     NEW-OLD atomic charge density approx. for the potential
     extrapolated charge   48.95663, renormalised to   49.00000

     total cpu time spent up to now is     8577.5 secs

     per-process dynamical memory:   267.5 Mb

     Self-consistent Calculation

     iteration #  1     ecut=    50.00 Ry     beta=0.60
     Davidson diagonalization with overlap
     ethr =  1.00E-06,  avg # of iterations =  3.5

     total cpu time spent up to now is     8652.0 secs

     total energy              =    -467.87221341 Ry
     Harris-Foulkes estimate   =    -467.96215200 Ry
     estimated scf accuracy    <       0.00045628 Ry

     iteration #  2     ecut=    50.00 Ry     beta=0.60
     Davidson diagonalization with overlap
     c_bands:  1 eigenvalues not converged
     c_bands:  1 eigenvalues not converged
     c_bands:  1 eigenvalues not converged
     c_bands:  1 eigenvalues not converged
     c_bands:  1 eigenvalues not converged
     ethr =  9.31E-07,  avg # of iterations =  5.9

     total cpu time spent up to now is     8746.4 secs

     total energy              =    -467.86995745 Ry
     Harris-Foulkes estimate   =    -467.87528444 Ry
     estimated scf accuracy    <       0.08718288 Ry

     iteration #  3     ecut=    50.00 Ry     beta=0.60
     Davidson diagonalization with overlap
     ethr =  9.31E-07,  avg # of iterations =  5.6

     total cpu time spent up to now is     8824.5 secs

     total energy              =    -467.87243997 Ry
     Harris-Foulkes estimate   =    -467.87295995 Ry
     estimated scf accuracy    <       0.00463242 Ry

     iteration #  4     ecut=    50.00 Ry     beta=0.60
     Davidson diagonalization with overlap
     ethr =  9.31E-07,  avg # of iterations =  5.2

     total cpu time spent up to now is     8884.6 secs

     total energy              =    -467.87259893 Ry
     Harris-Foulkes estimate   =    -467.87279580 Ry
     estimated scf accuracy    <       0.00120777 Ry

     iteration #  5     ecut=    50.00 Ry     beta=0.60
     Davidson diagonalization with overlap
     ethr =  9.31E-07,  avg # of iterations =  3.0

     total cpu time spent up to now is     8928.6 secs

     total energy              =    -467.87266417 Ry
     Harris-Foulkes estimate   =    -467.87267958 Ry
     estimated scf accuracy    <       0.00006585 Ry

     iteration #  6     ecut=    50.00 Ry     beta=0.60
     Davidson diagonalization with overlap
     ethr =  1.34E-07,  avg # of iterations =  4.1

     total cpu time spent up to now is     8981.0 secs

     total energy              =    -467.87267157 Ry
     Harris-Foulkes estimate   =    -467.87267647 Ry
     estimated scf accuracy    <       0.00004900 Ry

     iteration #  7     ecut=    50.00 Ry     beta=0.60
     Davidson diagonalization with overlap
     ethr =  1.00E-07,  avg # of iterations =  1.0
[...]
     c_bands:  2 eigenvalues not converged
     c_bands:  2 eigenvalues not converged
     c_bands:  3 eigenvalues not converged
     c_bands:  2 eigenvalues not converged
     c_bands:  3 eigenvalues not converged
     c_bands:  2 eigenvalues not converged
     c_bands:  2 eigenvalues not converged
     c_bands:  1 eigenvalues not converged
     c_bands:  1 eigenvalues not converged
     c_bands:  1 eigenvalues not converged
     c_bands:  1 eigenvalues not converged
     c_bands:  1 eigenvalues not converged
     c_bands:  1 eigenvalues not converged
     c_bands:  2 eigenvalues not converged
     c_bands:  2 eigenvalues not converged
     c_bands:  1 eigenvalues not converged
     c_bands:  2 eigenvalues not converged
     c_bands:  3 eigenvalues not converged
     c_bands:  2 eigenvalues not converged
     c_bands:  1 eigenvalues not converged
     c_bands:  1 eigenvalues not converged
     c_bands:  2 eigenvalues not converged
     c_bands:  2 eigenvalues not converged
     c_bands:  2 eigenvalues not converged
     c_bands:  1 eigenvalues not converged
     c_bands:  2 eigenvalues not converged
     c_bands:  2 eigenvalues not converged
     c_bands:  2 eigenvalues not converged
     c_bands:  1 eigenvalues not converged
     c_bands:  3 eigenvalues not converged
     c_bands:  2 eigenvalues not converged
     c_bands:  1 eigenvalues not converged
     c_bands:  1 eigenvalues not converged
     c_bands:  1 eigenvalues not converged
     c_bands:  1 eigenvalues not converged
     c_bands:  1 eigenvalues not converged
     c_bands:  1 eigenvalues not converged
     c_bands:  1 eigenvalues not converged
     c_bands:  1 eigenvalues not converged
     c_bands:  2 eigenvalues not converged
     c_bands:  2 eigenvalues not converged
     c_bands:  1 eigenvalues not converged
     c_bands:  1 eigenvalues not converged
     c_bands:  1 eigenvalues not converged
     c_bands:  1 eigenvalues not converged
     c_bands:  1 eigenvalues not converged
     c_bands:  1 eigenvalues not converged
     c_bands:  1 eigenvalues not converged
     c_bands:  1 eigenvalues not converged
     c_bands:  1 eigenvalues not converged
     c_bands:  2 eigenvalues not converged
     c_bands:  2 eigenvalues not converged
     c_bands:  1 eigenvalues not converged
     c_bands:  2 eigenvalues not converged
     c_bands:  1 eigenvalues not converged
     c_bands:  1 eigenvalues not converged
     c_bands:  1 eigenvalues not converged
     c_bands:  2 eigenvalues not converged
     c_bands:  2 eigenvalues not converged
     c_bands:  1 eigenvalues not converged
     c_bands:  1 eigenvalues not converged
     c_bands:  1 eigenvalues not converged
     c_bands:  2 eigenvalues not converged
     c_bands:  1 eigenvalues not converged
     c_bands:  2 eigenvalues not converged
     c_bands:  2 eigenvalues not converged
     c_bands:  2 eigenvalues not converged
     c_bands:  1 eigenvalues not converged
     c_bands:  2 eigenvalues not converged
     c_bands:  2 eigenvalues not converged
     c_bands:  1 eigenvalues not converged
     c_bands:  1 eigenvalues not converged
     c_bands:  1 eigenvalues not converged
     c_bands:  1 eigenvalues not converged
     c_bands:  1 eigenvalues not converged
     c_bands:  1 eigenvalues not converged
     c_bands:  1 eigenvalues not converged
     c_bands:  1 eigenvalues not converged
     c_bands:  1 eigenvalues not converged
     ethr =  1.00E-06,  avg # of iterations = 17.6

     total cpu time spent up to now is    23904.9 secs

     total energy              =    -404.83046282 Ry
     Harris-Foulkes estimate   =    -474.84370860 Ry
     estimated scf accuracy    <      85.14372528 Ry

     iteration #  2     ecut=    50.00 Ry     beta=0.60
     Davidson diagonalization with overlap
     ethr =  1.00E-02,  avg # of iterations = 11.2

     total cpu time spent up to now is    24044.0 secs

     total energy              =    -438.66437289 Ry
     Harris-Foulkes estimate   =    -639.16867893 Ry
     estimated scf accuracy    <     744.11558387 Ry

     iteration #  3     ecut=    50.00 Ry     beta=0.60
     Davidson diagonalization with overlap
     ethr =  1.00E-02,  avg # of iterations =  7.5

     total cpu time spent up to now is    24138.1 secs

     total energy              =    -464.38404356 Ry
     Harris-Foulkes estimate   =    -486.56233268 Ry
     estimated scf accuracy    <     157.77326459 Ry

     iteration #  4     ecut=    50.00 Ry     beta=0.60
     Davidson diagonalization with overlap
     ethr =  1.00E-02,  avg # of iterations =  6.8

     total cpu time spent up to now is    24206.0 secs

     total energy              =    -469.82414957 Ry
     Harris-Foulkes estimate   =    -474.62444245 Ry
     estimated scf accuracy    <      44.90733279 Ry

     iteration #  5     ecut=    50.00 Ry     beta=0.60
     Davidson diagonalization with overlap
     ethr =  1.00E-02,  avg # of iterations =  2.8

     total cpu time spent up to now is    24243.3 secs

     total energy              =    -471.31999358 Ry
     Harris-Foulkes estimate   =    -470.73438324 Ry
     estimated scf accuracy    <      18.86546201 Ry

     iteration #  6     ecut=    50.00 Ry     beta=0.60
     Davidson diagonalization with overlap
     ethr =  1.00E-02,  avg # of iterations =  1.0

     total cpu time spent up to now is    24275.2 secs

     total energy              =    -466.97172635 Ry
     Harris-Foulkes estimate   =    -471.35011555 Ry
     estimated scf accuracy    <      19.61229132 Ry

     iteration #  7     ecut=    50.00 Ry     beta=0.60
     Davidson diagonalization with overlap
     ethr =  1.00E-02,  avg # of iterations =  4.0

     total cpu time spent up to now is    24321.7 secs

     total energy              =    -468.16390667 Ry
     Harris-Foulkes estimate   =    -468.17389926 Ry
     estimated scf accuracy    <       3.73710933 Ry

     iteration #  8     ecut=    50.00 Ry     beta=0.60
     Davidson diagonalization with overlap
     ethr =  7.63E-03,  avg # of iterations =  1.1

     total cpu time spent up to now is    24353.8 secs

     total energy              =    -467.98172028 Ry
     Harris-Foulkes estimate   =    -468.18952732 Ry
     estimated scf accuracy    <       3.77746196 Ry

     iteration #  9     ecut=    50.00 Ry     beta=0.60
     Davidson diagonalization with overlap
     ethr =  7.63E-03,  avg # of iterations =  1.0

     total cpu time spent up to now is    24385.8 secs

     total energy              =    -467.98941197 Ry
     Harris-Foulkes estimate   =    -468.05728447 Ry
     estimated scf accuracy    <       1.90757355 Ry

     iteration # 10     ecut=    50.00 Ry     beta=0.60
     Davidson diagonalization with overlap
     ethr =  3.89E-03,  avg # of iterations =  1.0

     total cpu time spent up to now is    24417.9 secs

     total energy              =    -467.76686829 Ry
     Harris-Foulkes estimate   =    -468.00025314 Ry
     estimated scf accuracy    <       1.69373592 Ry

     iteration # 11     ecut=    50.00 Ry     beta=0.60
     Davidson diagonalization with overlap
     ethr =  3.46E-03,  avg # of iterations =  2.4

     total cpu time spent up to now is    24453.2 secs

     total energy              =    -467.81881511 Ry
     Harris-Foulkes estimate   =    -467.88759451 Ry
     estimated scf accuracy    <       1.84492617 Ry

     iteration # 12     ecut=    50.00 Ry     beta=0.60
     Davidson diagonalization with overlap
     ethr =  3.46E-03,  avg # of iterations =  1.5

     total cpu time spent up to now is    24486.2 secs

     total energy              =    -467.93355747 Ry
     Harris-Foulkes estimate   =    -467.85633623 Ry
     estimated scf accuracy    <       0.67853321 Ry

     iteration # 13     ecut=    50.00 Ry     beta=0.60
     Davidson diagonalization with overlap
     ethr =  1.38E-03,  avg # of iterations =  2.2

     total cpu time spent up to now is    24520.9 secs

     total energy              =    -467.54614639 Ry
     Harris-Foulkes estimate   =    -468.00135844 Ry
     estimated scf accuracy    <       3.51519990 Ry

     iteration # 14     ecut=    50.00 Ry     beta=0.60
     Davidson diagonalization with overlap
     ethr =  1.38E-03,  avg # of iterations =  5.6

     total cpu time spent up to now is    24577.3 secs

     total energy              =    -468.08515681 Ry
     Harris-Foulkes estimate   =    -468.09824539 Ry
     estimated scf accuracy    <       6.31649222 Ry

     iteration # 15     ecut=    50.00 Ry     beta=0.60
     Davidson diagonalization with overlap
     ethr =  1.38E-03,  avg # of iterations =  1.0

     total cpu time spent up to now is    24609.5 secs

     total energy              =    -467.70596461 Ry
     Harris-Foulkes estimate   =    -468.08605704 Ry
     estimated scf accuracy    <       5.99758664 Ry

     iteration # 16     ecut=    50.00 Ry     beta=0.60
     Davidson diagonalization with overlap
     ethr =  1.38E-03,  avg # of iterations =  3.1

     total cpu time spent up to now is    24646.2 secs

     total energy              =    -467.86535009 Ry
     Harris-Foulkes estimate   =    -467.86526926 Ry
     estimated scf accuracy    <       0.10047524 Ry

     iteration # 17     ecut=    50.00 Ry     beta=0.60
     Davidson diagonalization with overlap
     ethr =  2.05E-04,  avg # of iterations =  5.9

     total cpu time spent up to now is    24695.6 secs

     total energy              =    -467.87268139 Ry
     Harris-Foulkes estimate   =    -467.87884404 Ry
     estimated scf accuracy    <       0.21530683 Ry

     iteration # 18     ecut=    50.00 Ry     beta=0.60
     Davidson diagonalization with overlap
     ethr =  2.05E-04,  avg # of iterations =  1.2

     total cpu time spent up to now is    24728.1 secs

     total energy              =    -467.86931488 Ry
     Harris-Foulkes estimate   =    -467.87514793 Ry
     estimated scf accuracy    <       0.06471882 Ry

     iteration # 19     ecut=    50.00 Ry     beta=0.60
     Davidson diagonalization with overlap
     ethr =  1.32E-04,  avg # of iterations =  1.7

     total cpu time spent up to now is    24761.7 secs

     total energy              =    -467.87092535 Ry
     Harris-Foulkes estimate   =    -467.87151696 Ry
     estimated scf accuracy    <       0.00233112 Ry

     iteration # 20     ecut=    50.00 Ry     beta=0.60
     Davidson diagonalization with overlap
     ethr =  4.76E-06,  avg # of iterations =  7.0

     total cpu time spent up to now is    24833.2 secs

     total energy              =    -467.87245221 Ry
     Harris-Foulkes estimate   =    -467.87261532 Ry
     estimated scf accuracy    <       0.00413185 Ry

     iteration # 21     ecut=    50.00 Ry     beta=0.60
     Davidson diagonalization with overlap
     ethr =  4.76E-06,  avg # of iterations =  1.0

     total cpu time spent up to now is    24865.4 secs

     total energy              =    -467.87226830 Ry
     Harris-Foulkes estimate   =    -467.87247362 Ry
     estimated scf accuracy    <       0.00252827 Ry

     iteration # 22     ecut=    50.00 Ry     beta=0.60
     Davidson diagonalization with overlap
     ethr =  4.76E-06,  avg # of iterations =  1.2

     total cpu time spent up to now is    24897.9 secs

     total energy              =    -467.87229014 Ry
     Harris-Foulkes estimate   =    -467.87233464 Ry
     estimated scf accuracy    <       0.00039990 Ry

     iteration # 23     ecut=    50.00 Ry     beta=0.60
     Davidson diagonalization with overlap
     ethr =  8.16E-07,  avg # of iterations =  4.5

     total cpu time spent up to now is    24942.8 secs

     total energy              =    -467.87234849 Ry
     Harris-Foulkes estimate   =    -467.87234926 Ry
     estimated scf accuracy    <       0.00003573 Ry

     iteration # 24     ecut=    50.00 Ry     beta=0.60
     Davidson diagonalization with overlap
     ethr =  7.29E-08,  avg # of iterations =  3.9

     total cpu time spent up to now is    24984.0 secs

     total energy              =    -467.87234565 Ry
     Harris-Foulkes estimate   =    -467.87235162 Ry
     estimated scf accuracy    <       0.00004279 Ry

     iteration # 25     ecut=    50.00 Ry     beta=0.60
     Davidson diagonalization with overlap
     ethr =  7.29E-08,  avg # of iterations =  1.4

     total cpu time spent up to now is    25016.9 secs

     total energy              =    -467.87234630 Ry
     Harris-Foulkes estimate   =    -467.87234716 Ry
     estimated scf accuracy    <       0.00000769 Ry

     iteration # 26     ecut=    50.00 Ry     beta=0.60
     Davidson diagonalization with overlap
     ethr =  1.57E-08,  avg # of iterations =  4.0

     total cpu time spent up to now is    25059.8 secs

     total energy              =    -467.87234743 Ry
     Harris-Foulkes estimate   =    -467.87234744 Ry
     estimated scf accuracy    <       0.00000005 Ry

     iteration # 27     ecut=    50.00 Ry     beta=0.60
     Davidson diagonalization with overlap
     ethr =  1.02E-10,  avg # of iterations =  5.6

     total cpu time spent up to now is    25127.8 secs

     total energy              =    -467.87234746 Ry
     Harris-Foulkes estimate   =    -467.87234752 Ry
     estimated scf accuracy    <       0.00000039 Ry

     iteration # 28     ecut=    50.00 Ry     beta=0.60
     Davidson diagonalization with overlap
     ethr =  1.02E-10,  avg # of iterations =  4.4

     total cpu time spent up to now is    25176.4 secs

     total energy              =    -467.87234749 Ry
     Harris-Foulkes estimate   =    -467.87234749 Ry
     estimated scf accuracy    <       0.00000006 Ry

     iteration # 29     ecut=    50.00 Ry     beta=0.60
     Davidson diagonalization with overlap
     ethr =  1.02E-10,  avg # of iterations =  1.0

     total cpu time spent up to now is    25208.6 secs

     total energy              =    -467.87234749 Ry
     Harris-Foulkes estimate   =    -467.87234749 Ry
     estimated scf accuracy    <       0.00000003 Ry

     iteration # 30     ecut=    50.00 Ry     beta=0.60
     Davidson diagonalization with overlap
     ethr =  6.97E-11,  avg # of iterations =  1.0

     total cpu time spent up to now is    25240.7 secs

     total energy              =    -467.87234749 Ry
     Harris-Foulkes estimate   =    -467.87234749 Ry
     estimated scf accuracy    <          6.3E-09 Ry

     iteration # 31     ecut=    50.00 Ry     beta=0.60
     Davidson diagonalization with overlap
     ethr =  1.29E-11,  avg # of iterations =  3.9

     total cpu time spent up to now is    25284.5 secs

     total energy              =    -467.87234749 Ry
     Harris-Foulkes estimate   =    -467.87234749 Ry
     estimated scf accuracy    <          1.5E-09 Ry

     iteration # 32     ecut=    50.00 Ry     beta=0.60
     Davidson diagonalization with overlap
     ethr =  3.11E-12,  avg # of iterations =  1.4

     total cpu time spent up to now is    25317.6 secs

     total energy              =    -467.87234749 Ry
     Harris-Foulkes estimate   =    -467.87234749 Ry
     estimated scf accuracy    <          3.3E-10 Ry

     iteration # 33     ecut=    50.00 Ry     beta=0.60
     Davidson diagonalization with overlap
     ethr =  6.66E-13,  avg # of iterations =  3.6

     total cpu time spent up to now is    25358.8 secs

     total energy              =    -467.87234749 Ry
     Harris-Foulkes estimate   =    -467.87234749 Ry
     estimated scf accuracy    <          7.3E-12 Ry

     iteration # 34     ecut=    50.00 Ry     beta=0.60
     Davidson diagonalization with overlap
     ethr =  1.00E-13,  avg # of iterations =  3.2

     total cpu time spent up to now is    25397.0 secs

     total energy              =    -467.87234749 Ry
     Harris-Foulkes estimate   =    -467.87234749 Ry
     estimated scf accuracy    <          1.3E-12 Ry

     iteration # 35     ecut=    50.00 Ry     beta=0.60
     Davidson diagonalization with overlap
     ethr =  1.00E-13,  avg # of iterations =  1.0

     total cpu time spent up to now is    25429.1 secs

     End of self-consistent calculation

     Number of k-points >= 100: set verbosity='high' to print the bands.

     the Fermi energy is    14.5036 ev

!    total energy              =    -467.87234749 Ry
     Harris-Foulkes estimate   =    -467.87234749 Ry
     estimated scf accuracy    <          1.1E-13 Ry

     The total energy is the sum of the following terms:

     one-electron contribution =    -139.72787144 Ry
     hartree contribution      =      88.10055885 Ry
     xc contribution           =     -62.05653885 Ry
     ewald contribution        =    -354.18781751 Ry
     smearing contrib. (-TS)   =      -0.00067854 Ry

     convergence has been achieved in  35 iterations

     Forces acting on atoms (Ry/au):

     atom    1 type  2   force =     0.00000000    0.00000188    0.00000188
     atom    2 type  2   force =     0.00000000    0.00000000   -0.00000000
     atom    3 type  2   force =    -0.00000000   -0.00000188   -0.00000188
     atom    4 type  1   force =     0.00000000    0.00000000    0.00000000

     Total force =     0.000004     Total SCF correction =     0.000000


     entering subroutine stress ...

          total   stress  (Ry/bohr**3)                   (kbar)     P=   -0.26
  -0.00000282  -0.00000000   0.00000000         -0.42     -0.00      0.00
  -0.00000000  -0.00000122   0.00000014         -0.00     -0.18      0.02
   0.00000000   0.00000014  -0.00000122          0.00      0.02     -0.18


     init_run     :     39.71s CPU     41.39s WALL (       2 calls)
     electrons    :  24019.31s CPU  24703.71s WALL (      25 calls)
     update_pot   :     65.49s CPU     65.78s WALL (      23 calls)
     forces       :    228.71s CPU    232.72s WALL (      25 calls)
     stress       :    384.14s CPU    394.31s WALL (      25 calls)

     Called by init_run:
     wfcinit      :     35.95s CPU     37.28s WALL (       2 calls)
     potinit      :      1.14s CPU      1.17s WALL (       2 calls)

     Called by electrons:
     c_bands      :  21047.64s CPU  21574.00s WALL (     467 calls)
     sum_band     :   2801.61s CPU   2932.03s WALL (     467 calls)
     v_of_rho     :     38.41s CPU     39.55s WALL (     487 calls)
     newd         :    130.43s CPU    158.01s WALL (     487 calls)
     mix_rho      :      5.80s CPU      5.96s WALL (     467 calls)

     Called by c_bands:
     init_us_2    :    414.08s CPU    422.31s WALL (  394400 calls)
     cegterg      :  20192.19s CPU  20701.77s WALL (  186800 calls)

     Called by sum_band:
     sum_band:bec :     14.03s CPU     14.24s WALL (  186800 calls)
     addusdens    :    172.15s CPU    206.14s WALL (     467 calls)

     Called by *egterg:
     h_psi        :  10664.48s CPU  11081.04s WALL (  802893 calls)
     s_psi        :   1717.34s CPU   1734.75s WALL (  802893 calls)
     g_psi        :     58.92s CPU     59.32s WALL (  615293 calls)
     cdiaghg      :   1970.13s CPU   1985.73s WALL (  790893 calls)

     Called by h_psi:
     h_psi:pot    :  10483.54s CPU  10896.91s WALL (  802893 calls)
     h_psi:calbec :   2026.76s CPU   2103.40s WALL (  802893 calls)
     vloc_psi     :   6867.30s CPU   7188.41s WALL (  802893 calls)
     add_vuspsi   :   1583.03s CPU   1600.79s WALL (  802893 calls)

     General routines
     calbec       :   2899.92s CPU   3005.68s WALL ( 1039693 calls)
     fft          :     25.35s CPU     26.38s WALL (    8360 calls)
     ffts         :      0.34s CPU      0.36s WALL (     954 calls)
     fftw         :   5141.17s CPU   5372.93s WALL (34696316 calls)
     interpolate  :      4.06s CPU      4.23s WALL (     954 calls)

     Parallel routines
     fft_scatter  :   1571.52s CPU   1650.64s WALL (34705630 calls)

     PWSCF        :     6h52m CPU        7h 4m WALL


   This run was terminated on:   2:49:54   2May2018            

=------------------------------------------------------------------------------=
   JOB DONE.
=------------------------------------------------------------------------------=
