
     Program PWSCF v.6.0 (svn rev. 13079) starts on  4May2018 at 10:24:46 

     This program is part of the open-source Quantum ESPRESSO suite
     for quantum simulation of materials; please cite
         "P. Giannozzi et al., J. Phys.:Condens. Matter 21 395502 (2009);
          URL http://www.quantum-espresso.org", 
     in publications or presentations arising from this work. More details at
     http://www.quantum-espresso.org/quote

     Parallel version (MPI), running on     4 processors
     R & G space division:  proc/nbgrp/npool/nimage =       4
     Waiting for input...
     Reading input from standard input

     Current dimensions of program PWSCF are:
     Max number of different atomic species (ntypx) = 10
     Max number of k-points (npk) =  40000
     Max angular momentum in pseudopotentials (lmaxx) =  3

     Subspace diagonalization in iterative solution of the eigenvalue problem:
     a serial algorithm will be used

     Message from routine find_sym:
     Not a group! Trying with lower acceptance parameter...
     Message from routine find_sym:
     Still not a group! symmetry disabled

     Parallelization info
     --------------------
     sticks:   dense  smooth     PW     G-vecs:    dense   smooth      PW
     Min         780     312     95                27301     6894    1169
     Max         781     313     96                27302     6895    1170
     Sum        3121    1251    383               109205    27577    4677



     bravais-lattice index     =            0
     lattice parameter (alat)  =       1.8897  a.u.
     unit-cell volume          =     808.3427 (a.u.)^3
     number of atoms/cell      =            6
     number of atomic types    =            2
     number of electrons       =        74.00
     number of Kohn-Sham states=           44
     kinetic-energy cutoff     =      40.0000  Ry
     charge density cutoff     =     400.0000  Ry
     convergence threshold     =      1.0E-10
     mixing beta               =       0.6000
     number of iterations used =            8  plain     mixing
     Exchange-correlation      = SLA  PW   PBE  PBE ( 1  4  3  4 0 0)
     nstep                     =           50


     celldm(1)=   1.889726  celldm(2)=   0.000000  celldm(3)=   0.000000
     celldm(4)=   0.000000  celldm(5)=   0.000000  celldm(6)=   0.000000

     crystal axes: (cart. coord. in units of alat)
               a(1) = (   3.045004   0.000000   4.972461 )  
               a(2) = (  -1.522502   2.637051   4.972461 )  
               a(3) = (  -1.522502  -2.637051   4.972461 )  

     reciprocal axes: (cart. coord. in units 2 pi/alat)
               b(1) = (  0.218938  0.000000  0.067036 )  
               b(2) = ( -0.109469  0.189606  0.067036 )  
               b(3) = ( -0.109469 -0.189606  0.067036 )  


     PseudoPot. # 1 for Nb read from file:
     ./Nb.pbe-nsp-van.UPF
     MD5 check sum: 0a22fc7fb0ba19a08ca5db297a5d2854
     Pseudo is Ultrasoft + core correction, Zval = 13.0
     Generated by new atomic code, or converted to UPF format
     Using radial grid of  887 points,  6 beta functions with: 
                l(1) =   0
                l(2) =   0
                l(3) =   1
                l(4) =   1
                l(5) =   2
                l(6) =   2
     Q(r) pseudized with  6 coefficients,  rinner =    1.000   1.000   1.000
                                                       1.000   1.000

     PseudoPot. # 2 for Ti read from file:
     ./Ti.pbe-sp-van_ak.UPF
     MD5 check sum: f98fea3e8887528921fefa5636a534ca
     Pseudo is Ultrasoft, Zval = 12.0
     Generated by new atomic code, or converted to UPF format
     Using radial grid of  851 points,  6 beta functions with: 
                l(1) =   0
                l(2) =   0
                l(3) =   1
                l(4) =   1
                l(5) =   2
                l(6) =   2
     Q(r) pseudized with  8 coefficients,  rinner =    1.000   1.000   1.000
                                                       1.000   1.000

     atomic species   valence    mass     pseudopotential
        Nb            13.00    92.90638     Nb( 1.00)
        Ti            12.00    47.86700     Ti( 1.00)

     No symmetry found



   Cartesian axes

     site n.     atom                  positions (alat units)
         1           Ti  tau(   1) = (   0.0000000   0.0000000   9.9449228  )
         2           Ti  tau(   2) = (   0.0000015  -1.7580350   7.4586921  )
         3           Ti  tau(   3) = (   0.0000000   0.0000000  14.9173841  )
         4           Ti  tau(   4) = (   1.5225036   0.8790162   7.4586921  )
         5           Nb  tau(   5) = (   0.0000000   0.0000000   4.9724614  )
         6           Nb  tau(   6) = (  -1.5225006   0.8790162   7.4586921  )

     number of k points=   868  Marzari-Vanderbilt smearing, width (Ry)=  0.0200

     Number of k-points >= 100: set verbosity='high' to print them.

     Dense  grid:   109205 G-vectors     FFT dimensions: (  72,  72,  72)

     Smooth grid:    27577 G-vectors     FFT dimensions: (  45,  45,  45)

     Estimated max dynamical RAM per process >     528.18Mb

     Estimated total allocated dynamical RAM >    2112.73Mb

     Initial potential from superposition of free atoms

     starting charge   69.99436, renormalised to   74.00000
     Starting wfc are   66 randomized atomic wfcs

     total cpu time spent up to now is      173.3 secs

     per-process dynamical memory:   617.4 Mb

     Self-consistent Calculation

     iteration #  1     ecut=    40.00 Ry     beta=0.60
     Davidson diagonalization with overlap
     ethr =  1.00E-02,  avg # of iterations =  3.3

     total cpu time spent up to now is      631.1 secs

     total energy              =    -697.95015661 Ry
     Harris-Foulkes estimate   =    -704.25680033 Ry
     estimated scf accuracy    <       8.20512944 Ry

     iteration #  2     ecut=    40.00 Ry     beta=0.60
     Davidson diagonalization with overlap
     ethr =  1.00E-02,  avg # of iterations =  4.7

     total cpu time spent up to now is     1225.4 secs

     total energy              =    -697.46582079 Ry
     Harris-Foulkes estimate   =    -712.25772520 Ry
     estimated scf accuracy    <      50.65872603 Ry

     iteration #  3     ecut=    40.00 Ry     beta=0.60
     Davidson diagonalization with overlap
     ethr =  1.00E-02,  avg # of iterations =  5.1

     total cpu time spent up to now is     1728.1 secs

     total energy              =    -702.26688600 Ry
     Harris-Foulkes estimate   =    -702.39392521 Ry
     estimated scf accuracy    <       0.37841228 Ry

     iteration #  4     ecut=    40.00 Ry     beta=0.60
     Davidson diagonalization with overlap
     ethr =  5.11E-04,  avg # of iterations =  6.8

     total cpu time spent up to now is     2417.2 secs

     total energy              =    -702.33983614 Ry
     Harris-Foulkes estimate   =    -702.41654664 Ry
     estimated scf accuracy    <       0.31065595 Ry

     iteration #  5     ecut=    40.00 Ry     beta=0.60
     Davidson diagonalization with overlap
     ethr =  4.20E-04,  avg # of iterations =  4.4

     total cpu time spent up to now is     2858.9 secs

     total energy              =    -702.39971243 Ry
     Harris-Foulkes estimate   =    -702.41648130 Ry
     estimated scf accuracy    <       0.24027796 Ry

     iteration #  6     ecut=    40.00 Ry     beta=0.60
     Davidson diagonalization with overlap
     ethr =  3.25E-04,  avg # of iterations =  1.0

     total cpu time spent up to now is     3161.7 secs

     total energy              =    -702.36823444 Ry
     Harris-Foulkes estimate   =    -702.40204760 Ry
     estimated scf accuracy    <       0.16713326 Ry

     iteration #  7     ecut=    40.00 Ry     beta=0.60
     Davidson diagonalization with overlap
     ethr =  2.26E-04,  avg # of iterations =  3.1

     total cpu time spent up to now is     3513.9 secs

     total energy              =    -702.37874635 Ry
     Harris-Foulkes estimate   =    -702.38275981 Ry
     estimated scf accuracy    <       0.02197583 Ry

     iteration #  8     ecut=    40.00 Ry     beta=0.60
     Davidson diagonalization with overlap
     ethr =  2.97E-05,  avg # of iterations =  5.1

     total cpu time spent up to now is     4002.9 secs

     total energy              =    -702.38294135 Ry
     Harris-Foulkes estimate   =    -702.38422240 Ry
     estimated scf accuracy    <       0.01006586 Ry

     iteration #  9     ecut=    40.00 Ry     beta=0.60
     Davidson diagonalization with overlap
     ethr =  1.36E-05,  avg # of iterations =  1.7

     total cpu time spent up to now is     4313.3 secs

     total energy              =    -702.38283241 Ry
     Harris-Foulkes estimate   =    -702.38367592 Ry
     estimated scf accuracy    <       0.00751087 Ry

     iteration # 10     ecut=    40.00 Ry     beta=0.60
     Davidson diagonalization with overlap
     ethr =  1.01E-05,  avg # of iterations =  1.0

     total cpu time spent up to now is     4623.9 secs

     total energy              =    -702.38300518 Ry
     Harris-Foulkes estimate   =    -702.38320556 Ry
     estimated scf accuracy    <       0.00244492 Ry

     iteration # 11     ecut=    40.00 Ry     beta=0.60
     Davidson diagonalization with overlap
     c_bands:  1 eigenvalues not converged
     c_bands:  1 eigenvalues not converged
     ethr =  3.30E-06,  avg # of iterations =  4.9

     total cpu time spent up to now is     5015.0 secs

     total energy              =    -702.38296330 Ry
     Harris-Foulkes estimate   =    -702.38318739 Ry
     estimated scf accuracy    <       0.00063428 Ry

     iteration # 12     ecut=    40.00 Ry     beta=0.60
     Davidson diagonalization with overlap
     ethr =  8.57E-07,  avg # of iterations =  6.2

     total cpu time spent up to now is     5598.9 secs

     total energy              =    -702.38330537 Ry
     Harris-Foulkes estimate   =    -702.38342572 Ry
     estimated scf accuracy    <       0.00296626 Ry

     iteration # 13     ecut=    40.00 Ry     beta=0.60
     Davidson diagonalization with overlap
     ethr =  8.57E-07,  avg # of iterations =  1.0

     total cpu time spent up to now is     5901.0 secs

     total energy              =    -702.38299830 Ry
     Harris-Foulkes estimate   =    -702.38333046 Ry
     estimated scf accuracy    <       0.00213780 Ry

     iteration # 14     ecut=    40.00 Ry     beta=0.60
     Davidson diagonalization with overlap
     ethr =  8.57E-07,  avg # of iterations =  4.3

     total cpu time spent up to now is     6345.3 secs

     total energy              =    -702.38319109 Ry
     Harris-Foulkes estimate   =    -702.38320484 Ry
     estimated scf accuracy    <       0.00010498 Ry

     iteration # 15     ecut=    40.00 Ry     beta=0.60
     Davidson diagonalization with overlap
     ethr =  1.42E-07,  avg # of iterations =  3.0

     total cpu time spent up to now is     6687.1 secs

     total energy              =    -702.38319617 Ry
     Harris-Foulkes estimate   =    -702.38319805 Ry
     estimated scf accuracy    <       0.00001171 Ry

     iteration # 16     ecut=    40.00 Ry     beta=0.60
     Davidson diagonalization with overlap
     ethr =  1.58E-08,  avg # of iterations =  5.3

     total cpu time spent up to now is     7195.6 secs

     total energy              =    -702.38319973 Ry
     Harris-Foulkes estimate   =    -702.38320144 Ry
     estimated scf accuracy    <       0.00001614 Ry

     iteration # 17     ecut=    40.00 Ry     beta=0.60
     Davidson diagonalization with overlap
     ethr =  1.58E-08,  avg # of iterations =  1.0

     total cpu time spent up to now is     7495.2 secs

     total energy              =    -702.38319941 Ry
     Harris-Foulkes estimate   =    -702.38320017 Ry
     estimated scf accuracy    <       0.00000366 Ry

     iteration # 18     ecut=    40.00 Ry     beta=0.60
     Davidson diagonalization with overlap
     ethr =  4.94E-09,  avg # of iterations =  4.8

     total cpu time spent up to now is     7961.7 secs

     total energy              =    -702.38320026 Ry
     Harris-Foulkes estimate   =    -702.38320089 Ry
     estimated scf accuracy    <       0.00000723 Ry

     iteration # 19     ecut=    40.00 Ry     beta=0.60
     Davidson diagonalization with overlap
     ethr =  4.94E-09,  avg # of iterations =  1.0

     total cpu time spent up to now is     8266.2 secs

     total energy              =    -702.38320020 Ry
     Harris-Foulkes estimate   =    -702.38320039 Ry
     estimated scf accuracy    <       0.00000234 Ry

     iteration # 20     ecut=    40.00 Ry     beta=0.60
     Davidson diagonalization with overlap
     ethr =  3.16E-09,  avg # of iterations =  4.0

     total cpu time spent up to now is     8634.7 secs

     total energy              =    -702.38320035 Ry
     Harris-Foulkes estimate   =    -702.38320037 Ry
     estimated scf accuracy    <       0.00000015 Ry

     iteration # 21     ecut=    40.00 Ry     beta=0.60
     Davidson diagonalization with overlap
     ethr =  1.98E-10,  avg # of iterations =  5.5

     total cpu time spent up to now is     9181.6 secs

     total energy              =    -702.38320041 Ry
     Harris-Foulkes estimate   =    -702.38320044 Ry
     estimated scf accuracy    <       0.00000029 Ry

     iteration # 22     ecut=    40.00 Ry     beta=0.60
     Davidson diagonalization with overlap
     ethr =  1.98E-10,  avg # of iterations =  1.0

     total cpu time spent up to now is     9487.7 secs

     total energy              =    -702.38320041 Ry
     Harris-Foulkes estimate   =    -702.38320042 Ry
     estimated scf accuracy    <       0.00000005 Ry

     iteration # 23     ecut=    40.00 Ry     beta=0.60
     Davidson diagonalization with overlap
     ethr =  6.51E-11,  avg # of iterations =  4.7

     total cpu time spent up to now is     9948.4 secs

     total energy              =    -702.38320042 Ry
     Harris-Foulkes estimate   =    -702.38320042 Ry
     estimated scf accuracy    <          8.8E-09 Ry

     iteration # 24     ecut=    40.00 Ry     beta=0.60
     Davidson diagonalization with overlap
     ethr =  1.19E-11,  avg # of iterations =  2.0

     total cpu time spent up to now is    10270.0 secs

     total energy              =    -702.38320042 Ry
     Harris-Foulkes estimate   =    -702.38320042 Ry
     estimated scf accuracy    <          4.5E-09 Ry

     iteration # 25     ecut=    40.00 Ry     beta=0.60
     Davidson diagonalization with overlap
     ethr =  6.07E-12,  avg # of iterations =  3.5

     total cpu time spent up to now is    10632.7 secs

     total energy              =    -702.38320042 Ry
     Harris-Foulkes estimate   =    -702.38320042 Ry
     estimated scf accuracy    <          2.1E-10 Ry

     iteration # 26     ecut=    40.00 Ry     beta=0.60
     Davidson diagonalization with overlap
     ethr =  2.79E-13,  avg # of iterations =  6.0

     total cpu time spent up to now is    11206.0 secs

     total energy              =    -702.38320042 Ry
     Harris-Foulkes estimate   =    -702.38320042 Ry
     estimated scf accuracy    <          4.9E-10 Ry

     iteration # 27     ecut=    40.00 Ry     beta=0.60
     Davidson diagonalization with overlap
     ethr =  2.79E-13,  avg # of iterations =  3.4

     total cpu time spent up to now is    11542.6 secs

     End of self-consistent calculation

     Number of k-points >= 100: set verbosity='high' to print the bands.

     the Fermi energy is    13.0006 ev

!    total energy              =    -702.38320042 Ry
     Harris-Foulkes estimate   =    -702.38320042 Ry
     estimated scf accuracy    <          5.4E-11 Ry

     The total energy is the sum of the following terms:

     one-electron contribution =    -231.18448134 Ry
     hartree contribution      =     137.68664809 Ry
     xc contribution           =     -94.33481754 Ry
     ewald contribution        =    -514.54414747 Ry
     smearing contrib. (-TS)   =      -0.00640217 Ry

     convergence has been achieved in  27 iterations

     Forces acting on atoms (Ry/au):

     atom    1 type  2   force =     0.00014244    0.00103507   -0.00245398
     atom    2 type  2   force =    -0.00096757    0.00039451   -0.00245369
     atom    3 type  2   force =     0.00096764   -0.00039449    0.00245363
     atom    4 type  2   force =    -0.00014242   -0.00103502    0.00245399
     atom    5 type  1   force =    -0.00159052   -0.00091833    0.00000007
     atom    6 type  1   force =     0.00159042    0.00091826   -0.00000001

     Total force =     0.005933     Total SCF correction =     0.000003


     entering subroutine stress ...

          total   stress  (Ry/bohr**3)                   (kbar)     P= -130.98
  -0.00089791   0.00000123   0.00000565       -132.09      0.18      0.83
   0.00000123  -0.00089934  -0.00000978          0.18   -132.30     -1.44
   0.00000565  -0.00000978  -0.00087400          0.83     -1.44   -128.57


     BFGS Geometry Optimization

     number of scf cycles    =   1
     number of bfgs steps    =   0

     enthalpy new            =    -702.3832004235 Ry

     new trust radius        =       0.1278549103 bohr
     new conv_thr            =            1.0E-10 Ry

     new unit-cell volume =    755.55327 a.u.^3 (   111.96144 Ang^3 )

CELL_PARAMETERS (alat=  1.88972599)
   2.977352319  -0.001121592   4.864243091
  -1.487542202   2.576498789   4.862953871
  -1.487704471  -2.579023030   4.864242870

ATOMIC_POSITIONS (angstrom)
Ti       0.001477283  -0.001894814   9.726356213
Ti       0.000499525  -1.720126675   7.294879394
Ti       0.002606384  -0.003850195  14.592709988
Ti       1.489333070   0.856940988   7.296990333
Nb      -0.000120906  -0.001690337   4.863813313
Nb      -1.486421127   0.857858042   7.295290171


     NEW-OLD atomic charge density approx. for the potential
     extrapolated charge   69.10959, renormalised to   74.00000

     total cpu time spent up to now is    11694.1 secs

     per-process dynamical memory:   642.0 Mb

     Self-consistent Calculation

     iteration #  1     ecut=    40.00 Ry     beta=0.60
     Davidson diagonalization with overlap
     c_bands:  1 eigenvalues not converged
     c_bands:  1 eigenvalues not converged
     c_bands:  1 eigenvalues not converged
     c_bands:  1 eigenvalues not converged
     c_bands:  2 eigenvalues not converged
     c_bands:  1 eigenvalues not converged
     c_bands:  2 eigenvalues not converged
     c_bands:  2 eigenvalues not converged
     c_bands:  1 eigenvalues not converged
     c_bands:  1 eigenvalues not converged
     c_bands:  1 eigenvalues not converged
     c_bands:  1 eigenvalues not converged
     c_bands:  1 eigenvalues not converged
     c_bands:  1 eigenvalues not converged
     c_bands:  1 eigenvalues not converged
     c_bands:  2 eigenvalues not converged
     c_bands:  2 eigenvalues not converged
     c_bands:  3 eigenvalues not converged
     c_bands:  1 eigenvalues not converged
     c_bands:  1 eigenvalues not converged
     c_bands:  1 eigenvalues not converged
     c_bands:  1 eigenvalues not converged
     c_bands:  1 eigenvalues not converged
     c_bands:  1 eigenvalues not converged
     c_bands:  2 eigenvalues not converged
     c_bands:  1 eigenvalues not converged
     c_bands:  2 eigenvalues not converged
     c_bands:  1 eigenvalues not converged
     c_bands:  1 eigenvalues not converged
     c_bands:  1 eigenvalues not converged
     c_bands:  2 eigenvalues not converged
     c_bands:  2 eigenvalues not converged
     c_bands:  2 eigenvalues not converged
     c_bands:  1 eigenvalues not converged
     c_bands:  1 eigenvalues not converged
     c_bands:  2 eigenvalues not converged
     c_bands:  2 eigenvalues not converged
     c_bands:  1 eigenvalues not converged
     c_bands:  2 eigenvalues not converged
     c_bands:  1 eigenvalues not converged
     c_bands:  1 eigenvalues not converged
     c_bands:  2 eigenvalues not converged
     c_bands:  1 eigenvalues not converged
     c_bands:  1 eigenvalues not converged
     c_bands:  1 eigenvalues not converged
     c_bands:  2 eigenvalues not converged
     c_bands:  1 eigenvalues not converged
     c_bands:  1 eigenvalues not converged
     c_bands:  2 eigenvalues not converged
     c_bands:  1 eigenvalues not converged
     c_bands:  1 eigenvalues not converged
     c_bands:  2 eigenvalues not converged
     c_bands:  1 eigenvalues not converged
     c_bands:  1 eigenvalues not converged
     c_bands:  2 eigenvalues not converged
     c_bands:  4 eigenvalues not converged
     c_bands:  1 eigenvalues not converged
     c_bands:  1 eigenvalues not converged
     c_bands:  2 eigenvalues not converged
     c_bands:  2 eigenvalues not converged
     c_bands:  1 eigenvalues not converged
     c_bands:  1 eigenvalues not converged
     c_bands:  1 eigenvalues not converged
     c_bands:  2 eigenvalues not converged
     c_bands:  1 eigenvalues not converged
     c_bands:  2 eigenvalues not converged
     c_bands:  3 eigenvalues not converged
     c_bands:  3 eigenvalues not converged
     c_bands:  1 eigenvalues not converged
     c_bands:  2 eigenvalues not converged
     c_bands:  1 eigenvalues not converged
     c_bands:  2 eigenvalues not converged
     c_bands:  2 eigenvalues not converged
     c_bands:  1 eigenvalues not converged
     c_bands:  2 eigenvalues not converged
     c_bands:  1 eigenvalues not converged
     c_bands:  1 eigenvalues not converged
     c_bands:  1 eigenvalues not converged
     c_bands:  2 eigenvalues not converged
     c_bands:  1 eigenvalues not converged
     c_bands:  2 eigenvalues not converged
     c_bands:  2 eigenvalues not converged
     c_bands:  1 eigenvalues not converged
     c_bands:  1 eigenvalues not converged
     c_bands:  2 eigenvalues not converged
     c_bands:  1 eigenvalues not converged
     c_bands:  2 eigenvalues not converged
     c_bands:  1 eigenvalues not converged
     c_bands:  1 eigenvalues not converged
     c_bands:  1 eigenvalues not converged
     c_bands:  1 eigenvalues not converged
     c_bands:  1 eigenvalues not converged
     c_bands:  2 eigenvalues not converged
     c_bands:  1 eigenvalues not converged
     c_bands:  1 eigenvalues not converged
     c_bands:  1 eigenvalues not converged
     c_bands:  1 eigenvalues not converged
     c_bands:  1 eigenvalues not converged
     c_bands:  1 eigenvalues not converged
     c_bands:  1 eigenvalues not converged
     c_bands:  1 eigenvalues not converged
     c_bands:  1 eigenvalues not converged
     c_bands:  2 eigenvalues not converged
     c_bands:  1 eigenvalues not converged
     c_bands:  1 eigenvalues not converged
     c_bands:  1 eigenvalues not converged
     c_bands:  1 eigenvalues not converged
     c_bands:  2 eigenvalues not converged
     c_bands:  1 eigenvalues not converged
     c_bands:  1 eigenvalues not converged
     c_bands:  1 eigenvalues not converged
     c_bands:  1 eigenvalues not converged
     c_bands:  3 eigenvalues not converged
     c_bands:  1 eigenvalues not converged
     c_bands:  3 eigenvalues not converged
     c_bands:  1 eigenvalues not converged
     c_bands:  2 eigenvalues not converged
     c_bands:  2 eigenvalues not converged
     c_bands:  1 eigenvalues not converged
     c_bands:  1 eigenvalues not converged
     c_bands:  1 eigenvalues not converged
     c_bands:  1 eigenvalues not converged
     c_bands:  1 eigenvalues not converged
     c_bands:  2 eigenvalues not converged
     c_bands:  1 eigenvalues not converged
     c_bands:  2 eigenvalues not converged
     c_bands:  1 eigenvalues not converged
     c_bands:  2 eigenvalues not converged
     c_bands:  2 eigenvalues not converged
     c_bands:  2 eigenvalues not converged
     c_bands:  1 eigenvalues not converged
     c_bands:  1 eigenvalues not converged
     c_bands:  1 eigenvalues not converged
     c_bands:  1 eigenvalues not converged
     c_bands:  1 eigenvalues not converged
     c_bands:  1 eigenvalues not converged
     c_bands:  1 eigenvalues not converged
     c_bands:  1 eigenvalues not converged
     c_bands:  1 eigenvalues not converged
     c_bands:  1 eigenvalues not converged
     c_bands:  2 eigenvalues not converged
     c_bands:  2 eigenvalues not converged
     c_bands:  1 eigenvalues not converged
     c_bands:  3 eigenvalues not converged
     c_bands:  1 eigenvalues not converged
     c_bands:  1 eigenvalues not converged
     c_bands:  1 eigenvalues not converged
     c_bands:  1 eigenvalues not converged
     c_bands:  1 eigenvalues not converged
     c_bands:  1 eigenvalues not converged
     c_bands:  1 eigenvalues not converged
     c_bands:  1 eigenvalues not converged
     c_bands:  1 eigenvalues not converged
     c_bands:  1 eigenvalues not converged
     c_bands:  2 eigenvalues not converged
     c_bands:  2 eigenvalues not converged
     c_bands:  1 eigenvalues not converged
     c_bands:  1 eigenvalues not converged
     c_bands:  1 eigenvalues not converged
     c_bands:  1 eigenvalues not converged
     c_bands:  1 eigenvalues not converged
     c_bands:  2 eigenvalues not converged
     c_bands:  1 eigenvalues not converged
     c_bands:  1 eigenvalues not converged
     c_bands:  1 eigenvalues not converged
     c_bands:  1 eigenvalues not converged
     c_bands:  1 eigenvalues not converged
     c_bands:  1 eigenvalues not converged
     c_bands:  1 eigenvalues not converged
     c_bands:  2 eigenvalues not converged
     c_bands:  1 eigenvalues not converged
     c_bands:  1 eigenvalues not converged
     c_bands:  1 eigenvalues not converged
     c_bands:  1 eigenvalues not converged
     c_bands:  1 eigenvalues not converged
     c_bands:  1 eigenvalues not converged
     c_bands:  1 eigenvalues not converged
     c_bands:  1 eigenvalues not converged
     c_bands:  1 eigenvalues not converged
     c_bands:  1 eigenvalues not converged
     c_bands:  1 eigenvalues not converged
     c_bands:  1 eigenvalues not converged
     c_bands:  2 eigenvalues not converged
     c_bands:  3 eigenvalues not converged
     c_bands:  3 eigenvalues not converged
     c_bands:  1 eigenvalues not converged
     c_bands:  1 eigenvalues not converged
     c_bands:  1 eigenvalues not converged
     c_bands:  2 eigenvalues not converged
     c_bands:  1 eigenvalues not converged
     c_bands:  1 eigenvalues not converged
     c_bands:  1 eigenvalues not converged
     c_bands:  1 eigenvalues not converged
     c_bands:  2 eigenvalues not converged
     c_bands:  1 eigenvalues not converged
     c_bands:  1 eigenvalues not converged
     c_bands:  1 eigenvalues not converged
     c_bands:  1 eigenvalues not converged
     c_bands:  1 eigenvalues not converged
     c_bands:  2 eigenvalues not converged
     c_bands:  1 eigenvalues not converged
     c_bands:  2 eigenvalues not converged
     c_bands:  1 eigenvalues not converged
     c_bands:  1 eigenvalues not converged
     c_bands:  1 eigenvalues not converged
     c_bands:  1 eigenvalues not converged
     c_bands:  2 eigenvalues not converged
     c_bands:  1 eigenvalues not converged
     c_bands:  1 eigenvalues not converged
     c_bands:  2 eigenvalues not converged
     c_bands:  2 eigenvalues not converged
     c_bands:  1 eigenvalues not converged
     c_bands:  1 eigenvalues not converged
     c_bands:  2 eigenvalues not converged
     c_bands:  1 eigenvalues not converged
     c_bands:  1 eigenvalues not converged
     c_bands:  1 eigenvalues not converged
     c_bands:  1 eigenvalues not converged
     c_bands:  1 eigenvalues not converged
     c_bands:  1 eigenvalues not converged
     c_bands:  1 eigenvalues not converged
     c_bands:  1 eigenvalues not converged
     c_bands:  1 eigenvalues not converged
     c_bands:  1 eigenvalues not converged
     c_bands:  1 eigenvalues not converged
     c_bands:  1 eigenvalues not converged
     c_bands:  1 eigenvalues not converged
     c_bands:  2 eigenvalues not converged
     c_bands:  2 eigenvalues not converged
     c_bands:  2 eigenvalues not converged
     c_bands:  2 eigenvalues not converged
     c_bands:  2 eigenvalues not converged
     c_bands:  1 eigenvalues not converged
     c_bands:  1 eigenvalues not converged
     c_bands:  2 eigenvalues not converged
     c_bands:  2 eigenvalues not converged
     c_bands:  1 eigenvalues not converged
     c_bands:  1 eigenvalues not converged
     c_bands:  2 eigenvalues not converged
     c_bands:  1 eigenvalues not converged
     c_bands:  1 eigenvalues not converged
     c_bands:  1 eigenvalues not converged
     c_bands:  2 eigenvalues not converged
     c_bands:  1 eigenvalues not converged
     c_bands:  2 eigenvalues not converged
     c_bands:  2 eigenvalues not converged
     c_bands:  2 eigenvalues not converged
     c_bands:  1 eigenvalues not converged
     c_bands:  1 eigenvalues not converged
     c_bands:  1 eigenvalues not converged
     c_bands:  1 eigenvalues not converged
     c_bands:  1 eigenvalues not converged
     c_bands:  1 eigenvalues not converged
     c_bands:  1 eigenvalues not converged
     c_bands:  1 eigenvalues not converged
     c_bands:  2 eigenvalues not converged
     c_bands:  1 eigenvalues not converged
     c_bands:  1 eigenvalues not converged
     c_bands:  2 eigenvalues not converged
     c_bands:  2 eigenvalues not converged
     c_bands:  1 eigenvalues not converged
     c_bands:  1 eigenvalues not converged
     c_bands:  1 eigenvalues not converged
     c_bands:  1 eigenvalues not converged
     c_bands:  2 eigenvalues not converged
     c_bands:  1 eigenvalues not converged
     c_bands:  2 eigenvalues not converged
     c_bands:  1 eigenvalues not converged
     c_bands:  1 eigenvalues not converged
     c_bands:  1 eigenvalues not converged
     c_bands:  1 eigenvalues not converged
     c_bands:  1 eigenvalues not converged
     c_bands:  2 eigenvalues not converged
     c_bands:  1 eigenvalues not converged
     c_bands:  2 eigenvalues not converged
     c_bands:  1 eigenvalues not converged
     c_bands:  2 eigenvalues not converged
     c_bands:  1 eigenvalues not converged
     c_bands:  1 eigenvalues not converged
     c_bands:  1 eigenvalues not converged
     c_bands:  2 eigenvalues not converged
     c_bands:  1 eigenvalues not converged
     c_bands:  2 eigenvalues not converged
     c_bands:  3 eigenvalues not converged
     c_bands:  1 eigenvalues not converged
     c_bands:  3 eigenvalues not converged
     c_bands:  1 eigenvalues not converged
     c_bands:  1 eigenvalues not converged
     c_bands:  3 eigenvalues not converged
     c_bands:  1 eigenvalues not converged
     c_bands:  1 eigenvalues not converged
     c_bands:  1 eigenvalues not converged
     c_bands:  1 eigenvalues not converged
     c_bands:  3 eigenvalues not converged
     c_bands:  2 eigenvalues not converged
     c_bands:  1 eigenvalues not converged
     c_bands:  1 eigenvalues not converged
     c_bands:  1 eigenvalues not converged
     c_bands:  2 eigenvalues not converged
     c_bands:  1 eigenvalues not converged
     c_bands:  1 eigenvalues not converged
     c_bands:  2 eigenvalues not converged
     c_bands:  1 eigenvalues not converged
     c_bands:  1 eigenvalues not converged
     c_bands:  2 eigenvalues not converged
     c_bands:  2 eigenvalues not converged
     c_bands:  2 eigenvalues not converged
     c_bands:  2 eigenvalues not converged
     c_bands:  2 eigenvalues not converged
     c_bands:  1 eigenvalues not converged
     ethr =  1.00E-06,  avg # of iterations = 18.6

     total cpu time spent up to now is    13343.9 secs

     total energy              =    -694.89149326 Ry
     Harris-Foulkes estimate   =    -713.20343676 Ry
     estimated scf accuracy    <       7.87011516 Ry

     iteration #  2     ecut=    40.00 Ry     beta=0.60
     Davidson diagonalization with overlap
     ethr =  1.00E-02,  avg # of iterations =  5.0

     total cpu time spent up to now is    14132.6 secs

     total energy              =    -700.79358413 Ry
     Harris-Foulkes estimate   =    -714.68442300 Ry
     estimated scf accuracy    <      49.77209462 Ry

     iteration #  3     ecut=    40.00 Ry     beta=0.60
     Davidson diagonalization with overlap
     ethr =  1.00E-02,  avg # of iterations =  3.3

     total cpu time spent up to now is    14556.3 secs

     total energy              =    -702.61365185 Ry
     Harris-Foulkes estimate   =    -704.06554243 Ry
     estimated scf accuracy    <       7.03525475 Ry

     iteration #  4     ecut=    40.00 Ry     beta=0.60
     Davidson diagonalization with overlap
     ethr =  9.51E-03,  avg # of iterations =  1.8

     total cpu time spent up to now is    14869.8 secs

     total energy              =    -702.84165338 Ry
     Harris-Foulkes estimate   =    -702.86736857 Ry
     estimated scf accuracy    <       4.48921690 Ry

     iteration #  5     ecut=    40.00 Ry     beta=0.60
     Davidson diagonalization with overlap
     ethr =  6.07E-03,  avg # of iterations =  1.1

     total cpu time spent up to now is    15180.7 secs

     total energy              =    -702.13367102 Ry
     Harris-Foulkes estimate   =    -702.89664971 Ry
     estimated scf accuracy    <       4.29289858 Ry

     iteration #  6     ecut=    40.00 Ry     beta=0.60
     Davidson diagonalization with overlap
     ethr =  5.80E-03,  avg # of iterations =  2.8

     total cpu time spent up to now is    15504.3 secs

     total energy              =    -702.42718283 Ry
     Harris-Foulkes estimate   =    -702.32535530 Ry
     estimated scf accuracy    <       1.09675626 Ry

     iteration #  7     ecut=    40.00 Ry     beta=0.60
     Davidson diagonalization with overlap
     ethr =  1.48E-03,  avg # of iterations =  4.8

     total cpu time spent up to now is    15919.8 secs

     total energy              =    -702.48885184 Ry
     Harris-Foulkes estimate   =    -702.53809795 Ry
     estimated scf accuracy    <       0.88186183 Ry

     iteration #  8     ecut=    40.00 Ry     beta=0.60
     Davidson diagonalization with overlap
     ethr =  1.19E-03,  avg # of iterations =  1.4

     total cpu time spent up to now is    16224.5 secs

     total energy              =    -702.47492368 Ry
     Harris-Foulkes estimate   =    -702.49786707 Ry
     estimated scf accuracy    <       0.67398699 Ry

     iteration #  9     ecut=    40.00 Ry     beta=0.60
     Davidson diagonalization with overlap
     ethr =  9.11E-04,  avg # of iterations =  1.2

     total cpu time spent up to now is    16527.4 secs

     total energy              =    -702.43155744 Ry
     Harris-Foulkes estimate   =    -702.47999481 Ry
     estimated scf accuracy    <       0.56976111 Ry

     iteration # 10     ecut=    40.00 Ry     beta=0.60
     Davidson diagonalization with overlap
     ethr =  7.70E-04,  avg # of iterations =  1.3

     total cpu time spent up to now is    16831.1 secs

     total energy              =    -702.35500075 Ry
     Harris-Foulkes estimate   =    -702.43851848 Ry
     estimated scf accuracy    <       0.35110848 Ry

     iteration # 11     ecut=    40.00 Ry     beta=0.60
     Davidson diagonalization with overlap
     ethr =  4.74E-04,  avg # of iterations =  5.2

     total cpu time spent up to now is    17324.2 secs

     total energy              =    -702.41593541 Ry
     Harris-Foulkes estimate   =    -702.41942568 Ry
     estimated scf accuracy    <       0.01542718 Ry

     iteration # 12     ecut=    40.00 Ry     beta=0.60
     Davidson diagonalization with overlap
     ethr =  2.08E-05,  avg # of iterations =  7.9

     total cpu time spent up to now is    17924.3 secs

     total energy              =    -702.41935853 Ry
     Harris-Foulkes estimate   =    -702.41938133 Ry
     estimated scf accuracy    <       0.00097428 Ry

     iteration # 13     ecut=    40.00 Ry     beta=0.60
     Davidson diagonalization with overlap
     c_bands:  1 eigenvalues not converged
     c_bands:  1 eigenvalues not converged
     c_bands:  1 eigenvalues not converged
     ethr =  1.32E-06,  avg # of iterations =  5.5

     total cpu time spent up to now is    18403.7 secs

     total energy              =    -702.41953426 Ry
     Harris-Foulkes estimate   =    -702.41955200 Ry
     estimated scf accuracy    <       0.00133862 Ry

     iteration # 14     ecut=    40.00 Ry     beta=0.60
     Davidson diagonalization with overlap
     ethr =  1.32E-06,  avg # of iterations =  1.0

     total cpu time spent up to now is    18702.7 secs

     total energy              =    -702.41949483 Ry
     Harris-Foulkes estimate   =    -702.41954463 Ry
     estimated scf accuracy    <       0.00124849 Ry

     iteration # 15     ecut=    40.00 Ry     beta=0.60
     Davidson diagonalization with overlap
     ethr =  1.32E-06,  avg # of iterations =  5.5

     total cpu time spent up to now is    19221.9 secs

     total energy              =    -702.41990117 Ry
     Harris-Foulkes estimate   =    -702.42013029 Ry
     estimated scf accuracy    <       0.00580745 Ry

     iteration # 16     ecut=    40.00 Ry     beta=0.60
     Davidson diagonalization with overlap
     ethr =  1.32E-06,  avg # of iterations =  1.8

     total cpu time spent up to now is    19529.1 secs

     total energy              =    -702.41923690 Ry
     Harris-Foulkes estimate   =    -702.41998704 Ry
     estimated scf accuracy    <       0.00584703 Ry

     iteration # 17     ecut=    40.00 Ry     beta=0.60
     Davidson diagonalization with overlap
     ethr =  1.32E-06,  avg # of iterations =  4.0

     total cpu time spent up to now is    19956.4 secs

     total energy              =    -702.41868166 Ry
     Harris-Foulkes estimate   =    -702.41950733 Ry
     estimated scf accuracy    <       0.00215514 Ry

     iteration # 18     ecut=    40.00 Ry     beta=0.60
     Davidson diagonalization with overlap
     ethr =  1.32E-06,  avg # of iterations =  5.4

     total cpu time spent up to now is    20631.6 secs

     total energy              =    -702.41808549 Ry
     Harris-Foulkes estimate   =    -702.42035591 Ry
     estimated scf accuracy    <       0.01148928 Ry

     iteration # 19     ecut=    40.00 Ry     beta=0.60
     Davidson diagonalization with overlap
     ethr =  1.32E-06,  avg # of iterations =  5.6

     total cpu time spent up to now is    21213.5 secs

     total energy              =    -702.41909155 Ry
     Harris-Foulkes estimate   =    -702.41925861 Ry
     estimated scf accuracy    <       0.00078873 Ry

     iteration # 20     ecut=    40.00 Ry     beta=0.60
     Davidson diagonalization with overlap
     ethr =  1.07E-06,  avg # of iterations =  3.4

     total cpu time spent up to now is    21545.4 secs

     total energy              =    -702.41915936 Ry
     Harris-Foulkes estimate   =    -702.41917859 Ry
     estimated scf accuracy    <       0.00008920 Ry

     iteration # 21     ecut=    40.00 Ry     beta=0.60
     Davidson diagonalization with overlap
     ethr =  1.21E-07,  avg # of iterations =  5.0

     total cpu time spent up to now is    22038.8 secs

     total energy              =    -702.41918504 Ry
     Harris-Foulkes estimate   =    -702.41920295 Ry
     estimated scf accuracy    <       0.00014315 Ry

     iteration # 22     ecut=    40.00 Ry     beta=0.60
     Davidson diagonalization with overlap
     ethr =  1.21E-07,  avg # of iterations =  1.0

     total cpu time spent up to now is    22337.0 secs

     total energy              =    -702.41918628 Ry
     Harris-Foulkes estimate   =    -702.41919009 Ry
     estimated scf accuracy    <       0.00003051 Ry

     iteration # 23     ecut=    40.00 Ry     beta=0.60
     Davidson diagonalization with overlap
     ethr =  4.12E-08,  avg # of iterations =  4.1

     total cpu time spent up to now is    22773.0 secs

     total energy              =    -702.41919144 Ry
     Harris-Foulkes estimate   =    -702.41919206 Ry
     estimated scf accuracy    <       0.00000452 Ry

     iteration # 24     ecut=    40.00 Ry     beta=0.60
     Davidson diagonalization with overlap
     ethr =  6.11E-09,  avg # of iterations =  2.8

     total cpu time spent up to now is    23097.5 secs

     total energy              =    -702.41919159 Ry
     Harris-Foulkes estimate   =    -702.41919171 Ry
     estimated scf accuracy    <       0.00000088 Ry

     iteration # 25     ecut=    40.00 Ry     beta=0.60
     Davidson diagonalization with overlap
     ethr =  1.19E-09,  avg # of iterations =  4.5

     total cpu time spent up to now is    23551.5 secs

     total energy              =    -702.41919177 Ry
     Harris-Foulkes estimate   =    -702.41919180 Ry
     estimated scf accuracy    <       0.00000027 Ry

     iteration # 26     ecut=    40.00 Ry     beta=0.60
     Davidson diagonalization with overlap
     ethr =  3.68E-10,  avg # of iterations =  1.4

     total cpu time spent up to now is    23857.4 secs

     total energy              =    -702.41919177 Ry
     Harris-Foulkes estimate   =    -702.41919178 Ry
     estimated scf accuracy    <       0.00000006 Ry

     iteration # 27     ecut=    40.00 Ry     beta=0.60
     Davidson diagonalization with overlap
     ethr =  7.53E-11,  avg # of iterations =  4.8

     total cpu time spent up to now is    24330.2 secs

     total energy              =    -702.41919178 Ry
     Harris-Foulkes estimate   =    -702.41919179 Ry
     estimated scf accuracy    <       0.00000004 Ry

     iteration # 28     ecut=    40.00 Ry     beta=0.60
     Davidson diagonalization with overlap
     ethr =  5.76E-11,  avg # of iterations =  1.0

     total cpu time spent up to now is    24631.3 secs

     total energy              =    -702.41919178 Ry
     Harris-Foulkes estimate   =    -702.41919179 Ry
     estimated scf accuracy    <       0.00000002 Ry

     iteration # 29     ecut=    40.00 Ry     beta=0.60
     Davidson diagonalization with overlap
     ethr =  2.59E-11,  avg # of iterations =  2.5

     total cpu time spent up to now is    24950.5 secs

     total energy              =    -702.41919178 Ry
     Harris-Foulkes estimate   =    -702.41919178 Ry
     estimated scf accuracy    <          6.7E-09 Ry

     iteration # 30     ecut=    40.00 Ry     beta=0.60
     Davidson diagonalization with overlap
     ethr =  9.03E-12,  avg # of iterations =  4.6

     total cpu time spent up to now is    25404.8 secs

     total energy              =    -702.41919179 Ry
     Harris-Foulkes estimate   =    -702.41919179 Ry
     estimated scf accuracy    <          2.0E-09 Ry

     iteration # 31     ecut=    40.00 Ry     beta=0.60
     Davidson diagonalization with overlap
     ethr =  2.66E-12,  avg # of iterations =  1.7

     total cpu time spent up to now is    25716.7 secs

     total energy              =    -702.41919179 Ry
     Harris-Foulkes estimate   =    -702.41919179 Ry
     estimated scf accuracy    <          1.5E-09 Ry

     iteration # 32     ecut=    40.00 Ry     beta=0.60
     Davidson diagonalization with overlap
     ethr =  2.02E-12,  avg # of iterations =  1.4

     total cpu time spent up to now is    26026.3 secs

     total energy              =    -702.41919179 Ry
     Harris-Foulkes estimate   =    -702.41919179 Ry
     estimated scf accuracy    <          3.4E-10 Ry

     iteration # 33     ecut=    40.00 Ry     beta=0.60
     Davidson diagonalization with overlap
     ethr =  4.57E-13,  avg # of iterations =  4.2

     total cpu time spent up to now is    26438.0 secs

     End of self-consistent calculation

     Number of k-points >= 100: set verbosity='high' to print the bands.

     the Fermi energy is    14.0928 ev

!    total energy              =    -702.41919179 Ry
     Harris-Foulkes estimate   =    -702.41919179 Ry
     estimated scf accuracy    <          1.6E-11 Ry

     The total energy is the sum of the following terms:

     one-electron contribution =    -213.85687175 Ry
     hartree contribution      =     132.36085083 Ry
     xc contribution           =     -94.65985377 Ry
     ewald contribution        =    -526.25726378 Ry
     smearing contrib. (-TS)   =      -0.00605332 Ry

     convergence has been achieved in  33 iterations

     Forces acting on atoms (Ry/au):

     atom    1 type  2   force =     0.00013291   -0.00013286   -0.00232851
     atom    2 type  2   force =     0.00004842   -0.00018158   -0.00232865
     atom    3 type  2   force =    -0.00004844    0.00018174    0.00232865
     atom    4 type  2   force =    -0.00013302    0.00013275    0.00232844
     atom    5 type  1   force =     0.00002823    0.00001633    0.00000008
     atom    6 type  1   force =    -0.00002810   -0.00001638   -0.00000002

     Total force =     0.004673     Total SCF correction =     0.000004


     entering subroutine stress ...

          total   stress  (Ry/bohr**3)                   (kbar)     P=  -65.77
  -0.00046289   0.00000068   0.00000404        -68.09      0.10      0.59
   0.00000068  -0.00046368  -0.00000700          0.10    -68.21     -1.03
   0.00000404  -0.00000700  -0.00041479          0.59     -1.03    -61.02


     number of scf cycles    =   2
     number of bfgs steps    =   1

     enthalpy old            =    -702.3832004235 Ry
     enthalpy new            =    -702.4191917853 Ry

     CASE: enthalpy_new < enthalpy_old

     new trust radius        =       0.1202297640 bohr
     new conv_thr            =            1.0E-10 Ry

     new unit-cell volume =    708.77385 a.u.^3 (   105.02945 Ang^3 )

CELL_PARAMETERS (alat=  1.88972599)
   2.913317372  -0.002652766   4.769780146
  -1.454029140   2.518452332   4.766764894
  -1.454360781  -2.524332284   4.769779815

ATOMIC_POSITIONS (angstrom)
Ti       0.003482215  -0.005287602   9.534077352
Ti       0.001908691  -1.685165670   7.150694874
Ti       0.005373419  -0.008562292  14.309797358
Ti       1.458160557   0.835891683   7.156635025
Nb       0.000862986  -0.003294276   4.768775068
Nb      -1.452537422   0.836551120   7.152157321


     NEW-OLD atomic charge density approx. for the potential
     extrapolated charge   69.38034, renormalised to   74.00000

     total cpu time spent up to now is    26572.0 secs

     per-process dynamical memory:   642.0 Mb

     Self-consistent Calculation

     iteration #  1     ecut=    40.00 Ry     beta=0.60
     Davidson diagonalization with overlap
     c_bands:  1 eigenvalues not converged
     c_bands:  1 eigenvalues not converged
     c_bands:  2 eigenvalues not converged
     c_bands:  1 eigenvalues not converged
     c_bands:  1 eigenvalues not converged
     c_bands:  1 eigenvalues not converged
     c_bands:  1 eigenvalues not converged
     c_bands:  1 eigenvalues not converged
     c_bands:  1 eigenvalues not converged
     c_bands:  2 eigenvalues not converged
     c_bands:  2 eigenvalues not converged
     c_bands:  1 eigenvalues not converged
     c_bands:  1 eigenvalues not converged
     c_bands:  1 eigenvalues not converged
     c_bands:  1 eigenvalues not converged
     c_bands:  1 eigenvalues not converged
     c_bands:  1 eigenvalues not converged
     c_bands:  1 eigenvalues not converged
     c_bands:  1 eigenvalues not converged
     c_bands:  2 eigenvalues not converged
     c_bands:  2 eigenvalues not converged
     c_bands:  1 eigenvalues not converged
     c_bands:  1 eigenvalues not converged
     c_bands:  1 eigenvalues not converged
     c_bands:  1 eigenvalues not converged
     c_bands:  3 eigenvalues not converged
     c_bands:  2 eigenvalues not converged
     c_bands:  2 eigenvalues not converged
     c_bands:  1 eigenvalues not converged
     c_bands:  1 eigenvalues not converged
     c_bands:  1 eigenvalues not converged
     c_bands:  1 eigenvalues not converged
     c_bands:  2 eigenvalues not converged
     c_bands:  1 eigenvalues not converged
     c_bands:  3 eigenvalues not converged
     c_bands:  1 eigenvalues not converged
     c_bands:  1 eigenvalues not converged
     c_bands:  1 eigenvalues not converged
     c_bands:  2 eigenvalues not converged
     c_bands:  1 eigenvalues not converged
     c_bands:  1 eigenvalues not converged
     c_bands:  2 eigenvalues not converged
     c_bands:  2 eigenvalues not converged
     c_bands:  1 eigenvalues not converged
     c_bands:  1 eigenvalues not converged
     c_bands:  1 eigenvalues not converged
     c_bands:  1 eigenvalues not converged
     c_bands:  2 eigenvalues not converged
     c_bands:  1 eigenvalues not converged
     c_bands:  2 eigenvalues not converged
     c_bands:  2 eigenvalues not converged
     c_bands:  1 eigenvalues not converged
     c_bands:  1 eigenvalues not converged
     c_bands:  1 eigenvalues not converged
     c_bands:  2 eigenvalues not converged
     c_bands:  2 eigenvalues not converged
     c_bands:  1 eigenvalues not converged
     c_bands:  2 eigenvalues not converged
     c_bands:  1 eigenvalues not converged
     c_bands:  1 eigenvalues not converged
     c_bands:  1 eigenvalues not converged
     c_bands:  4 eigenvalues not converged
     c_bands:  1 eigenvalues not converged
     c_bands:  1 eigenvalues not converged
     c_bands:  1 eigenvalues not converged
     c_bands:  1 eigenvalues not converged
     c_bands:  2 eigenvalues not converged
     c_bands:  2 eigenvalues not converged
     c_bands:  1 eigenvalues not converged
     c_bands:  1 eigenvalues not converged
     c_bands:  2 eigenvalues not converged
     c_bands:  1 eigenvalues not converged
     c_bands:  2 eigenvalues not converged
     c_bands:  1 eigenvalues not converged
     c_bands:  1 eigenvalues not converged
     c_bands:  1 eigenvalues not converged
     c_bands:  2 eigenvalues not converged
     c_bands:  3 eigenvalues not converged
     c_bands:  1 eigenvalues not converged
     c_bands:  2 eigenvalues not converged
     c_bands:  1 eigenvalues not converged
     c_bands:  2 eigenvalues not converged
     c_bands:  2 eigenvalues not converged
     c_bands:  1 eigenvalues not converged
     c_bands:  1 eigenvalues not converged
     c_bands:  1 eigenvalues not converged
     c_bands:  1 eigenvalues not converged
     c_bands:  2 eigenvalues not converged
     c_bands:  1 eigenvalues not converged
     c_bands:  1 eigenvalues not converged
     c_bands:  1 eigenvalues not converged
     c_bands:  1 eigenvalues not converged
     c_bands:  1 eigenvalues not converged
     c_bands:  1 eigenvalues not converged
     c_bands:  2 eigenvalues not converged
     c_bands:  1 eigenvalues not converged
     c_bands:  2 eigenvalues not converged
     c_bands:  2 eigenvalues not converged
     c_bands:  1 eigenvalues not converged
     c_bands:  1 eigenvalues not converged
     c_bands:  1 eigenvalues not converged
     c_bands:  1 eigenvalues not converged
     c_bands:  1 eigenvalues not converged
     c_bands:  1 eigenvalues not converged
     c_bands:  1 eigenvalues not converged
     c_bands:  1 eigenvalues not converged
     c_bands:  1 eigenvalues not converged
     c_bands:  1 eigenvalues not converged
     c_bands:  1 eigenvalues not converged
     c_bands:  1 eigenvalues not converged
     c_bands:  1 eigenvalues not converged
     c_bands:  1 eigenvalues not converged
     c_bands:  1 eigenvalues not converged
     c_bands:  1 eigenvalues not converged
     c_bands:  1 eigenvalues not converged
     c_bands:  2 eigenvalues not converged
     c_bands:  1 eigenvalues not converged
     c_bands:  2 eigenvalues not converged
     c_bands:  1 eigenvalues not converged
     c_bands:  1 eigenvalues not converged
     c_bands:  1 eigenvalues not converged
     c_bands:  1 eigenvalues not converged
     c_bands:  1 eigenvalues not converged
     c_bands:  1 eigenvalues not converged
     c_bands:  3 eigenvalues not converged
     c_bands:  1 eigenvalues not converged
     c_bands:  3 eigenvalues not converged
     c_bands:  2 eigenvalues not converged
     c_bands:  1 eigenvalues not converged
     c_bands:  2 eigenvalues not converged
     c_bands:  1 eigenvalues not converged
     c_bands:  2 eigenvalues not converged
     c_bands:  2 eigenvalues not converged
     c_bands:  1 eigenvalues not converged
     c_bands:  2 eigenvalues not converged
     c_bands:  2 eigenvalues not converged
     c_bands:  1 eigenvalues not converged
     c_bands:  1 eigenvalues not converged
     c_bands:  1 eigenvalues not converged
     c_bands:  1 eigenvalues not converged
     c_bands:  1 eigenvalues not converged
     c_bands:  1 eigenvalues not converged
     c_bands:  1 eigenvalues not converged
     c_bands:  2 eigenvalues not converged
     c_bands:  1 eigenvalues not converged
     c_bands:  1 eigenvalues not converged
     c_bands:  1 eigenvalues not converged
     c_bands:  1 eigenvalues not converged
     c_bands:  1 eigenvalues not converged
     c_bands:  1 eigenvalues not converged
     c_bands:  1 eigenvalues not converged
     c_bands:  1 eigenvalues not converged
     c_bands:  1 eigenvalues not converged
     c_bands:  1 eigenvalues not converged
     c_bands:  1 eigenvalues not converged
     c_bands:  2 eigenvalues not converged
     c_bands:  2 eigenvalues not converged
     c_bands:  1 eigenvalues not converged
     c_bands:  1 eigenvalues not converged
     c_bands:  1 eigenvalues not converged
     c_bands:  1 eigenvalues not converged
     c_bands:  1 eigenvalues not converged
     c_bands:  1 eigenvalues not converged
     c_bands:  1 eigenvalues not converged
     c_bands:  1 eigenvalues not converged
     c_bands:  1 eigenvalues not converged
     c_bands:  1 eigenvalues not converged
     c_bands:  1 eigenvalues not converged
     c_bands:  1 eigenvalues not converged
     c_bands:  3 eigenvalues not converged
     c_bands:  1 eigenvalues not converged
     c_bands:  1 eigenvalues not converged
     c_bands:  1 eigenvalues not converged
     c_bands:  1 eigenvalues not converged
     c_bands:  2 eigenvalues not converged
     c_bands:  1 eigenvalues not converged
     c_bands:  1 eigenvalues not converged
     c_bands:  2 eigenvalues not converged
     c_bands:  2 eigenvalues not converged
     c_bands:  2 eigenvalues not converged
     c_bands:  1 eigenvalues not converged
     c_bands:  1 eigenvalues not converged
     c_bands:  1 eigenvalues not converged
     c_bands:  1 eigenvalues not converged
     c_bands:  1 eigenvalues not converged
     c_bands:  1 eigenvalues not converged
     c_bands:  1 eigenvalues not converged
     c_bands:  1 eigenvalues not converged
     c_bands:  1 eigenvalues not converged
     c_bands:  1 eigenvalues not converged
     c_bands:  1 eigenvalues not converged
     c_bands:  1 eigenvalues not converged
     c_bands:  1 eigenvalues not converged
     c_bands:  1 eigenvalues not converged
     c_bands:  2 eigenvalues not converged
     c_bands:  2 eigenvalues not converged
     c_bands:  2 eigenvalues not converged
     c_bands:  1 eigenvalues not converged
     c_bands:  1 eigenvalues not converged
     c_bands:  1 eigenvalues not converged
     c_bands:  3 eigenvalues not converged
     c_bands:  2 eigenvalues not converged
     c_bands:  2 eigenvalues not converged
     c_bands:  1 eigenvalues not converged
     c_bands:  1 eigenvalues not converged
     c_bands:  1 eigenvalues not converged
     c_bands:  1 eigenvalues not converged
     c_bands:  1 eigenvalues not converged
     c_bands:  1 eigenvalues not converged
     c_bands:  1 eigenvalues not converged
     c_bands:  1 eigenvalues not converged
     c_bands:  1 eigenvalues not converged
     c_bands:  1 eigenvalues not converged
     c_bands:  1 eigenvalues not converged
     c_bands:  1 eigenvalues not converged
     c_bands:  1 eigenvalues not converged
     c_bands:  1 eigenvalues not converged
     c_bands:  1 eigenvalues not converged
     c_bands:  2 eigenvalues not converged
     c_bands:  1 eigenvalues not converged
     c_bands:  1 eigenvalues not converged
     c_bands:  1 eigenvalues not converged
     c_bands:  1 eigenvalues not converged
     c_bands:  1 eigenvalues not converged
     c_bands:  1 eigenvalues not converged
     c_bands:  1 eigenvalues not converged
     c_bands:  1 eigenvalues not converged
     c_bands:  1 eigenvalues not converged
     c_bands:  1 eigenvalues not converged
     c_bands:  2 eigenvalues not converged
     c_bands:  2 eigenvalues not converged
     c_bands:  1 eigenvalues not converged
     c_bands:  2 eigenvalues not converged
     c_bands:  1 eigenvalues not converged
     c_bands:  1 eigenvalues not converged
     c_bands:  1 eigenvalues not converged
     c_bands:  1 eigenvalues not converged
     c_bands:  1 eigenvalues not converged
     c_bands:  2 eigenvalues not converged
     c_bands:  1 eigenvalues not converged
     c_bands:  2 eigenvalues not converged
     c_bands:  1 eigenvalues not converged
     c_bands:  1 eigenvalues not converged
     c_bands:  1 eigenvalues not converged
     c_bands:  1 eigenvalues not converged
     c_bands:  1 eigenvalues not converged
     c_bands:  1 eigenvalues not converged
     c_bands:  1 eigenvalues not converged
     c_bands:  1 eigenvalues not converged
     c_bands:  1 eigenvalues not converged
     c_bands:  1 eigenvalues not converged
     c_bands:  1 eigenvalues not converged
     c_bands:  2 eigenvalues not converged
     c_bands:  1 eigenvalues not converged
     c_bands:  1 eigenvalues not converged
     c_bands:  2 eigenvalues not converged
     c_bands:  1 eigenvalues not converged
     c_bands:  2 eigenvalues not converged
     c_bands:  1 eigenvalues not converged
     c_bands:  1 eigenvalues not converged
     c_bands:  1 eigenvalues not converged
     c_bands:  1 eigenvalues not converged
     c_bands:  1 eigenvalues not converged
     c_bands:  1 eigenvalues not converged
     c_bands:  1 eigenvalues not converged
     c_bands:  1 eigenvalues not converged
     c_bands:  1 eigenvalues not converged
     c_bands:  1 eigenvalues not converged
     c_bands:  1 eigenvalues not converged
     c_bands:  2 eigenvalues not converged
     c_bands:  2 eigenvalues not converged
     c_bands:  2 eigenvalues not converged
     c_bands:  2 eigenvalues not converged
     c_bands:  1 eigenvalues not converged
     c_bands:  1 eigenvalues not converged
     c_bands:  1 eigenvalues not converged
     c_bands:  1 eigenvalues not converged
     c_bands:  1 eigenvalues not converged
     c_bands:  1 eigenvalues not converged
     c_bands:  1 eigenvalues not converged
     c_bands:  1 eigenvalues not converged
     c_bands:  1 eigenvalues not converged
     c_bands:  1 eigenvalues not converged
     c_bands:  2 eigenvalues not converged
     c_bands:  2 eigenvalues not converged
     c_bands:  1 eigenvalues not converged
     c_bands:  2 eigenvalues not converged
     c_bands:  2 eigenvalues not converged
     c_bands:  2 eigenvalues not converged
     c_bands:  1 eigenvalues not converged
     c_bands:  2 eigenvalues not converged
     c_bands:  2 eigenvalues not converged
     c_bands:  1 eigenvalues not converged
     c_bands:  1 eigenvalues not converged
     c_bands:  1 eigenvalues not converged
     c_bands:  1 eigenvalues not converged
     c_bands:  1 eigenvalues not converged
     c_bands:  1 eigenvalues not converged
     c_bands:  1 eigenvalues not converged
     c_bands:  1 eigenvalues not converged
     c_bands:  1 eigenvalues not converged
     c_bands:  1 eigenvalues not converged
     c_bands:  1 eigenvalues not converged
     c_bands:  1 eigenvalues not converged
     c_bands:  1 eigenvalues not converged
     c_bands:  1 eigenvalues not converged
     c_bands:  1 eigenvalues not converged
     c_bands:  1 eigenvalues not converged
     c_bands:  2 eigenvalues not converged
     c_bands:  1 eigenvalues not converged
     c_bands:  2 eigenvalues not converged
     c_bands:  1 eigenvalues not converged
     c_bands:  1 eigenvalues not converged
     c_bands:  1 eigenvalues not converged
     c_bands:  1 eigenvalues not converged
     c_bands:  2 eigenvalues not converged
     c_bands:  1 eigenvalues not converged
     c_bands:  2 eigenvalues not converged
     c_bands:  1 eigenvalues not converged
     c_bands:  2 eigenvalues not converged
     c_bands:  1 eigenvalues not converged
     c_bands:  1 eigenvalues not converged
     c_bands:  1 eigenvalues not converged
     c_bands:  2 eigenvalues not converged
     c_bands:  1 eigenvalues not converged
     c_bands:  1 eigenvalues not converged
     c_bands:  1 eigenvalues not converged
     c_bands:  2 eigenvalues not converged
     c_bands:  2 eigenvalues not converged
     c_bands:  1 eigenvalues not converged
     c_bands:  1 eigenvalues not converged
     c_bands:  1 eigenvalues not converged
     c_bands:  1 eigenvalues not converged
     c_bands:  1 eigenvalues not converged
     c_bands:  1 eigenvalues not converged
     c_bands:  1 eigenvalues not converged
     c_bands:  1 eigenvalues not converged
     c_bands:  1 eigenvalues not converged
     c_bands:  2 eigenvalues not converged
     c_bands:  2 eigenvalues not converged
     c_bands:  3 eigenvalues not converged
     c_bands:  2 eigenvalues not converged
     c_bands:  1 eigenvalues not converged
     c_bands:  3 eigenvalues not converged
     c_bands:  1 eigenvalues not converged
     c_bands:  3 eigenvalues not converged
     c_bands:  1 eigenvalues not converged
     c_bands:  2 eigenvalues not converged
     c_bands:  1 eigenvalues not converged
     c_bands:  2 eigenvalues not converged
     c_bands:  2 eigenvalues not converged
     c_bands:  1 eigenvalues not converged
     c_bands:  1 eigenvalues not converged
     c_bands:  1 eigenvalues not converged
     c_bands:  1 eigenvalues not converged
     c_bands:  1 eigenvalues not converged
     c_bands:  2 eigenvalues not converged
     c_bands:  2 eigenvalues not converged
     c_bands:  1 eigenvalues not converged
     c_bands:  1 eigenvalues not converged
     c_bands:  1 eigenvalues not converged
     c_bands:  2 eigenvalues not converged
     c_bands:  2 eigenvalues not converged
     ethr =  1.00E-06,  avg # of iterations = 18.5

     total cpu time spent up to now is    28163.8 secs

     total energy              =    -697.18115450 Ry
     Harris-Foulkes estimate   =    -711.81941221 Ry
     estimated scf accuracy    <       5.35515603 Ry

     iteration #  2     ecut=    40.00 Ry     beta=0.60
     Davidson diagonalization with overlap
     ethr =  7.24E-03,  avg # of iterations =  5.0

     total cpu time spent up to now is    28944.1 secs

     total energy              =    -700.77386649 Ry
     Harris-Foulkes estimate   =    -711.07135300 Ry
     estimated scf accuracy    <      39.09262067 Ry

     iteration #  3     ecut=    40.00 Ry     beta=0.60
     Davidson diagonalization with overlap
     ethr =  7.24E-03,  avg # of iterations =  4.5

     total cpu time spent up to now is    29403.3 secs

     total energy              =    -702.55912457 Ry
     Harris-Foulkes estimate   =    -703.51418793 Ry
     estimated scf accuracy    <       4.38011415 Ry

     iteration #  4     ecut=    40.00 Ry     beta=0.60
     Davidson diagonalization with overlap
     ethr =  5.92E-03,  avg # of iterations =  2.0

     total cpu time spent up to now is    29721.1 secs

     total energy              =    -702.73142356 Ry
     Harris-Foulkes estimate   =    -702.74013056 Ry
     estimated scf accuracy    <       2.77841240 Ry

     iteration #  5     ecut=    40.00 Ry     beta=0.60
     Davidson diagonalization with overlap
     ethr =  3.75E-03,  avg # of iterations =  1.2

     total cpu time spent up to now is    30027.5 secs

     total energy              =    -702.36789302 Ry
     Harris-Foulkes estimate   =    -702.76653794 Ry
     estimated scf accuracy    <       2.73185183 Ry

     iteration #  6     ecut=    40.00 Ry     beta=0.60
     Davidson diagonalization with overlap
     ethr =  3.69E-03,  avg # of iterations =  1.3

     total cpu time spent up to now is    30333.3 secs

     total energy              =    -702.39944051 Ry
     Harris-Foulkes estimate   =    -702.44023505 Ry
     estimated scf accuracy    <       1.15564413 Ry

     iteration #  7     ecut=    40.00 Ry     beta=0.60
     Davidson diagonalization with overlap
     ethr =  1.56E-03,  avg # of iterations =  3.7

     total cpu time spent up to now is    30695.4 secs

     total energy              =    -702.46522112 Ry
     Harris-Foulkes estimate   =    -702.46551802 Ry
     estimated scf accuracy    <       0.56241847 Ry

     iteration #  8     ecut=    40.00 Ry     beta=0.60
     Davidson diagonalization with overlap
     ethr =  7.60E-04,  avg # of iterations =  3.3

     total cpu time spent up to now is    31029.9 secs

     total energy              =    -702.45324195 Ry
     Harris-Foulkes estimate   =    -702.47974701 Ry
     estimated scf accuracy    <       0.49443427 Ry

     iteration #  9     ecut=    40.00 Ry     beta=0.60
     Davidson diagonalization with overlap
     ethr =  6.68E-04,  avg # of iterations =  1.5

     total cpu time spent up to now is    31337.4 secs

     total energy              =    -702.43698125 Ry
     Harris-Foulkes estimate   =    -702.46030927 Ry
     estimated scf accuracy    <       0.37176715 Ry

     iteration # 10     ecut=    40.00 Ry     beta=0.60
     Davidson diagonalization with overlap
     ethr =  5.02E-04,  avg # of iterations =  1.4

     total cpu time spent up to now is    31646.2 secs

     total energy              =    -702.38819596 Ry
     Harris-Foulkes estimate   =    -702.44259445 Ry
     estimated scf accuracy    <       0.24509016 Ry

     iteration # 11     ecut=    40.00 Ry     beta=0.60
     Davidson diagonalization with overlap
     ethr =  3.31E-04,  avg # of iterations =  5.6

     total cpu time spent up to now is    32140.9 secs

     total energy              =    -702.42668220 Ry
     Harris-Foulkes estimate   =    -702.42711047 Ry
     estimated scf accuracy    <       0.00134726 Ry

     iteration # 12     ecut=    40.00 Ry     beta=0.60
     Davidson diagonalization with overlap
     c_bands:  1 eigenvalues not converged
     c_bands:  1 eigenvalues not converged
     c_bands:  1 eigenvalues not converged
     c_bands:  2 eigenvalues not converged
     c_bands:  2 eigenvalues not converged
     c_bands:  1 eigenvalues not converged
     c_bands:  1 eigenvalues not converged
     c_bands:  1 eigenvalues not converged
     c_bands:  1 eigenvalues not converged
     c_bands:  1 eigenvalues not converged
     c_bands:  1 eigenvalues not converged
     c_bands:  1 eigenvalues not converged
     c_bands:  1 eigenvalues not converged
     c_bands:  1 eigenvalues not converged
     c_bands:  2 eigenvalues not converged
     c_bands:  1 eigenvalues not converged
     c_bands:  1 eigenvalues not converged
     c_bands:  2 eigenvalues not converged
     c_bands:  1 eigenvalues not converged
     c_bands:  1 eigenvalues not converged
     c_bands:  1 eigenvalues not converged
     c_bands:  2 eigenvalues not converged
     c_bands:  1 eigenvalues not converged
     c_bands:  1 eigenvalues not converged
     c_bands:  1 eigenvalues not converged
     c_bands:  1 eigenvalues not converged
     c_bands:  1 eigenvalues not converged
     c_bands:  1 eigenvalues not converged
     c_bands:  1 eigenvalues not converged
     c_bands:  2 eigenvalues not converged
     c_bands:  1 eigenvalues not converged
     c_bands:  1 eigenvalues not converged
     c_bands:  1 eigenvalues not converged
     c_bands:  1 eigenvalues not converged
     c_bands:  1 eigenvalues not converged
     c_bands:  1 eigenvalues not converged
     c_bands:  2 eigenvalues not converged
     c_bands:  1 eigenvalues not converged
     c_bands:  1 eigenvalues not converged
     c_bands:  2 eigenvalues not converged
     c_bands:  1 eigenvalues not converged
     c_bands:  1 eigenvalues not converged
     c_bands:  1 eigenvalues not converged
     c_bands:  2 eigenvalues not converged
     c_bands:  2 eigenvalues not converged
     c_bands:  1 eigenvalues not converged
     c_bands:  1 eigenvalues not converged
     c_bands:  2 eigenvalues not converged
     c_bands:  1 eigenvalues not converged
     c_bands:  1 eigenvalues not converged
     c_bands:  3 eigenvalues not converged
     c_bands:  2 eigenvalues not converged
     c_bands:  1 eigenvalues not converged
     c_bands:  1 eigenvalues not converged
     c_bands:  1 eigenvalues not converged
     c_bands:  1 eigenvalues not converged
     c_bands:  1 eigenvalues not converged
     c_bands:  1 eigenvalues not converged
     c_bands:  1 eigenvalues not converged
     c_bands:  1 eigenvalues not converged
     c_bands:  2 eigenvalues not converged
     c_bands:  1 eigenvalues not converged
     c_bands:  1 eigenvalues not converged
     c_bands:  1 eigenvalues not converged
     c_bands:  1 eigenvalues not converged
     c_bands:  1 eigenvalues not converged
     c_bands:  1 eigenvalues not converged
     c_bands:  1 eigenvalues not converged
     c_bands:  1 eigenvalues not converged
     c_bands:  2 eigenvalues not converged
     c_bands:  2 eigenvalues not converged
     c_bands:  2 eigenvalues not converged
     c_bands:  1 eigenvalues not converged
     c_bands:  1 eigenvalues not converged
     c_bands:  1 eigenvalues not converged
     c_bands:  1 eigenvalues not converged
     c_bands:  1 eigenvalues not converged
     c_bands:  1 eigenvalues not converged
     c_bands:  2 eigenvalues not converged
     c_bands:  2 eigenvalues not converged
     c_bands:  2 eigenvalues not converged
     c_bands:  1 eigenvalues not converged
     c_bands:  1 eigenvalues not converged
     c_bands:  1 eigenvalues not converged
     c_bands:  2 eigenvalues not converged
     c_bands:  2 eigenvalues not converged
     c_bands:  1 eigenvalues not converged
     c_bands:  1 eigenvalues not converged
     c_bands:  1 eigenvalues not converged
     c_bands:  1 eigenvalues not converged
     c_bands:  1 eigenvalues not converged
     c_bands:  2 eigenvalues not converged
     c_bands:  2 eigenvalues not converged
     c_bands:  1 eigenvalues not converged
     c_bands:  1 eigenvalues not converged
     c_bands:  1 eigenvalues not converged
     c_bands:  1 eigenvalues not converged
     c_bands:  2 eigenvalues not converged
     c_bands:  2 eigenvalues not converged
     c_bands:  1 eigenvalues not converged
     c_bands:  1 eigenvalues not converged
     c_bands:  1 eigenvalues not converged
     c_bands:  1 eigenvalues not converged
     c_bands:  1 eigenvalues not converged
     c_bands:  1 eigenvalues not converged
     c_bands:  1 eigenvalues not converged
     c_bands:  1 eigenvalues not converged
     c_bands:  1 eigenvalues not converged
     c_bands:  1 eigenvalues not converged
     c_bands:  1 eigenvalues not converged
     c_bands:  1 eigenvalues not converged
     c_bands:  1 eigenvalues not converged
     c_bands:  1 eigenvalues not converged
     c_bands:  1 eigenvalues not converged
     c_bands:  1 eigenvalues not converged
     c_bands:  1 eigenvalues not converged
     c_bands:  1 eigenvalues not converged
     c_bands:  1 eigenvalues not converged
     c_bands:  1 eigenvalues not converged
     c_bands:  1 eigenvalues not converged
     c_bands:  1 eigenvalues not converged
     c_bands:  2 eigenvalues not converged
     c_bands:  1 eigenvalues not converged
     c_bands:  1 eigenvalues not converged
     c_bands:  1 eigenvalues not converged
     c_bands:  1 eigenvalues not converged
     c_bands:  1 eigenvalues not converged
     c_bands:  1 eigenvalues not converged
     c_bands:  1 eigenvalues not converged
     c_bands:  1 eigenvalues not converged
     c_bands:  1 eigenvalues not converged
     c_bands:  1 eigenvalues not converged
     c_bands:  2 eigenvalues not converged
     c_bands:  1 eigenvalues not converged
     c_bands:  2 eigenvalues not converged
     c_bands:  1 eigenvalues not converged
     c_bands:  1 eigenvalues not converged
     c_bands:  1 eigenvalues not converged
     c_bands:  1 eigenvalues not converged
     c_bands:  1 eigenvalues not converged
     c_bands:  1 eigenvalues not converged
     c_bands:  1 eigenvalues not converged
     c_bands:  1 eigenvalues not converged
     c_bands:  2 eigenvalues not converged
     c_bands:  2 eigenvalues not converged
     ethr =  1.82E-06,  avg # of iterations = 10.6

     total cpu time spent up to now is    32964.4 secs

     total energy              =    -702.42862968 Ry
     Harris-Foulkes estimate   =    -702.42881381 Ry
     estimated scf accuracy    <       0.00342824 Ry

     iteration # 13     ecut=    40.00 Ry     beta=0.60
     Davidson diagonalization with overlap
     c_bands:  1 eigenvalues not converged
     c_bands:  1 eigenvalues not converged
     c_bands:  1 eigenvalues not converged
     c_bands:  1 eigenvalues not converged
     c_bands:  1 eigenvalues not converged
     ethr =  1.82E-06,  avg # of iterations =  2.0

     total cpu time spent up to now is    33278.3 secs

     total energy              =    -702.42819534 Ry
     Harris-Foulkes estimate   =    -702.42865799 Ry
     estimated scf accuracy    <       0.00275910 Ry

     iteration # 14     ecut=    40.00 Ry     beta=0.60
     Davidson diagonalization with overlap
     c_bands:  1 eigenvalues not converged
     c_bands:  1 eigenvalues not converged
     ethr =  1.82E-06,  avg # of iterations =  4.3

     total cpu time spent up to now is    33688.7 secs

     total energy              =    -702.42834739 Ry
     Harris-Foulkes estimate   =    -702.42839110 Ry
     estimated scf accuracy    <       0.00035004 Ry

     iteration # 15     ecut=    40.00 Ry     beta=0.60
     Davidson diagonalization with overlap
     c_bands:  1 eigenvalues not converged
     ethr =  4.73E-07,  avg # of iterations =  4.2

     total cpu time spent up to now is    34114.9 secs

     total energy              =    -702.42904966 Ry
     Harris-Foulkes estimate   =    -702.42841303 Ry
     estimated scf accuracy    <       0.00035679 Ry

     iteration # 16     ecut=    40.00 Ry     beta=0.60
     Davidson diagonalization with overlap
     c_bands:  1 eigenvalues not converged
     c_bands:  1 eigenvalues not converged
     ethr =  4.73E-07,  avg # of iterations =  5.4

     total cpu time spent up to now is    34897.4 secs

     total energy              =    -702.42796123 Ry
     Harris-Foulkes estimate   =    -702.43028364 Ry
     estimated scf accuracy    <       0.01487828 Ry

     iteration # 17     ecut=    40.00 Ry     beta=0.60
     Davidson diagonalization with overlap
     ethr =  4.73E-07,  avg # of iterations =  5.4

     total cpu time spent up to now is    35534.1 secs

     total energy              =    -702.42795153 Ry
     Harris-Foulkes estimate   =    -702.42868193 Ry
     estimated scf accuracy    <       0.00239249 Ry

     iteration # 18     ecut=    40.00 Ry     beta=0.60
     Davidson diagonalization with overlap
     ethr =  4.73E-07,  avg # of iterations =  5.5

     total cpu time spent up to now is    36149.1 secs

     total energy              =    -702.42826805 Ry
     Harris-Foulkes estimate   =    -702.42837934 Ry
     estimated scf accuracy    <       0.00060978 Ry

     iteration # 19     ecut=    40.00 Ry     beta=0.60
     Davidson diagonalization with overlap
     ethr =  4.73E-07,  avg # of iterations =  3.8

     total cpu time spent up to now is    36535.9 secs

     total energy              =    -702.42831096 Ry
     Harris-Foulkes estimate   =    -702.42832508 Ry
     estimated scf accuracy    <       0.00007490 Ry

     iteration # 20     ecut=    40.00 Ry     beta=0.60
     Davidson diagonalization with overlap
     ethr =  1.01E-07,  avg # of iterations =  4.2

     total cpu time spent up to now is    36979.5 secs

     total energy              =    -702.42831535 Ry
     Harris-Foulkes estimate   =    -702.42833203 Ry
     estimated scf accuracy    <       0.00010602 Ry

     iteration # 21     ecut=    40.00 Ry     beta=0.60
     Davidson diagonalization with overlap
     ethr =  1.01E-07,  avg # of iterations =  3.2

     total cpu time spent up to now is    37310.9 secs

     total energy              =    -702.42831986 Ry
     Harris-Foulkes estimate   =    -702.42832286 Ry
     estimated scf accuracy    <       0.00001989 Ry

     iteration # 22     ecut=    40.00 Ry     beta=0.60
     Davidson diagonalization with overlap
     ethr =  2.69E-08,  avg # of iterations =  4.3

     total cpu time spent up to now is    37752.5 secs

     total energy              =    -702.42832346 Ry
     Harris-Foulkes estimate   =    -702.42832437 Ry
     estimated scf accuracy    <       0.00000592 Ry

     iteration # 23     ecut=    40.00 Ry     beta=0.60
     Davidson diagonalization with overlap
     ethr =  7.99E-09,  avg # of iterations =  2.4

     total cpu time spent up to now is    38074.2 secs

     total energy              =    -702.42832374 Ry
     Harris-Foulkes estimate   =    -702.42832382 Ry
     estimated scf accuracy    <       0.00000054 Ry

     iteration # 24     ecut=    40.00 Ry     beta=0.60
     Davidson diagonalization with overlap
     ethr =  7.26E-10,  avg # of iterations =  5.0

     total cpu time spent up to now is    38571.0 secs

     total energy              =    -702.42832398 Ry
     Harris-Foulkes estimate   =    -702.42832402 Ry
     estimated scf accuracy    <       0.00000061 Ry

     iteration # 25     ecut=    40.00 Ry     beta=0.60
     Davidson diagonalization with overlap
     ethr =  7.26E-10,  avg # of iterations =  1.0

     total cpu time spent up to now is    38874.3 secs

     total energy              =    -702.42832394 Ry
     Harris-Foulkes estimate   =    -702.42832399 Ry
     estimated scf accuracy    <       0.00000035 Ry

     iteration # 26     ecut=    40.00 Ry     beta=0.60
     Davidson diagonalization with overlap
     ethr =  4.74E-10,  avg # of iterations =  3.4

     total cpu time spent up to now is    39249.2 secs

     total energy              =    -702.42832397 Ry
     Harris-Foulkes estimate   =    -702.42832398 Ry
     estimated scf accuracy    <       0.00000002 Ry

     iteration # 27     ecut=    40.00 Ry     beta=0.60
     Davidson diagonalization with overlap
     ethr =  2.50E-11,  avg # of iterations =  4.3

     total cpu time spent up to now is    39684.6 secs

     total energy              =    -702.42832398 Ry
     Harris-Foulkes estimate   =    -702.42832398 Ry
     estimated scf accuracy    <       0.00000002 Ry

     iteration # 28     ecut=    40.00 Ry     beta=0.60
     Davidson diagonalization with overlap
     ethr =  2.40E-11,  avg # of iterations =  1.0

     total cpu time spent up to now is    39988.0 secs

     total energy              =    -702.42832398 Ry
     Harris-Foulkes estimate   =    -702.42832398 Ry
     estimated scf accuracy    <          2.7E-09 Ry

     iteration # 29     ecut=    40.00 Ry     beta=0.60
     Davidson diagonalization with overlap
     ethr =  3.59E-12,  avg # of iterations =  4.5

     total cpu time spent up to now is    40446.4 secs

     total energy              =    -702.42832398 Ry
     Harris-Foulkes estimate   =    -702.42832398 Ry
     estimated scf accuracy    <          3.3E-10 Ry

     iteration # 30     ecut=    40.00 Ry     beta=0.60
     Davidson diagonalization with overlap
     ethr =  4.51E-13,  avg # of iterations =  2.2

     total cpu time spent up to now is    40770.5 secs

     total energy              =    -702.42832398 Ry
     Harris-Foulkes estimate   =    -702.42832398 Ry
     estimated scf accuracy    <          1.1E-10 Ry

     iteration # 31     ecut=    40.00 Ry     beta=0.60
     Davidson diagonalization with overlap
     ethr =  1.50E-13,  avg # of iterations =  4.2

     total cpu time spent up to now is    41205.4 secs

     total energy              =    -702.42832398 Ry
     Harris-Foulkes estimate   =    -702.42832398 Ry
     estimated scf accuracy    <          2.2E-10 Ry

     iteration # 32     ecut=    40.00 Ry     beta=0.60
     Davidson diagonalization with overlap
     ethr =  1.50E-13,  avg # of iterations =  1.6

[...]
     c_bands:  2 eigenvalues not converged
     c_bands:  1 eigenvalues not converged
     c_bands:  3 eigenvalues not converged
     c_bands:  1 eigenvalues not converged
     c_bands:  3 eigenvalues not converged
     c_bands:  1 eigenvalues not converged
     c_bands:  2 eigenvalues not converged
     c_bands:  2 eigenvalues not converged
     c_bands:  3 eigenvalues not converged
     c_bands:  3 eigenvalues not converged
     c_bands:  2 eigenvalues not converged
     c_bands:  1 eigenvalues not converged
     c_bands:  1 eigenvalues not converged
     c_bands:  1 eigenvalues not converged
     c_bands:  1 eigenvalues not converged
     c_bands:  1 eigenvalues not converged
     c_bands:  1 eigenvalues not converged
     c_bands:  1 eigenvalues not converged
     c_bands:  1 eigenvalues not converged
     c_bands:  1 eigenvalues not converged
     c_bands:  2 eigenvalues not converged
     c_bands:  1 eigenvalues not converged
     c_bands:  1 eigenvalues not converged
     c_bands:  1 eigenvalues not converged
     c_bands:  1 eigenvalues not converged
     c_bands:  1 eigenvalues not converged
     c_bands:  1 eigenvalues not converged
     c_bands:  1 eigenvalues not converged
     c_bands:  2 eigenvalues not converged
     c_bands:  2 eigenvalues not converged
     c_bands:  1 eigenvalues not converged
     c_bands:  1 eigenvalues not converged
     c_bands:  1 eigenvalues not converged
     c_bands:  2 eigenvalues not converged
     c_bands:  2 eigenvalues not converged
     c_bands:  3 eigenvalues not converged
     c_bands:  3 eigenvalues not converged
     c_bands:  3 eigenvalues not converged
     c_bands:  1 eigenvalues not converged
     c_bands:  1 eigenvalues not converged
     c_bands:  1 eigenvalues not converged
     c_bands:  1 eigenvalues not converged
     c_bands:  1 eigenvalues not converged
     c_bands:  1 eigenvalues not converged
     c_bands:  1 eigenvalues not converged
     c_bands:  1 eigenvalues not converged
     c_bands:  2 eigenvalues not converged
     c_bands:  1 eigenvalues not converged
     c_bands:  3 eigenvalues not converged
     c_bands:  3 eigenvalues not converged
     c_bands:  1 eigenvalues not converged
     c_bands:  2 eigenvalues not converged
     c_bands:  2 eigenvalues not converged
     c_bands:  1 eigenvalues not converged
     c_bands:  3 eigenvalues not converged
     c_bands:  3 eigenvalues not converged
     c_bands:  1 eigenvalues not converged
     c_bands:  1 eigenvalues not converged
     c_bands:  1 eigenvalues not converged
     c_bands:  1 eigenvalues not converged
     c_bands:  1 eigenvalues not converged
     c_bands:  1 eigenvalues not converged
     c_bands:  1 eigenvalues not converged
     c_bands:  1 eigenvalues not converged
     c_bands:  3 eigenvalues not converged
     c_bands:  2 eigenvalues not converged
     c_bands:  2 eigenvalues not converged
     c_bands:  1 eigenvalues not converged
     c_bands:  1 eigenvalues not converged
     c_bands:  1 eigenvalues not converged
     c_bands:  1 eigenvalues not converged
     c_bands:  1 eigenvalues not converged
     c_bands:  1 eigenvalues not converged
     c_bands:  1 eigenvalues not converged
     c_bands:  3 eigenvalues not converged
     c_bands:  2 eigenvalues not converged
     c_bands:  3 eigenvalues not converged
     c_bands:  2 eigenvalues not converged
     c_bands:  2 eigenvalues not converged
     c_bands:  2 eigenvalues not converged
     c_bands:  2 eigenvalues not converged
     c_bands:  2 eigenvalues not converged
     c_bands:  2 eigenvalues not converged
     c_bands:  3 eigenvalues not converged
     c_bands:  3 eigenvalues not converged
     c_bands:  2 eigenvalues not converged
     c_bands:  1 eigenvalues not converged
     c_bands:  1 eigenvalues not converged
     c_bands:  1 eigenvalues not converged
     c_bands:  1 eigenvalues not converged
     c_bands:  1 eigenvalues not converged
     c_bands:  1 eigenvalues not converged
     c_bands:  1 eigenvalues not converged
     c_bands:  1 eigenvalues not converged
     c_bands:  1 eigenvalues not converged
     c_bands:  1 eigenvalues not converged
     c_bands:  1 eigenvalues not converged
     c_bands:  1 eigenvalues not converged
     c_bands:  1 eigenvalues not converged
     c_bands:  2 eigenvalues not converged
     c_bands:  3 eigenvalues not converged
     c_bands:  3 eigenvalues not converged
     c_bands:  1 eigenvalues not converged
     c_bands:  1 eigenvalues not converged
     c_bands:  2 eigenvalues not converged
     c_bands:  1 eigenvalues not converged
     c_bands:  2 eigenvalues not converged
     c_bands:  1 eigenvalues not converged
     c_bands:  2 eigenvalues not converged
     c_bands:  2 eigenvalues not converged
     c_bands:  1 eigenvalues not converged
     c_bands:  1 eigenvalues not converged
     c_bands:  1 eigenvalues not converged
     c_bands:  1 eigenvalues not converged
     c_bands:  1 eigenvalues not converged
     c_bands:  1 eigenvalues not converged
     c_bands:  1 eigenvalues not converged
     c_bands:  1 eigenvalues not converged
     c_bands:  3 eigenvalues not converged
     c_bands:  1 eigenvalues not converged
     c_bands:  2 eigenvalues not converged
     c_bands:  1 eigenvalues not converged
     c_bands:  1 eigenvalues not converged
     c_bands:  2 eigenvalues not converged
     c_bands:  3 eigenvalues not converged
     c_bands:  2 eigenvalues not converged
     c_bands:  2 eigenvalues not converged
     c_bands:  3 eigenvalues not converged
     c_bands:  1 eigenvalues not converged
     c_bands:  1 eigenvalues not converged
     c_bands:  1 eigenvalues not converged
     c_bands:  3 eigenvalues not converged
     c_bands:  1 eigenvalues not converged
     c_bands:  3 eigenvalues not converged
     c_bands:  1 eigenvalues not converged
     c_bands:  3 eigenvalues not converged
     c_bands:  1 eigenvalues not converged
     c_bands:  2 eigenvalues not converged
     c_bands:  3 eigenvalues not converged
     c_bands:  1 eigenvalues not converged
     c_bands:  3 eigenvalues not converged
     c_bands:  1 eigenvalues not converged
     c_bands:  1 eigenvalues not converged
     c_bands:  1 eigenvalues not converged
     c_bands:  1 eigenvalues not converged
     c_bands:  1 eigenvalues not converged
     c_bands:  3 eigenvalues not converged
     c_bands:  1 eigenvalues not converged
     c_bands:  1 eigenvalues not converged
     c_bands:  1 eigenvalues not converged
     c_bands:  1 eigenvalues not converged
     c_bands:  1 eigenvalues not converged
     c_bands:  2 eigenvalues not converged
     c_bands:  3 eigenvalues not converged
     c_bands:  3 eigenvalues not converged
     c_bands:  1 eigenvalues not converged
     c_bands:  1 eigenvalues not converged
     c_bands:  1 eigenvalues not converged
     c_bands:  3 eigenvalues not converged
     c_bands:  1 eigenvalues not converged
     c_bands:  1 eigenvalues not converged
     ethr =  1.00E-06,  avg # of iterations = 18.4

     total cpu time spent up to now is   267103.6 secs

     total energy              =    -698.99240756 Ry
     Harris-Foulkes estimate   =    -704.10665788 Ry
     estimated scf accuracy    <       6.71691896 Ry

     iteration #  2     ecut=    40.00 Ry     beta=0.60
     Davidson diagonalization with overlap
     ethr =  9.08E-03,  avg # of iterations =  4.0

     total cpu time spent up to now is   267474.9 secs

     total energy              =    -697.78799352 Ry
     Harris-Foulkes estimate   =    -709.49345838 Ry
     estimated scf accuracy    <      39.91025065 Ry

     iteration #  3     ecut=    40.00 Ry     beta=0.60
     Davidson diagonalization with overlap
     ethr =  9.08E-03,  avg # of iterations =  5.0

     total cpu time spent up to now is   267824.5 secs

     total energy              =    -702.33253855 Ry
     Harris-Foulkes estimate   =    -702.49312265 Ry
     estimated scf accuracy    <       0.59229083 Ry

     iteration #  4     ecut=    40.00 Ry     beta=0.60
     Davidson diagonalization with overlap
     ethr =  8.00E-04,  avg # of iterations =  5.5

     total cpu time spent up to now is   268151.1 secs

     total energy              =    -702.42590123 Ry
     Harris-Foulkes estimate   =    -702.43926506 Ry
     estimated scf accuracy    <       0.03379067 Ry

     iteration #  5     ecut=    40.00 Ry     beta=0.60
     Davidson diagonalization with overlap
     ethr =  4.57E-05,  avg # of iterations =  7.2

     total cpu time spent up to now is   268643.0 secs

     total energy              =    -702.43547838 Ry
     Harris-Foulkes estimate   =    -702.43949435 Ry
     estimated scf accuracy    <       0.00794247 Ry

     iteration #  6     ecut=    40.00 Ry     beta=0.60
     Davidson diagonalization with overlap
     ethr =  1.07E-05,  avg # of iterations =  5.8

     total cpu time spent up to now is   269061.6 secs

     total energy              =    -702.43091136 Ry
     Harris-Foulkes estimate   =    -702.44510199 Ry
     estimated scf accuracy    <       0.10063540 Ry

     iteration #  7     ecut=    40.00 Ry     beta=0.60
     Davidson diagonalization with overlap
     ethr =  1.07E-05,  avg # of iterations =  5.5

     total cpu time spent up to now is   269453.2 secs

     total energy              =    -702.43821649 Ry
     Harris-Foulkes estimate   =    -702.43853643 Ry
     estimated scf accuracy    <       0.00181119 Ry

     iteration #  8     ecut=    40.00 Ry     beta=0.60
     Davidson diagonalization with overlap
     ethr =  2.45E-06,  avg # of iterations =  1.1

     total cpu time spent up to now is   269653.0 secs

     total energy              =    -702.43824813 Ry
     Harris-Foulkes estimate   =    -702.43832456 Ry
     estimated scf accuracy    <       0.00027113 Ry

     iteration #  9     ecut=    40.00 Ry     beta=0.60
     Davidson diagonalization with overlap
     ethr =  3.66E-07,  avg # of iterations =  4.6

     total cpu time spent up to now is   269977.5 secs

     total energy              =    -702.43832594 Ry
     Harris-Foulkes estimate   =    -702.43836138 Ry
     estimated scf accuracy    <       0.00034775 Ry

     iteration # 10     ecut=    40.00 Ry     beta=0.60
     Davidson diagonalization with overlap
     ethr =  3.66E-07,  avg # of iterations =  1.0

     total cpu time spent up to now is   270175.6 secs

     total energy              =    -702.43831979 Ry
     Harris-Foulkes estimate   =    -702.43834305 Ry
     estimated scf accuracy    <       0.00013314 Ry

     iteration # 11     ecut=    40.00 Ry     beta=0.60
     Davidson diagonalization with overlap
     ethr =  1.80E-07,  avg # of iterations =  3.9

     total cpu time spent up to now is   270447.3 secs

     total energy              =    -702.43832741 Ry
     Harris-Foulkes estimate   =    -702.43834270 Ry
     estimated scf accuracy    <       0.00011003 Ry

     iteration # 12     ecut=    40.00 Ry     beta=0.60
     Davidson diagonalization with overlap
     ethr =  1.49E-07,  avg # of iterations =  1.0

     total cpu time spent up to now is   270645.5 secs

     total energy              =    -702.43833092 Ry
     Harris-Foulkes estimate   =    -702.43833397 Ry
     estimated scf accuracy    <       0.00002525 Ry

     iteration # 13     ecut=    40.00 Ry     beta=0.60
     Davidson diagonalization with overlap
     ethr =  3.41E-08,  avg # of iterations =  4.1

     total cpu time spent up to now is   270925.8 secs

     total energy              =    -702.43833427 Ry
     Harris-Foulkes estimate   =    -702.43833495 Ry
     estimated scf accuracy    <       0.00000462 Ry

     iteration # 14     ecut=    40.00 Ry     beta=0.60
     Davidson diagonalization with overlap
     ethr =  6.25E-09,  avg # of iterations =  2.6

     total cpu time spent up to now is   271161.5 secs

     total energy              =    -702.43833449 Ry
     Harris-Foulkes estimate   =    -702.43833473 Ry
     estimated scf accuracy    <       0.00000082 Ry

     iteration # 15     ecut=    40.00 Ry     beta=0.60
     Davidson diagonalization with overlap
     ethr =  1.11E-09,  avg # of iterations =  4.5

     total cpu time spent up to now is   271468.8 secs

     total energy              =    -702.43833466 Ry
     Harris-Foulkes estimate   =    -702.43833480 Ry
     estimated scf accuracy    <       0.00000097 Ry

     iteration # 16     ecut=    40.00 Ry     beta=0.60
     Davidson diagonalization with overlap
     ethr =  1.11E-09,  avg # of iterations =  1.0

     total cpu time spent up to now is   271666.7 secs

     total energy              =    -702.43833469 Ry
     Harris-Foulkes estimate   =    -702.43833471 Ry
     estimated scf accuracy    <       0.00000012 Ry

     iteration # 17     ecut=    40.00 Ry     beta=0.60
     Davidson diagonalization with overlap
     ethr =  1.57E-10,  avg # of iterations =  4.7

     total cpu time spent up to now is   271982.4 secs

     total energy              =    -702.43833473 Ry
     Harris-Foulkes estimate   =    -702.43833474 Ry
     estimated scf accuracy    <       0.00000012 Ry

     iteration # 18     ecut=    40.00 Ry     beta=0.60
     Davidson diagonalization with overlap
     ethr =  1.57E-10,  avg # of iterations =  1.0

     total cpu time spent up to now is   272180.4 secs

     total energy              =    -702.43833472 Ry
     Harris-Foulkes estimate   =    -702.43833473 Ry
     estimated scf accuracy    <       0.00000005 Ry

     iteration # 19     ecut=    40.00 Ry     beta=0.60
     Davidson diagonalization with overlap
     ethr =  6.18E-11,  avg # of iterations =  3.2

     total cpu time spent up to now is   272422.5 secs

     total energy              =    -702.43833473 Ry
     Harris-Foulkes estimate   =    -702.43833473 Ry
     estimated scf accuracy    <          9.0E-10 Ry

     iteration # 20     ecut=    40.00 Ry     beta=0.60
     Davidson diagonalization with overlap
     ethr =  1.21E-12,  avg # of iterations =  5.3

     total cpu time spent up to now is   272761.3 secs

     total energy              =    -702.43833473 Ry
     Harris-Foulkes estimate   =    -702.43833473 Ry
     estimated scf accuracy    <          2.7E-10 Ry

     iteration # 21     ecut=    40.00 Ry     beta=0.60
     Davidson diagonalization with overlap
     ethr =  3.70E-13,  avg # of iterations =  4.3

     total cpu time spent up to now is   273040.3 secs

     total energy              =    -702.43833473 Ry
     Harris-Foulkes estimate   =    -702.43833473 Ry
     estimated scf accuracy    <          3.9E-10 Ry

     iteration # 22     ecut=    40.00 Ry     beta=0.60
     Davidson diagonalization with overlap
     ethr =  3.70E-13,  avg # of iterations =  1.0

     total cpu time spent up to now is   273246.8 secs

     total energy              =    -702.43833473 Ry
     Harris-Foulkes estimate   =    -702.43833473 Ry
     estimated scf accuracy    <          1.0E-10 Ry

     iteration # 23     ecut=    40.00 Ry     beta=0.60
     Davidson diagonalization with overlap
     ethr =  1.38E-13,  avg # of iterations =  4.1

     total cpu time spent up to now is   273529.8 secs

     total energy              =    -702.43833473 Ry
     Harris-Foulkes estimate   =    -702.43833473 Ry
     estimated scf accuracy    <          3.1E-11 Ry

     iteration # 24     ecut=    40.00 Ry     beta=0.60
     Davidson diagonalization with overlap
     ethr =  1.00E-13,  avg # of iterations =  1.0

     total cpu time spent up to now is   273726.9 secs

     total energy              =    -702.43833473 Ry
     Harris-Foulkes estimate   =    -702.43833473 Ry
     estimated scf accuracy    <          7.8E-12 Ry

     iteration # 25     ecut=    40.00 Ry     beta=0.60
     Davidson diagonalization with overlap
     ethr =  1.00E-13,  avg # of iterations =  1.0

     total cpu time spent up to now is   273924.4 secs

     End of self-consistent calculation

     Number of k-points >= 100: set verbosity='high' to print the bands.

     the Fermi energy is    15.0073 ev

!    total energy              =    -702.43833473 Ry
     Harris-Foulkes estimate   =    -702.43833473 Ry
     estimated scf accuracy    <          7.2E-13 Ry

     The total energy is the sum of the following terms:

     one-electron contribution =    -198.11296995 Ry
     hartree contribution      =     127.73172911 Ry
     xc contribution           =     -94.99241182 Ry
     ewald contribution        =    -537.06487510 Ry
     smearing contrib. (-TS)   =       0.00019304 Ry

     convergence has been achieved in  25 iterations

     Forces acting on atoms (Ry/au):

     atom    1 type  2   force =    -0.00007836    0.00002003    0.00005065
     atom    2 type  2   force =     0.00002332    0.00008498    0.00004534
     atom    3 type  2   force =    -0.00002294   -0.00008482   -0.00004513
     atom    4 type  2   force =     0.00007817   -0.00002003   -0.00005088
     atom    5 type  1   force =     0.00004627    0.00002622   -0.00000357
     atom    6 type  1   force =    -0.00004645   -0.00002637    0.00000360

     Total force =     0.000209     Total SCF correction =     0.000001


     entering subroutine stress ...

          total   stress  (Ry/bohr**3)                   (kbar)     P=   -4.85
  -0.00002586   0.00001153  -0.00000180         -3.80      1.70     -0.26
   0.00001153  -0.00003914   0.00000307          1.70     -5.76      0.45
  -0.00000180   0.00000307  -0.00003388         -0.26      0.45     -4.98


     init_run     :    269.27s CPU    289.20s WALL (       2 calls)
     electrons    : 250964.16s CPU 269104.00s WALL (      37 calls)
     update_pot   :    105.49s CPU    118.46s WALL (      35 calls)
     forces       :   1769.88s CPU   1848.75s WALL (      37 calls)
     stress       :   2496.64s CPU   2620.10s WALL (      37 calls)

     Called by init_run:
     wfcinit      :    263.37s CPU    282.26s WALL (       2 calls)
     potinit      :      1.82s CPU      2.00s WALL (       2 calls)

     Called by electrons:
     c_bands      : 218003.44s CPU 233910.79s WALL (     671 calls)
     sum_band     :  32586.59s CPU  34709.19s WALL (     671 calls)
     v_of_rho     :     89.19s CPU    103.96s WALL (     697 calls)
     newd         :    278.09s CPU    349.78s WALL (     697 calls)
     mix_rho      :     14.02s CPU     21.89s WALL (     671 calls)

     Called by c_bands:
     init_us_2    :   1925.51s CPU   2072.49s WALL ( 1230824 calls)
     cegterg      : 213125.39s CPU 228600.18s WALL (  582428 calls)

     Called by sum_band:
     sum_band:bec :     99.81s CPU    105.89s WALL (  582428 calls)
     addusdens    :    339.92s CPU    450.71s WALL (     671 calls)

     Called by *egterg:
     h_psi        : 124926.78s CPU 134983.46s WALL ( 2744505 calls)
     s_psi        :  15524.78s CPU  16638.94s WALL ( 2744505 calls)
     g_psi        :    285.83s CPU    302.68s WALL ( 2160341 calls)
     cdiaghg      :  18780.73s CPU  19753.07s WALL ( 2702841 calls)

     Called by h_psi:
     h_psi:pot    : 124099.77s CPU 134066.69s WALL ( 2744505 calls)
     h_psi:calbec :  19644.69s CPU  21163.09s WALL ( 2744505 calls)
     vloc_psi     :  88642.82s CPU  95544.69s WALL ( 2744505 calls)
     add_vuspsi   :  15785.55s CPU  17340.78s WALL ( 2744505 calls)

     General routines
     calbec       :  28502.75s CPU  30498.19s WALL ( 3487513 calls)
     fft          :    112.45s CPU    144.98s WALL (   12008 calls)
     ffts         :      1.25s CPU      1.40s WALL (    1368 calls)
     fftw         :  77214.99s CPU  82700.60s WALL (******** calls)
     interpolate  :     11.45s CPU     13.08s WALL (    1368 calls)

     Parallel routines
     fft_scatter  :  24019.23s CPU  25181.21s WALL (******** calls)

     PWSCF        :     2d   23h 0m CPU        3d    4h 6m WALL


   This run was terminated on:  14:31:32   7May2018            

=------------------------------------------------------------------------------=
   JOB DONE.
=------------------------------------------------------------------------------=
