
     Program PWSCF v.6.3MaX starts on 25Jan2020 at 12:33:37 

     This program is part of the open-source Quantum ESPRESSO suite
     for quantum simulation of materials; please cite
         "P. Giannozzi et al., J. Phys.:Condens. Matter 21 395502 (2009);
         "P. Giannozzi et al., J. Phys.:Condens. Matter 29 465901 (2017);
          URL http://www.quantum-espresso.org", 
     in publications or presentations arising from this work. More details at
     http://www.quantum-espresso.org/quote

     Parallel version (MPI), running on     4 processors

     MPI processes distributed on     1 nodes
     R & G space division:  proc/nbgrp/npool/nimage =       4
     Waiting for input...
     Reading input from standard input

     Current dimensions of program PWSCF are:
     Max number of different atomic species (ntypx) = 10
     Max number of k-points (npk) =  40000
     Max angular momentum in pseudopotentials (lmaxx) =  3
     Message from routine iosys:
     minimal I/O required, wf_collect reset to FALSE

     Subspace diagonalization in iterative solution of the eigenvalue problem:
     a serial algorithm will be used

 
     Parallelization info
     --------------------
     sticks:   dense  smooth     PW     G-vecs:    dense   smooth      PW
     Min         780     312     95                27301     6894    1169
     Max         781     313     96                27302     6895    1170
     Sum        3121    1251    383               109205    27577    4677
 


     bravais-lattice index     =            0
     lattice parameter (alat)  =       1.8897  a.u.
     unit-cell volume          =     808.3427 (a.u.)^3
     number of atoms/cell      =            6
     number of atomic types    =            2
     number of electrons       =        77.00
     number of Kohn-Sham states=           47
     kinetic-energy cutoff     =      40.0000  Ry
     charge density cutoff     =     400.0000  Ry
     convergence threshold     =      1.0E-10
     mixing beta               =       0.6000
     number of iterations used =            8  plain     mixing
     Exchange-correlation      = SLA PW PBE PBE ( 1  4  3  4 0 0)
     nstep                     =           50


     celldm(1)=   1.889726  celldm(2)=   0.000000  celldm(3)=   0.000000
     celldm(4)=   0.000000  celldm(5)=   0.000000  celldm(6)=   0.000000

     crystal axes: (cart. coord. in units of alat)
               a(1) = (   3.045004   0.000000   4.972461 )  
               a(2) = (  -1.522502   2.637051   4.972461 )  
               a(3) = (  -1.522502  -2.637051   4.972461 )  

     reciprocal axes: (cart. coord. in units 2 pi/alat)
               b(1) = (  0.218938  0.000000  0.067036 )  
               b(2) = ( -0.109469  0.189606  0.067036 )  
               b(3) = ( -0.109469 -0.189606  0.067036 )  


     PseudoPot. # 1 for Nb read from file:
     ./Nb.pbe-nsp-van.UPF
     MD5 check sum: 0a22fc7fb0ba19a08ca5db297a5d2854
     Pseudo is Ultrasoft + core correction, Zval = 13.0
     Generated by new atomic code, or converted to UPF format
     Using radial grid of  887 points,  6 beta functions with: 
                l(1) =   0
                l(2) =   0
                l(3) =   1
                l(4) =   1
                l(5) =   2
                l(6) =   2
     Q(r) pseudized with  6 coefficients,  rinner =    1.000   1.000   1.000
                                                       1.000   1.000

     PseudoPot. # 2 for Ti read from file:
     ./Ti.pbe-sp-van_ak.UPF
     MD5 check sum: f98fea3e8887528921fefa5636a534ca
     Pseudo is Ultrasoft, Zval = 12.0
     Generated by new atomic code, or converted to UPF format
     Using radial grid of  851 points,  6 beta functions with: 
                l(1) =   0
                l(2) =   0
                l(3) =   1
                l(4) =   1
                l(5) =   2
                l(6) =   2
     Q(r) pseudized with  8 coefficients,  rinner =    1.000   1.000   1.000
                                                       1.000   1.000

     atomic species   valence    mass     pseudopotential
        Nb            13.00    92.90638     Nb( 1.00)
        Ti            12.00    47.86700     Ti( 1.00)

      6 Sym. Ops. (no inversion) found ( 3 have fractional translation)



   Cartesian axes

     site n.     atom                  positions (alat units)
         1           Ti  tau(   1) = (   0.0000000   0.0000000   9.9449228  )
         2           Nb  tau(   2) = (   0.0000015  -1.7580350   7.4586921  )
         3           Nb  tau(   3) = (   0.0000000   0.0000000  14.9173841  )
         4           Nb  tau(   4) = (   1.5225036   0.8790162   7.4586921  )
         5           Nb  tau(   5) = (   0.0000000   0.0000000   4.9724614  )
         6           Nb  tau(   6) = (  -1.5225006   0.8790162   7.4586921  )

     number of k points=   189  Marzari-Vanderbilt smearing, width (Ry)=  0.0200

     Number of k-points >= 100: set verbosity='high' to print them.

     Dense  grid:   109205 G-vectors     FFT dimensions: (  72,  72,  72)

     Smooth grid:    27577 G-vectors     FFT dimensions: (  45,  45,  45)

     Estimated max dynamical RAM per process >     223.78 MB

     Estimated total dynamical RAM >     895.11 MB

     Check: negative/imaginary core charge=   -0.000001    0.000000

     Initial potential from superposition of free atoms

     starting charge   75.98629, renormalised to   77.00000
     Starting wfcs are   75 randomized atomic wfcs

     total cpu time spent up to now is       14.4 secs

     Self-consistent Calculation

     iteration #  1     ecut=    40.00 Ry     beta= 0.60
     Davidson diagonalization with overlap
     ethr =  1.00E-02,  avg # of iterations =  2.0

     total cpu time spent up to now is       39.8 secs

     total energy              =    -687.08459973 Ry
     Harris-Foulkes estimate   =    -708.30576495 Ry
     estimated scf accuracy    <      26.61117520 Ry

     iteration #  2     ecut=    40.00 Ry     beta= 0.60
     Davidson diagonalization with overlap
     ethr =  1.00E-02,  avg # of iterations =  5.5

     total cpu time spent up to now is       89.0 secs

     total energy              =    -693.25319270 Ry
     Harris-Foulkes estimate   =    -733.84844707 Ry
     estimated scf accuracy    <     126.33365811 Ry

     iteration #  3     ecut=    40.00 Ry     beta= 0.60
     Davidson diagonalization with overlap
     ethr =  1.00E-02,  avg # of iterations =  5.0

     total cpu time spent up to now is      129.1 secs

     total energy              =    -705.55670385 Ry
     Harris-Foulkes estimate   =    -713.47634466 Ry
     estimated scf accuracy    <      44.45580254 Ry

     iteration #  4     ecut=    40.00 Ry     beta= 0.60
     Davidson diagonalization with overlap
     ethr =  1.00E-02,  avg # of iterations =  2.2

     total cpu time spent up to now is      152.8 secs

     total energy              =    -707.96176466 Ry
     Harris-Foulkes estimate   =    -708.03093945 Ry
     estimated scf accuracy    <       5.89408805 Ry

     iteration #  5     ecut=    40.00 Ry     beta= 0.60
     Davidson diagonalization with overlap
     ethr =  7.65E-03,  avg # of iterations =  1.0

     total cpu time spent up to now is      174.6 secs

     total energy              =    -707.03146903 Ry
     Harris-Foulkes estimate   =    -707.99337438 Ry
     estimated scf accuracy    <       5.74480308 Ry

     iteration #  6     ecut=    40.00 Ry     beta= 0.60
     Davidson diagonalization with overlap
     ethr =  7.46E-03,  avg # of iterations =  1.0

     total cpu time spent up to now is      195.1 secs

     total energy              =    -706.19728820 Ry
     Harris-Foulkes estimate   =    -707.09802877 Ry
     estimated scf accuracy    <       3.69461416 Ry

     iteration #  7     ecut=    40.00 Ry     beta= 0.60
     Davidson diagonalization with overlap
     ethr =  4.80E-03,  avg # of iterations =  2.0

     total cpu time spent up to now is      216.9 secs

     total energy              =    -706.32550340 Ry
     Harris-Foulkes estimate   =    -706.31982882 Ry
     estimated scf accuracy    <       1.43997922 Ry

     iteration #  8     ecut=    40.00 Ry     beta= 0.60
     Davidson diagonalization with overlap
     ethr =  1.87E-03,  avg # of iterations =  3.0

     total cpu time spent up to now is      240.0 secs

     total energy              =    -706.29342778 Ry
     Harris-Foulkes estimate   =    -706.35121051 Ry
     estimated scf accuracy    <       1.39246598 Ry

     iteration #  9     ecut=    40.00 Ry     beta= 0.60
     Davidson diagonalization with overlap
     ethr =  1.81E-03,  avg # of iterations =  1.1

     total cpu time spent up to now is      260.7 secs

     total energy              =    -706.16797681 Ry
     Harris-Foulkes estimate   =    -706.30737607 Ry
     estimated scf accuracy    <       1.05694934 Ry

     iteration # 10     ecut=    40.00 Ry     beta= 0.60
     Davidson diagonalization with overlap
     ethr =  1.37E-03,  avg # of iterations =  3.8

     total cpu time spent up to now is      285.4 secs

     total energy              =    -706.32178252 Ry
     Harris-Foulkes estimate   =    -706.21781399 Ry
     estimated scf accuracy    <       0.33222459 Ry

     iteration # 11     ecut=    40.00 Ry     beta= 0.60
     Davidson diagonalization with overlap
     ethr =  4.31E-04,  avg # of iterations =  4.6

     total cpu time spent up to now is      315.5 secs

     total energy              =    -706.29390460 Ry
     Harris-Foulkes estimate   =    -706.41078373 Ry
     estimated scf accuracy    <       1.22094642 Ry

     iteration # 12     ecut=    40.00 Ry     beta= 0.60
     Davidson diagonalization with overlap
     ethr =  4.31E-04,  avg # of iterations =  4.4

     total cpu time spent up to now is      347.3 secs

     total energy              =    -706.21829761 Ry
     Harris-Foulkes estimate   =    -706.39408810 Ry
     estimated scf accuracy    <       1.45355559 Ry

     iteration # 13     ecut=    40.00 Ry     beta= 0.60
     Davidson diagonalization with overlap
     ethr =  4.31E-04,  avg # of iterations =  3.6

     total cpu time spent up to now is      371.6 secs

     total energy              =    -705.96733177 Ry
     Harris-Foulkes estimate   =    -706.24602513 Ry
     estimated scf accuracy    <       0.68493422 Ry

     iteration # 14     ecut=    40.00 Ry     beta= 0.60
     Davidson diagonalization with overlap
     ethr =  4.31E-04,  avg # of iterations =  4.7

     total cpu time spent up to now is      410.6 secs

     total energy              =    -709.87309540 Ry
     Harris-Foulkes estimate   =    -709.15462396 Ry
     estimated scf accuracy    <      33.26605248 Ry

     iteration # 15     ecut=    40.00 Ry     beta= 0.60
     Davidson diagonalization with overlap
     ethr =  4.31E-04,  avg # of iterations =  2.0

     total cpu time spent up to now is      433.8 secs

     total energy              =    -707.75205335 Ry
     Harris-Foulkes estimate   =    -709.89958824 Ry
     estimated scf accuracy    <      35.77469464 Ry

     iteration # 16     ecut=    40.00 Ry     beta= 0.60
     Davidson diagonalization with overlap
     ethr =  4.31E-04,  avg # of iterations =  3.4

     total cpu time spent up to now is      462.4 secs

     total energy              =    -703.88731345 Ry
     Harris-Foulkes estimate   =    -707.90211451 Ry
     estimated scf accuracy    <      23.24211951 Ry

     iteration # 17     ecut=    40.00 Ry     beta= 0.60
     Davidson diagonalization with overlap
     ethr =  4.31E-04,  avg # of iterations =  6.7

     total cpu time spent up to now is      508.9 secs

     total energy              =    -706.13785189 Ry
     Harris-Foulkes estimate   =    -706.43410595 Ry
     estimated scf accuracy    <       1.85040632 Ry

     iteration # 18     ecut=    40.00 Ry     beta= 0.60
     Davidson diagonalization with overlap
     ethr =  4.31E-04,  avg # of iterations =  4.3

     total cpu time spent up to now is      539.9 secs

     total energy              =    -706.12658388 Ry
     Harris-Foulkes estimate   =    -706.20305905 Ry
     estimated scf accuracy    <       0.34294805 Ry

     iteration # 19     ecut=    40.00 Ry     beta= 0.60
     Davidson diagonalization with overlap
     ethr =  4.31E-04,  avg # of iterations =  4.4

     total cpu time spent up to now is      569.4 secs

     total energy              =    -706.30089364 Ry
     Harris-Foulkes estimate   =    -706.21499214 Ry
     estimated scf accuracy    <       0.82848495 Ry

     iteration # 20     ecut=    40.00 Ry     beta= 0.60
     Davidson diagonalization with overlap
     ethr =  4.31E-04,  avg # of iterations =  1.3

     total cpu time spent up to now is      590.4 secs

     total energy              =    -705.39312106 Ry
     Harris-Foulkes estimate   =    -706.34703828 Ry
     estimated scf accuracy    <       3.59977034 Ry

     iteration # 21     ecut=    40.00 Ry     beta= 0.60
     Davidson diagonalization with overlap
     ethr =  4.31E-04,  avg # of iterations =  6.1

     total cpu time spent up to now is      629.2 secs

     total energy              =    -706.38645413 Ry
     Harris-Foulkes estimate   =    -706.52223619 Ry
     estimated scf accuracy    <       2.22588231 Ry

     iteration # 22     ecut=    40.00 Ry     beta= 0.60
     Davidson diagonalization with overlap
     ethr =  4.31E-04,  avg # of iterations =  1.0

     total cpu time spent up to now is      649.8 secs

     total energy              =    -706.41708109 Ry
     Harris-Foulkes estimate   =    -706.39564871 Ry
     estimated scf accuracy    <       1.78858594 Ry

     iteration # 23     ecut=    40.00 Ry     beta= 0.60
     Davidson diagonalization with overlap
     ethr =  4.31E-04,  avg # of iterations =  1.0

     total cpu time spent up to now is      670.3 secs

     total energy              =    -706.20197890 Ry
     Harris-Foulkes estimate   =    -706.41859264 Ry
     estimated scf accuracy    <       1.86347792 Ry

     iteration # 24     ecut=    40.00 Ry     beta= 0.60
     Davidson diagonalization with overlap
     ethr =  4.31E-04,  avg # of iterations =  4.0

     total cpu time spent up to now is      697.1 secs

     total energy              =    -706.15964026 Ry
     Harris-Foulkes estimate   =    -706.23622797 Ry
     estimated scf accuracy    <       0.73607297 Ry

     iteration # 25     ecut=    40.00 Ry     beta= 0.60
     Davidson diagonalization with overlap
     ethr =  4.31E-04,  avg # of iterations =  1.3

     total cpu time spent up to now is      718.0 secs

     total energy              =    -706.14933508 Ry
     Harris-Foulkes estimate   =    -706.17000015 Ry
     estimated scf accuracy    <       0.34022793 Ry

     iteration # 26     ecut=    40.00 Ry     beta= 0.60
     Davidson diagonalization with overlap
     ethr =  4.31E-04,  avg # of iterations =  2.6

     total cpu time spent up to now is      740.6 secs

     total energy              =    -706.12616521 Ry
     Harris-Foulkes estimate   =    -706.15739459 Ry
     estimated scf accuracy    <       0.14919374 Ry

     iteration # 27     ecut=    40.00 Ry     beta= 0.60
     Davidson diagonalization with overlap
     ethr =  1.94E-04,  avg # of iterations =  4.9

     total cpu time spent up to now is      774.9 secs

     total energy              =    -706.17296478 Ry
     Harris-Foulkes estimate   =    -706.18040278 Ry
     estimated scf accuracy    <       0.32673873 Ry

     iteration # 28     ecut=    40.00 Ry     beta= 0.60
     Davidson diagonalization with overlap
     ethr =  1.94E-04,  avg # of iterations =  1.0

     total cpu time spent up to now is      795.4 secs

     total energy              =    -706.16288018 Ry
     Harris-Foulkes estimate   =    -706.17363519 Ry
     estimated scf accuracy    <       0.22028019 Ry

     iteration # 29     ecut=    40.00 Ry     beta= 0.60
     Davidson diagonalization with overlap
     ethr =  1.94E-04,  avg # of iterations =  1.0

     total cpu time spent up to now is      815.9 secs

     total energy              =    -706.15784332 Ry
     Harris-Foulkes estimate   =    -706.16511777 Ry
     estimated scf accuracy    <       0.07804571 Ry

     iteration # 30     ecut=    40.00 Ry     beta= 0.60
     Davidson diagonalization with overlap
     ethr =  1.01E-04,  avg # of iterations =  3.2

     total cpu time spent up to now is      839.7 secs

     total energy              =    -706.16212994 Ry
     Harris-Foulkes estimate   =    -706.16245586 Ry
     estimated scf accuracy    <       0.00077057 Ry

     iteration # 31     ecut=    40.00 Ry     beta= 0.60
     Davidson diagonalization with overlap
     ethr =  1.00E-06,  avg # of iterations =  6.0

     total cpu time spent up to now is      882.1 secs

     total energy              =    -706.16287079 Ry
     Harris-Foulkes estimate   =    -706.16353328 Ry
     estimated scf accuracy    <       0.00985763 Ry

     iteration # 32     ecut=    40.00 Ry     beta= 0.60
     Davidson diagonalization with overlap
     ethr =  1.00E-06,  avg # of iterations =  4.1

     total cpu time spent up to now is      908.1 secs

     total energy              =    -706.16308878 Ry
     Harris-Foulkes estimate   =    -706.16302347 Ry
     estimated scf accuracy    <       0.00275192 Ry

     iteration # 33     ecut=    40.00 Ry     beta= 0.60
     Davidson diagonalization with overlap
     ethr =  1.00E-06,  avg # of iterations =  1.0

     total cpu time spent up to now is      928.6 secs

     total energy              =    -706.16282062 Ry
     Harris-Foulkes estimate   =    -706.16310358 Ry
     estimated scf accuracy    <       0.00341019 Ry

     iteration # 34     ecut=    40.00 Ry     beta= 0.60
     Davidson diagonalization with overlap
     ethr =  1.00E-06,  avg # of iterations =  1.5

     total cpu time spent up to now is      950.1 secs

     total energy              =    -706.16272037 Ry
     Harris-Foulkes estimate   =    -706.16288761 Ry
     estimated scf accuracy    <       0.00088180 Ry

     iteration # 35     ecut=    40.00 Ry     beta= 0.60
     Davidson diagonalization with overlap
     ethr =  1.00E-06,  avg # of iterations =  4.8

     total cpu time spent up to now is      980.0 secs

     total energy              =    -706.16283673 Ry
     Harris-Foulkes estimate   =    -706.16288075 Ry
     estimated scf accuracy    <       0.00033539 Ry

     iteration # 36     ecut=    40.00 Ry     beta= 0.60
     Davidson diagonalization with overlap
     ethr =  4.36E-07,  avg # of iterations =  1.1

     total cpu time spent up to now is     1000.6 secs

     total energy              =    -706.16285045 Ry
     Harris-Foulkes estimate   =    -706.16285299 Ry
     estimated scf accuracy    <       0.00001751 Ry

     iteration # 37     ecut=    40.00 Ry     beta= 0.60
     Davidson diagonalization with overlap
     ethr =  2.27E-08,  avg # of iterations =  4.5

     total cpu time spent up to now is     1032.1 secs

     total energy              =    -706.16285895 Ry
     Harris-Foulkes estimate   =    -706.16286062 Ry
     estimated scf accuracy    <       0.00002322 Ry

     iteration # 38     ecut=    40.00 Ry     beta= 0.60
     Davidson diagonalization with overlap
     ethr =  2.27E-08,  avg # of iterations =  1.0

     total cpu time spent up to now is     1052.7 secs

     total energy              =    -706.16285855 Ry
     Harris-Foulkes estimate   =    -706.16285924 Ry
     estimated scf accuracy    <       0.00000886 Ry

     iteration # 39     ecut=    40.00 Ry     beta= 0.60
     Davidson diagonalization with overlap
     ethr =  1.15E-08,  avg # of iterations =  2.7

     total cpu time spent up to now is     1075.3 secs

     total energy              =    -706.16285878 Ry
     Harris-Foulkes estimate   =    -706.16285884 Ry
     estimated scf accuracy    <       0.00000183 Ry

     iteration # 40     ecut=    40.00 Ry     beta= 0.60
     Davidson diagonalization with overlap
     ethr =  2.37E-09,  avg # of iterations =  3.8

     total cpu time spent up to now is     1101.4 secs

     total energy              =    -706.16285895 Ry
     Harris-Foulkes estimate   =    -706.16285895 Ry
     estimated scf accuracy    <       0.00000024 Ry

     iteration # 41     ecut=    40.00 Ry     beta= 0.60
     Davidson diagonalization with overlap
     ethr =  3.15E-10,  avg # of iterations =  2.1

     total cpu time spent up to now is     1123.6 secs

     total energy              =    -706.16285893 Ry
     Harris-Foulkes estimate   =    -706.16285896 Ry
     estimated scf accuracy    <       0.00000020 Ry

     iteration # 42     ecut=    40.00 Ry     beta= 0.60
     Davidson diagonalization with overlap
     ethr =  2.63E-10,  avg # of iterations =  2.6

     total cpu time spent up to now is     1146.1 secs

     total energy              =    -706.16285894 Ry
     Harris-Foulkes estimate   =    -706.16285894 Ry
     estimated scf accuracy    <       0.00000001 Ry

     iteration # 43     ecut=    40.00 Ry     beta= 0.60
     Davidson diagonalization with overlap
     ethr =  1.49E-11,  avg # of iterations =  4.6

     total cpu time spent up to now is     1178.2 secs

     total energy              =    -706.16285895 Ry
     Harris-Foulkes estimate   =    -706.16285895 Ry
     estimated scf accuracy    <       0.00000001 Ry

     iteration # 44     ecut=    40.00 Ry     beta= 0.60
     Davidson diagonalization with overlap
     ethr =  1.49E-11,  avg # of iterations =  1.0

     total cpu time spent up to now is     1198.7 secs

     total energy              =    -706.16285895 Ry
     Harris-Foulkes estimate   =    -706.16285895 Ry
     estimated scf accuracy    <       0.00000001 Ry

     iteration # 45     ecut=    40.00 Ry     beta= 0.60
     Davidson diagonalization with overlap
     ethr =  1.39E-11,  avg # of iterations =  1.6

     total cpu time spent up to now is     1219.8 secs

     total energy              =    -706.16285895 Ry
     Harris-Foulkes estimate   =    -706.16285895 Ry
     estimated scf accuracy    <          1.0E-09 Ry

     iteration # 46     ecut=    40.00 Ry     beta= 0.60
     Davidson diagonalization with overlap
     ethr =  1.30E-12,  avg # of iterations =  4.6

     total cpu time spent up to now is     1249.1 secs

     End of self-consistent calculation

     Number of k-points >= 100: set verbosity='high' to print the bands.

     the Fermi energy is    15.4913 ev

!    total energy              =    -706.16285895 Ry
     Harris-Foulkes estimate   =    -706.16285895 Ry
     estimated scf accuracy    <          1.7E-11 Ry

     The total energy is the sum of the following terms:

     one-electron contribution =    -150.56520695 Ry
     hartree contribution      =     107.42394156 Ry
     xc contribution           =    -106.08354847 Ry
     ewald contribution        =    -556.93641196 Ry
     smearing contrib. (-TS)   =      -0.00163313 Ry

     convergence has been achieved in  46 iterations

     Forces acting on atoms (cartesian axes, Ry/au):

     atom    1 type  2   force =     0.00000000    0.00000000    0.00000000
     atom    2 type  1   force =     0.00237738    0.00137258    0.00000000
     atom    3 type  1   force =    -0.00000000    0.00000000    0.00087367
     atom    4 type  1   force =    -0.00237738    0.00137258    0.00000000
     atom    5 type  1   force =     0.00000000    0.00000000   -0.00087367
     atom    6 type  1   force =     0.00000000   -0.00274516   -0.00000000

     Total force =     0.004913     Total SCF correction =     0.000001


     Computing stress (Cartesian axis) and pressure

          total   stress  (Ry/bohr**3)                   (kbar)     P= -111.08
  -0.00089616   0.00000000   0.00000000       -131.83      0.00      0.00
   0.00000000  -0.00089616  -0.00000000          0.00   -131.83     -0.00
   0.00000000  -0.00000000  -0.00047298          0.00     -0.00    -69.58


     BFGS Geometry Optimization

     number of scf cycles    =   1
     number of bfgs steps    =   0

     enthalpy new            =    -706.1628589469 Ry

     new trust radius        =       0.1273959445 bohr
     new conv_thr            =            1.0E-10 Ry

     new unit-cell volume =    763.39325 a.u.^3 (   113.12321 Ang^3 )
     density =      7.52152 g/cm^3

CELL_PARAMETERS (alat=  1.88972599)
   2.976783373   0.000000000   4.913663690
  -1.488391686   2.577970208   4.913663690
  -1.488391686  -2.577970208   4.913663690

ATOMIC_POSITIONS (angstrom)
Ti       0.000000000   0.000000000   9.827327380
Nb       0.001231359  -1.717937599   7.370495535
Nb       0.000000000   0.000000000  14.741447932
Nb       1.487163305   0.860032609   7.370495535
Nb       0.000000000   0.000000000   4.913206829
Nb      -1.488390198   0.857902412   7.370495535


     NEW-OLD atomic charge density approx. for the potential

     Check: negative/imaginary core charge=   -0.000001    0.000000
     extrapolated charge   72.52584, renormalised to   77.00000

     total cpu time spent up to now is     1260.3 secs

     Self-consistent Calculation

     iteration #  1     ecut=    40.00 Ry     beta= 0.60
     Davidson diagonalization with overlap
     c_bands:  1 eigenvalues not converged
     c_bands:  1 eigenvalues not converged
     c_bands:  1 eigenvalues not converged
     c_bands:  1 eigenvalues not converged
     c_bands:  1 eigenvalues not converged
     c_bands:  1 eigenvalues not converged
     c_bands:  1 eigenvalues not converged
     c_bands:  1 eigenvalues not converged
     c_bands:  1 eigenvalues not converged
     c_bands:  1 eigenvalues not converged
     c_bands:  1 eigenvalues not converged
     c_bands:  1 eigenvalues not converged
     c_bands:  1 eigenvalues not converged
     c_bands:  1 eigenvalues not converged
     c_bands:  1 eigenvalues not converged
     c_bands:  1 eigenvalues not converged
     c_bands:  2 eigenvalues not converged
     c_bands:  1 eigenvalues not converged
     c_bands:  1 eigenvalues not converged
     c_bands:  1 eigenvalues not converged
     c_bands:  1 eigenvalues not converged
     c_bands:  1 eigenvalues not converged
     c_bands:  1 eigenvalues not converged
     c_bands:  1 eigenvalues not converged
     c_bands:  1 eigenvalues not converged
     c_bands:  1 eigenvalues not converged
     c_bands:  1 eigenvalues not converged
     c_bands:  1 eigenvalues not converged
     c_bands:  1 eigenvalues not converged
     c_bands:  1 eigenvalues not converged
     c_bands:  1 eigenvalues not converged
     c_bands:  1 eigenvalues not converged
     c_bands:  1 eigenvalues not converged
     c_bands:  1 eigenvalues not converged
     c_bands:  1 eigenvalues not converged
     c_bands:  1 eigenvalues not converged
     c_bands:  1 eigenvalues not converged
     ethr =  1.00E-06,  avg # of iterations = 14.5

     total cpu time spent up to now is     1341.5 secs

     total energy              =    -701.95409331 Ry
     Harris-Foulkes estimate   =    -711.88004417 Ry
     estimated scf accuracy    <       4.54995760 Ry

     iteration #  2     ecut=    40.00 Ry     beta= 0.60
     Davidson diagonalization with overlap
     ethr =  5.91E-03,  avg # of iterations =  5.3

     total cpu time spent up to now is     1379.0 secs

     total energy              =    -706.48499837 Ry
     Harris-Foulkes estimate   =    -711.36225689 Ry
     estimated scf accuracy    <      13.25866882 Ry

     iteration #  3     ecut=    40.00 Ry     beta= 0.60
     Davidson diagonalization with overlap
     ethr =  5.91E-03,  avg # of iterations =  2.2

     total cpu time spent up to now is     1408.5 secs

     total energy              =    -706.68003032 Ry
     Harris-Foulkes estimate   =    -707.33838165 Ry
     estimated scf accuracy    <       4.43323213 Ry

     iteration #  4     ecut=    40.00 Ry     beta= 0.60
     Davidson diagonalization with overlap
     ethr =  5.76E-03,  avg # of iterations =  1.0

     total cpu time spent up to now is     1429.7 secs

     total energy              =    -706.10835477 Ry
     Harris-Foulkes estimate   =    -706.90481639 Ry
     estimated scf accuracy    <       3.31741269 Ry

     iteration #  5     ecut=    40.00 Ry     beta= 0.60
     Davidson diagonalization with overlap
     ethr =  4.31E-03,  avg # of iterations =  2.4

     total cpu time spent up to now is     1459.2 secs

     total energy              =    -706.09476818 Ry
     Harris-Foulkes estimate   =    -706.25307797 Ry
     estimated scf accuracy    <       1.04712875 Ry

     iteration #  6     ecut=    40.00 Ry     beta= 0.60
     Davidson diagonalization with overlap
     ethr =  1.36E-03,  avg # of iterations =  4.7

     total cpu time spent up to now is     1500.7 secs

     total energy              =    -706.24146100 Ry
     Harris-Foulkes estimate   =    -706.21445240 Ry
     estimated scf accuracy    <       0.08373371 Ry

     iteration #  7     ecut=    40.00 Ry     beta= 0.60
     Davidson diagonalization with overlap
     ethr =  1.09E-04,  avg # of iterations =  5.9

     total cpu time spent up to now is     1550.3 secs

     total energy              =    -706.26165657 Ry
     Harris-Foulkes estimate   =    -706.30834517 Ry
     estimated scf accuracy    <       0.79494869 Ry

     iteration #  8     ecut=    40.00 Ry     beta= 0.60
     Davidson diagonalization with overlap
     ethr =  1.09E-04,  avg # of iterations =  1.0

     total cpu time spent up to now is     1571.5 secs

     total energy              =    -706.20845949 Ry
     Harris-Foulkes estimate   =    -706.26335047 Ry
     estimated scf accuracy    <       0.62936584 Ry

     iteration #  9     ecut=    40.00 Ry     beta= 0.60
     Davidson diagonalization with overlap
     ethr =  1.09E-04,  avg # of iterations =  4.5

     total cpu time spent up to now is     1601.2 secs

     total energy              =    -706.17564717 Ry
     Harris-Foulkes estimate   =    -706.21885972 Ry
     estimated scf accuracy    <       0.25456386 Ry

     iteration # 10     ecut=    40.00 Ry     beta= 0.60
     Davidson diagonalization with overlap
     ethr =  1.09E-04,  avg # of iterations =  5.7

     total cpu time spent up to now is     1631.5 secs

     total energy              =    -706.18542077 Ry
     Harris-Foulkes estimate   =    -706.19092652 Ry
     estimated scf accuracy    <       0.00837065 Ry

     iteration # 11     ecut=    40.00 Ry     beta= 0.60
     Davidson diagonalization with overlap
     ethr =  1.09E-05,  avg # of iterations =  6.1

     total cpu time spent up to now is     1674.2 secs

     total energy              =    -706.19022041 Ry
     Harris-Foulkes estimate   =    -706.19173443 Ry
     estimated scf accuracy    <       0.04325047 Ry

     iteration # 12     ecut=    40.00 Ry     beta= 0.60
     Davidson diagonalization with overlap
     ethr =  1.09E-05,  avg # of iterations =  1.0

     total cpu time spent up to now is     1694.8 secs

     total energy              =    -706.18886689 Ry
     Harris-Foulkes estimate   =    -706.19039335 Ry
     estimated scf accuracy    <       0.02521836 Ry

     iteration # 13     ecut=    40.00 Ry     beta= 0.60
     Davidson diagonalization with overlap
     ethr =  1.09E-05,  avg # of iterations =  2.1

     total cpu time spent up to now is     1719.4 secs

     total energy              =    -706.19306833 Ry
     Harris-Foulkes estimate   =    -706.18935736 Ry
     estimated scf accuracy    <       0.00551209 Ry

     iteration # 14     ecut=    40.00 Ry     beta= 0.60
     Davidson diagonalization with overlap
     ethr =  7.16E-06,  avg # of iterations =  4.4

     total cpu time spent up to now is     1762.7 secs

     total energy              =    -706.18080792 Ry
     Harris-Foulkes estimate   =    -706.19946838 Ry
     estimated scf accuracy    <       0.17589992 Ry

     iteration # 15     ecut=    40.00 Ry     beta= 0.60
     Davidson diagonalization with overlap
     ethr =  7.16E-06,  avg # of iterations =  5.9

     total cpu time spent up to now is     1806.1 secs

     total energy              =    -706.18849300 Ry
     Harris-Foulkes estimate   =    -706.18907318 Ry
     estimated scf accuracy    <       0.00190478 Ry

     iteration # 16     ecut=    40.00 Ry     beta= 0.60
     Davidson diagonalization with overlap
     ethr =  2.47E-06,  avg # of iterations =  5.4

     total cpu time spent up to now is     1842.3 secs

     total energy              =    -706.18873714 Ry
     Harris-Foulkes estimate   =    -706.18921387 Ry
     estimated scf accuracy    <       0.00377667 Ry

     iteration # 17     ecut=    40.00 Ry     beta= 0.60
     Davidson diagonalization with overlap
     ethr =  2.47E-06,  avg # of iterations =  2.0

     total cpu time spent up to now is     1867.6 secs

     total energy              =    -706.18887049 Ry
     Harris-Foulkes estimate   =    -706.18889411 Ry
     estimated scf accuracy    <       0.00029504 Ry

     iteration # 18     ecut=    40.00 Ry     beta= 0.60
     Davidson diagonalization with overlap
     ethr =  3.83E-07,  avg # of iterations =  4.5

     total cpu time spent up to now is     1898.7 secs

     total energy              =    -706.18894205 Ry
     Harris-Foulkes estimate   =    -706.18894263 Ry
     estimated scf accuracy    <       0.00002157 Ry

     iteration # 19     ecut=    40.00 Ry     beta= 0.60
     Davidson diagonalization with overlap
     ethr =  2.80E-08,  avg # of iterations =  1.5

     total cpu time spent up to now is     1921.8 secs

     total energy              =    -706.18894133 Ry
     Harris-Foulkes estimate   =    -706.18894229 Ry
     estimated scf accuracy    <       0.00001500 Ry

     iteration # 20     ecut=    40.00 Ry     beta= 0.60
     Davidson diagonalization with overlap
     ethr =  1.95E-08,  avg # of iterations =  1.0

     total cpu time spent up to now is     1942.5 secs

     total energy              =    -706.18894132 Ry
     Harris-Foulkes estimate   =    -706.18894155 Ry
     estimated scf accuracy    <       0.00000524 Ry

     iteration # 21     ecut=    40.00 Ry     beta= 0.60
     Davidson diagonalization with overlap
     ethr =  6.81E-09,  avg # of iterations =  1.5

     total cpu time spent up to now is     1965.8 secs

     total energy              =    -706.18894127 Ry
     Harris-Foulkes estimate   =    -706.18894139 Ry
     estimated scf accuracy    <       0.00000273 Ry

     iteration # 22     ecut=    40.00 Ry     beta= 0.60
     Davidson diagonalization with overlap
     ethr =  3.55E-09,  avg # of iterations =  2.7

     total cpu time spent up to now is     1990.7 secs

     total energy              =    -706.18894130 Ry
     Harris-Foulkes estimate   =    -706.18894133 Ry
     estimated scf accuracy    <       0.00000102 Ry

     iteration # 23     ecut=    40.00 Ry     beta= 0.60
     Davidson diagonalization with overlap
     ethr =  1.32E-09,  avg # of iterations =  2.4

     total cpu time spent up to now is     2013.3 secs

     total energy              =    -706.18894131 Ry
     Harris-Foulkes estimate   =    -706.18894132 Ry
     estimated scf accuracy    <       0.00000054 Ry

     iteration # 24     ecut=    40.00 Ry     beta= 0.60
     Davidson diagonalization with overlap
     ethr =  7.02E-10,  avg # of iterations =  1.4

     total cpu time spent up to now is     2036.6 secs

     total energy              =    -706.18894131 Ry
     Harris-Foulkes estimate   =    -706.18894131 Ry
     estimated scf accuracy    <       0.00000037 Ry

     iteration # 25     ecut=    40.00 Ry     beta= 0.60
     Davidson diagonalization with overlap
     ethr =  4.80E-10,  avg # of iterations =  1.3

     total cpu time spent up to now is     2058.0 secs

     total energy              =    -706.18894130 Ry
     Harris-Foulkes estimate   =    -706.18894131 Ry
     estimated scf accuracy    <       0.00000027 Ry

     iteration # 26     ecut=    40.00 Ry     beta= 0.60
     Davidson diagonalization with overlap
     ethr =  3.46E-10,  avg # of iterations =  1.5

     total cpu time spent up to now is     2079.3 secs

     total energy              =    -706.18894129 Ry
     Harris-Foulkes estimate   =    -706.18894130 Ry
     estimated scf accuracy    <       0.00000014 Ry

     iteration # 27     ecut=    40.00 Ry     beta= 0.60
     Davidson diagonalization with overlap
     ethr =  1.77E-10,  avg # of iterations =  3.3

     total cpu time spent up to now is     2104.8 secs

     total energy              =    -706.18894130 Ry
     Harris-Foulkes estimate   =    -706.18894130 Ry
     estimated scf accuracy    <          6.4E-10 Ry

     iteration # 28     ecut=    40.00 Ry     beta= 0.60
     Davidson diagonalization with overlap
     ethr =  8.29E-13,  avg # of iterations =  5.2

     total cpu time spent up to now is     2138.7 secs

     End of self-consistent calculation

     Number of k-points >= 100: set verbosity='high' to print the bands.

     the Fermi energy is    16.5575 ev

!    total energy              =    -706.18894130 Ry
     Harris-Foulkes estimate   =    -706.18894130 Ry
     estimated scf accuracy    <          5.5E-11 Ry

     The total energy is the sum of the following terms:

     one-electron contribution =    -135.20546801 Ry
     hartree contribution      =     103.09443004 Ry
     xc contribution           =    -106.42284794 Ry
     ewald contribution        =    -567.65422693 Ry
     smearing contrib. (-TS)   =      -0.00082847 Ry

     convergence has been achieved in  28 iterations

     Forces acting on atoms (cartesian axes, Ry/au):

     atom    1 type  2   force =     0.00000000    0.00000000    0.00000000
     atom    2 type  1   force =     0.00334305    0.00193011    0.00000000
     atom    3 type  1   force =     0.00000000    0.00000000   -0.00001738
     atom    4 type  1   force =    -0.00334305    0.00193011    0.00000000
     atom    5 type  1   force =     0.00000000    0.00000000    0.00001738
     atom    6 type  1   force =     0.00000000   -0.00386022    0.00000000

     Total force =     0.006686     Total SCF correction =     0.000005


     Computing stress (Cartesian axis) and pressure

          total   stress  (Ry/bohr**3)                   (kbar)     P=  -39.61
  -0.00042433   0.00000000   0.00000000        -62.42      0.00      0.00
   0.00000000  -0.00042433   0.00000000          0.00    -62.42      0.00
  -0.00000000   0.00000000   0.00004079         -0.00      0.00      6.00


     number of scf cycles    =   2
     number of bfgs steps    =   1

     enthalpy old            =    -706.1628589469 Ry
     enthalpy new            =    -706.1889413004 Ry

     CASE: enthalpy_new < enthalpy_old

     new trust radius        =       0.1061878285 bohr
     new conv_thr            =            1.0E-10 Ry

     new unit-cell volume =    734.76998 a.u.^3 (   108.88168 Ang^3 )
     density =      7.81452 g/cm^3

CELL_PARAMETERS (alat=  1.88972599)
   2.919580502   0.000000000   4.916568234
  -1.459790251   2.528431073   4.916568234
  -1.459790251  -2.528431073   4.916568234

ATOMIC_POSITIONS (angstrom)
Ti       0.000000000   0.000000000   9.833136468
Nb       0.004038946  -1.683290514   7.374852351
Nb       0.000000000   0.000000000  14.750186434
Nb       1.455754225   0.845140558   7.374852351
Nb       0.000000000   0.000000000   4.916086501
Nb      -1.459788791   0.838147428   7.374852351


     NEW-OLD atomic charge density approx. for the potential

     Check: negative/imaginary core charge=   -0.000001    0.000000
     extrapolated charge   74.03992, renormalised to   77.00000

     total cpu time spent up to now is     2152.0 secs

     Self-consistent Calculation

     iteration #  1     ecut=    40.00 Ry     beta= 0.60
     Davidson diagonalization with overlap
     c_bands:  1 eigenvalues not converged
     c_bands:  1 eigenvalues not converged
     c_bands:  1 eigenvalues not converged
     c_bands:  1 eigenvalues not converged
     ethr =  1.00E-06,  avg # of iterations = 11.8

     total cpu time spent up to now is     2231.4 secs

     total energy              =    -705.11600813 Ry
     Harris-Foulkes estimate   =    -709.65421969 Ry
     estimated scf accuracy    <       1.09234839 Ry

     iteration #  2     ecut=    40.00 Ry     beta= 0.60
     Davidson diagonalization with overlap
     ethr =  1.42E-03,  avg # of iterations =  6.0

     total cpu time spent up to now is     2278.1 secs

     total energy              =    -706.15112945 Ry
     Harris-Foulkes estimate   =    -707.81075196 Ry
     estimated scf accuracy    <       5.34801141 Ry

     iteration #  3     ecut=    40.00 Ry     beta= 0.60
     Davidson diagonalization with overlap
     ethr =  1.42E-03,  avg # of iterations =  4.1

     total cpu time spent up to now is     2312.6 secs

     total energy              =    -706.24372867 Ry
     Harris-Foulkes estimate   =    -706.47636374 Ry
     estimated scf accuracy    <       1.49026337 Ry

     iteration #  4     ecut=    40.00 Ry     beta= 0.60
     Davidson diagonalization with overlap
     ethr =  1.42E-03,  avg # of iterations =  1.5

     total cpu time spent up to now is     2335.2 secs

     total energy              =    -706.13667088 Ry
     Harris-Foulkes estimate   =    -706.34055324 Ry
     estimated scf accuracy    <       1.11732097 Ry

     iteration #  5     ecut=    40.00 Ry     beta= 0.60
     Davidson diagonalization with overlap
     ethr =  1.42E-03,  avg # of iterations =  2.7

     total cpu time spent up to now is     2360.1 secs

     total energy              =    -706.20773292 Ry
     Harris-Foulkes estimate   =    -706.20917619 Ry
     estimated scf accuracy    <       0.09110101 Ry

     iteration #  6     ecut=    40.00 Ry     beta= 0.60
     Davidson diagonalization with overlap
     ethr =  1.18E-04,  avg # of iterations =  4.4

     total cpu time spent up to now is     2387.5 secs

     total energy              =    -706.20041025 Ry
     Harris-Foulkes estimate   =    -706.21415031 Ry
     estimated scf accuracy    <       0.12561406 Ry

     iteration #  7     ecut=    40.00 Ry     beta= 0.60
     Davidson diagonalization with overlap
     ethr =  1.18E-04,  avg # of iterations =  1.0

     total cpu time spent up to now is     2409.3 secs

     total energy              =    -706.18581061 Ry
     Harris-Foulkes estimate   =    -706.20214112 Ry
     estimated scf accuracy    <       0.06283001 Ry

     iteration #  8     ecut=    40.00 Ry     beta= 0.60
     Davidson diagonalization with overlap
     ethr =  8.16E-05,  avg # of iterations =  5.2

     total cpu time spent up to now is     2443.3 secs

     total energy              =    -706.19378376 Ry
     Harris-Foulkes estimate   =    -706.19714457 Ry
     estimated scf accuracy    <       0.01672490 Ry

     iteration #  9     ecut=    40.00 Ry     beta= 0.60
     Davidson diagonalization with overlap
     ethr =  2.17E-05,  avg # of iterations =  4.5

     total cpu time spent up to now is     2472.1 secs

     total energy              =    -706.19507609 Ry
     Harris-Foulkes estimate   =    -706.19765685 Ry
     estimated scf accuracy    <       0.01145973 Ry

     iteration # 10     ecut=    40.00 Ry     beta= 0.60
     Davidson diagonalization with overlap
     ethr =  1.49E-05,  avg # of iterations =  2.4

     total cpu time spent up to now is     2495.5 secs

     total energy              =    -706.19561982 Ry
     Harris-Foulkes estimate   =    -706.19593703 Ry
     estimated scf accuracy    <       0.00052912 Ry

     iteration # 11     ecut=    40.00 Ry     beta= 0.60
     Davidson diagonalization with overlap
     ethr =  6.87E-07,  avg # of iterations =  5.2

     total cpu time spent up to now is     2535.4 secs

     total energy              =    -706.19605125 Ry
     Harris-Foulkes estimate   =    -706.19605468 Ry
     estimated scf accuracy    <       0.00070251 Ry

     iteration # 12     ecut=    40.00 Ry     beta= 0.60
     Davidson diagonalization with overlap
     ethr =  6.87E-07,  avg # of iterations =  1.0

     total cpu time spent up to now is     2557.2 secs

     total energy              =    -706.19595304 Ry
     Harris-Foulkes estimate   =    -706.19605222 Ry
     estimated scf accuracy    <       0.00069379 Ry

     iteration # 13     ecut=    40.00 Ry     beta= 0.60
     Davidson diagonalization with overlap
     ethr =  6.87E-07,  avg # of iterations =  2.0

     total cpu time spent up to now is     2582.2 secs

     total energy              =    -706.19598335 Ry
     Harris-Foulkes estimate   =    -706.19598524 Ry
     estimated scf accuracy    <       0.00004761 Ry

     iteration # 14     ecut=    40.00 Ry     beta= 0.60
     Davidson diagonalization with overlap
     ethr =  6.18E-08,  avg # of iterations =  4.3

     total cpu time spent up to now is     2614.3 secs

     total energy              =    -706.19599548 Ry
     Harris-Foulkes estimate   =    -706.19599559 Ry
     estimated scf accuracy    <       0.00000043 Ry

     iteration # 15     ecut=    40.00 Ry     beta= 0.60
     Davidson diagonalization with overlap
     ethr =  5.62E-10,  avg # of iterations =  4.1

     total cpu time spent up to now is     2643.2 secs

     total energy              =    -706.19599556 Ry
     Harris-Foulkes estimate   =    -706.19599556 Ry
     estimated scf accuracy    <       0.00000011 Ry

     iteration # 16     ecut=    40.00 Ry     beta= 0.60
     Davidson diagonalization with overlap
     ethr =  1.39E-10,  avg # of iterations =  4.3

     total cpu time spent up to now is     2675.1 secs

     total energy              =    -706.19599553 Ry
     Harris-Foulkes estimate   =    -706.19599559 Ry
     estimated scf accuracy    <       0.00000047 Ry

     iteration # 17     ecut=    40.00 Ry     beta= 0.60
     Davidson diagonalization with overlap
     ethr =  1.39E-10,  avg # of iterations =  3.9

     total cpu time spent up to now is     2702.6 secs

     total energy              =    -706.19599555 Ry
     Harris-Foulkes estimate   =    -706.19599555 Ry
     estimated scf accuracy    <       0.00000003 Ry

     iteration # 18     ecut=    40.00 Ry     beta= 0.60
     Davidson diagonalization with overlap
     ethr =  4.39E-11,  avg # of iterations =  2.5

     total cpu time spent up to now is     2727.1 secs

     total energy              =    -706.19599555 Ry
     Harris-Foulkes estimate   =    -706.19599555 Ry
     estimated scf accuracy    <       0.00000001 Ry

     iteration # 19     ecut=    40.00 Ry     beta= 0.60
     Davidson diagonalization with overlap
     ethr =  1.92E-11,  avg # of iterations =  2.8

     total cpu time spent up to now is     2752.5 secs

     total energy              =    -706.19599555 Ry
     Harris-Foulkes estimate   =    -706.19599555 Ry
     estimated scf accuracy    <          2.4E-09 Ry

     iteration # 20     ecut=    40.00 Ry     beta= 0.60
     Davidson diagonalization with overlap
     ethr =  3.17E-12,  avg # of iterations =  3.8

     total cpu time spent up to now is     2790.5 secs

     total energy              =    -706.19599555 Ry
     Harris-Foulkes estimate   =    -706.19599555 Ry
     estimated scf accuracy    <          1.5E-10 Ry

     iteration # 21     ecut=    40.00 Ry     beta= 0.60
     Davidson diagonalization with overlap
     ethr =  2.00E-13,  avg # of iterations =  3.9

     total cpu time spent up to now is     2833.9 secs

     End of self-consistent calculation

     Number of k-points >= 100: set verbosity='high' to print the bands.

     the Fermi energy is    17.2924 ev

!    total energy              =    -706.19599555 Ry
     Harris-Foulkes estimate   =    -706.19599555 Ry
     estimated scf accuracy    <          5.8E-12 Ry

     The total energy is the sum of the following terms:

     one-electron contribution =    -124.96131387 Ry
     hartree contribution      =     100.30043837 Ry
     xc contribution           =    -106.66597907 Ry
     ewald contribution        =    -574.86861910 Ry
     smearing contrib. (-TS)   =      -0.00052188 Ry

     convergence has been achieved in  21 iterations

     Forces acting on atoms (cartesian axes, Ry/au):

     atom    1 type  2   force =     0.00000000    0.00000000    0.00000000
     atom    2 type  1   force =     0.00302797    0.00174820    0.00000000
     atom    3 type  1   force =     0.00000000    0.00000000   -0.00057597
     atom    4 type  1   force =    -0.00302797    0.00174820    0.00000000
     atom    5 type  1   force =     0.00000000    0.00000000    0.00057597
     atom    6 type  1   force =     0.00000000   -0.00349639    0.00000000

     Total force =     0.006110     Total SCF correction =     0.000001


     Computing stress (Cartesian axis) and pressure

          total   stress  (Ry/bohr**3)                   (kbar)     P=   17.00
  -0.00003573  -0.00000000  -0.00000000         -5.26     -0.00     -0.00
   0.00000000  -0.00003573   0.00000000          0.00     -5.26      0.00
   0.00000000  -0.00000000   0.00041809          0.00     -0.00     61.50


     number of scf cycles    =   3
     number of bfgs steps    =   2

     enthalpy old            =    -706.1889413004 Ry
     enthalpy new            =    -706.1959955485 Ry

     CASE: enthalpy_new < enthalpy_old

     new trust radius        =       0.0533169076 bohr
     new conv_thr            =            1.0E-10 Ry

     new unit-cell volume =    731.88926 a.u.^3 (   108.45480 Ang^3 )
     density =      7.84528 g/cm^3

CELL_PARAMETERS (alat=  1.88972599)
   2.899628108   0.000000000   4.964921001
  -1.449814054   2.511151794   4.964921001
  -1.449814054  -2.511151794   4.964921001

ATOMIC_POSITIONS (angstrom)
Ti       0.000000000   0.000000000   9.929842001
Nb       0.006282211  -1.670475834   7.447381501
Nb       0.000000000   0.000000000  14.894961490
Nb       1.443534743   0.840675960   7.447381501
Nb       0.000000000   0.000000000   4.964722512
Nb      -1.449812604   0.829797363   7.447381501


     NEW-OLD atomic charge density approx. for the potential

     Check: negative/imaginary core charge=   -0.000001    0.000000
     extrapolated charge   76.70092, renormalised to   77.00000

     total cpu time spent up to now is     2887.4 secs

     Self-consistent Calculation

     iteration #  1     ecut=    40.00 Ry     beta= 0.60
     Davidson diagonalization with overlap
     c_bands:  1 eigenvalues not converged
     c_bands:  1 eigenvalues not converged
     c_bands:  1 eigenvalues not converged
     c_bands:  2 eigenvalues not converged
     c_bands:  1 eigenvalues not converged
     c_bands:  1 eigenvalues not converged
     c_bands:  1 eigenvalues not converged
     ethr =  1.00E-06,  avg # of iterations =  8.4

     total cpu time spent up to now is     2982.3 secs

     total energy              =    -706.19237264 Ry
     Harris-Foulkes estimate   =    -706.53996804 Ry
     estimated scf accuracy    <       0.00664619 Ry

     iteration #  2     ecut=    40.00 Ry     beta= 0.60
     Davidson diagonalization with overlap
     c_bands:  1 eigenvalues not converged
     ethr =  8.63E-06,  avg # of iterations =  6.2

     total cpu time spent up to now is     3029.6 secs

     total energy              =    -706.18697247 Ry
     Harris-Foulkes estimate   =    -706.21685764 Ry
     estimated scf accuracy    <       0.20424135 Ry

     iteration #  3     ecut=    40.00 Ry     beta= 0.60
     Davidson diagonalization with overlap
     ethr =  8.63E-06,  avg # of iterations =  4.9

     total cpu time spent up to now is     3071.0 secs

     total energy              =    -706.19878488 Ry
     Harris-Foulkes estimate   =    -706.20012483 Ry
     estimated scf accuracy    <       0.00384173 Ry

     iteration #  4     ecut=    40.00 Ry     beta= 0.60
     Davidson diagonalization with overlap
     ethr =  4.99E-06,  avg # of iterations =  3.2

     total cpu time spent up to now is     3931.9 secs

     total energy              =    -706.19887785 Ry
     Harris-Foulkes estimate   =    -706.19976651 Ry
     estimated scf accuracy    <       0.00581459 Ry

     iteration #  5     ecut=    40.00 Ry     beta= 0.60
     Davidson diagonalization with overlap
     ethr =  4.99E-06,  avg # of iterations =  1.8

     total cpu time spent up to now is     3953.8 secs

     total energy              =    -706.19897048 Ry
     Harris-Foulkes estimate   =    -706.19925846 Ry
     estimated scf accuracy    <       0.00113339 Ry

     iteration #  6     ecut=    40.00 Ry     beta= 0.60
     Davidson diagonalization with overlap
     ethr =  1.47E-06,  avg # of iterations =  3.4

     total cpu time spent up to now is     3980.5 secs

     total energy              =    -706.19908930 Ry
     Harris-Foulkes estimate   =    -706.19911067 Ry
     estimated scf accuracy    <       0.00014884 Ry

     iteration #  7     ecut=    40.00 Ry     beta= 0.60
     Davidson diagonalization with overlap
     ethr =  1.93E-07,  avg # of iterations =  2.6

     total cpu time spent up to now is     4009.8 secs

     total energy              =    -706.19909520 Ry
     Harris-Foulkes estimate   =    -706.19910218 Ry
     estimated scf accuracy    <       0.00004759 Ry

     iteration #  8     ecut=    40.00 Ry     beta= 0.60
     Davidson diagonalization with overlap
     ethr =  6.18E-08,  avg # of iterations =  2.8

     total cpu time spent up to now is     4054.5 secs

     total energy              =    -706.19909869 Ry
     Harris-Foulkes estimate   =    -706.19909918 Ry
     estimated scf accuracy    <       0.00000299 Ry

     iteration #  9     ecut=    40.00 Ry     beta= 0.60
     Davidson diagonalization with overlap
     ethr =  3.88E-09,  avg # of iterations =  4.0

     total cpu time spent up to now is     4084.9 secs

     total energy              =    -706.19909942 Ry
     Harris-Foulkes estimate   =    -706.19909946 Ry
     estimated scf accuracy    <       0.00000019 Ry

     iteration # 10     ecut=    40.00 Ry     beta= 0.60
     Davidson diagonalization with overlap
     ethr =  2.48E-10,  avg # of iterations =  2.7

     total cpu time spent up to now is     4109.6 secs

     total energy              =    -706.19909943 Ry
     Harris-Foulkes estimate   =    -706.19909944 Ry
     estimated scf accuracy    <       0.00000004 Ry

     iteration # 11     ecut=    40.00 Ry     beta= 0.60
     Davidson diagonalization with overlap
     ethr =  5.31E-11,  avg # of iterations =  3.9

     total cpu time spent up to now is     4136.8 secs

     total energy              =    -706.19909944 Ry
     Harris-Foulkes estimate   =    -706.19909944 Ry
     estimated scf accuracy    <          3.1E-09 Ry

     iteration # 12     ecut=    40.00 Ry     beta= 0.60
     Davidson diagonalization with overlap
     ethr =  4.05E-12,  avg # of iterations =  3.2

     total cpu time spent up to now is     5044.4 secs

     total energy              =    -706.19909944 Ry
     Harris-Foulkes estimate   =    -706.19909944 Ry
     estimated scf accuracy    <          1.1E-10 Ry

     iteration # 13     ecut=    40.00 Ry     beta= 0.60
     Davidson diagonalization with overlap
     ethr =  1.46E-13,  avg # of iterations =  4.6

     total cpu time spent up to now is     5078.7 secs

     total energy              =    -706.19909944 Ry
     Harris-Foulkes estimate   =    -706.19909944 Ry
     estimated scf accuracy    <          1.9E-10 Ry

     iteration # 14     ecut=    40.00 Ry     beta= 0.60
     Davidson diagonalization with overlap
     ethr =  1.46E-13,  avg # of iterations =  2.2

     total cpu time spent up to now is     5853.1 secs

     End of self-consistent calculation

     Number of k-points >= 100: set verbosity='high' to print the bands.

     the Fermi energy is    17.3591 ev

!    total energy              =    -706.19909944 Ry
     Harris-Foulkes estimate   =    -706.19909944 Ry
     estimated scf accuracy    <          1.3E-11 Ry

     The total energy is the sum of the following terms:

     one-electron contribution =    -124.10715134 Ry
     hartree contribution      =     100.11915259 Ry
     xc contribution           =    -106.69734936 Ry
     ewald contribution        =    -575.51320182 Ry
     smearing contrib. (-TS)   =      -0.00054951 Ry

     convergence has been achieved in  14 iterations

     Forces acting on atoms (cartesian axes, Ry/au):

     atom    1 type  2   force =     0.00000000    0.00000000    0.00000000
     atom    2 type  1   force =     0.00195289    0.00112750   -0.00000000
     atom    3 type  1   force =     0.00000000    0.00000000   -0.00054280
     atom    4 type  1   force =    -0.00195289    0.00112750    0.00000000
     atom    5 type  1   force =     0.00000000    0.00000000    0.00054280
     atom    6 type  1   force =     0.00000000   -0.00225500    0.00000000

     Total force =     0.003980     Total SCF correction =     0.000002


     Computing stress (Cartesian axis) and pressure

          total   stress  (Ry/bohr**3)                   (kbar)     P=   22.59
   0.00002387  -0.00000000   0.00000000          3.51     -0.00      0.00
   0.00000000   0.00002387   0.00000000          0.00      3.51      0.00
  -0.00000000   0.00000000   0.00041301         -0.00      0.00     60.76


     number of scf cycles    =   4
     number of bfgs steps    =   3

     enthalpy old            =    -706.1959955485 Ry
     enthalpy new            =    -706.1990994382 Ry

     CASE: enthalpy_new < enthalpy_old

     new trust radius        =       0.0790410903 bohr
     new conv_thr            =            1.0E-10 Ry

     new unit-cell volume =    732.49919 a.u.^3 (   108.54518 Ang^3 )
     density =      7.83875 g/cm^3

CELL_PARAMETERS (alat=  1.88972599)
   2.879877263   0.000000000   5.037450151
  -1.439938631   2.494047061   5.037450151
  -1.439938631  -2.494047061   5.037450151

ATOMIC_POSITIONS (angstrom)
Ti      -0.000000000   0.000000000  10.074900301
Nb       0.008769451  -1.657636659   7.556175226
Nb      -0.000000000   0.000000000  15.112118836
Nb       1.431172062   0.836410402   7.556175226
Nb      -0.000000000   0.000000000   5.037681767
Nb      -1.439937191   0.821223764   7.556175226


     NEW-OLD atomic charge density approx. for the potential

     Check: negative/imaginary core charge=   -0.000001    0.000000
     extrapolated charge   77.06327, renormalised to   77.00000

     total cpu time spent up to now is     5864.2 secs

     Self-consistent Calculation

     iteration #  1     ecut=    40.00 Ry     beta= 0.60
     Davidson diagonalization with overlap
     c_bands:  1 eigenvalues not converged
     c_bands:  1 eigenvalues not converged
     c_bands:  1 eigenvalues not converged
     c_bands:  1 eigenvalues not converged
     ethr =  1.00E-06,  avg # of iterations =  8.2

     total cpu time spent up to now is     6344.0 secs

     total energy              =    -706.20222329 Ry
     Harris-Foulkes estimate   =    -706.13041579 Ry
     estimated scf accuracy    <       0.00086577 Ry

     iteration #  2     ecut=    40.00 Ry     beta= 0.60
     Davidson diagonalization with overlap
     ethr =  1.12E-06,  avg # of iterations =  4.5

     total cpu time spent up to now is     6728.0 secs

     total energy              =    -706.20128954 Ry
     Harris-Foulkes estimate   =    -706.20387938 Ry
     estimated scf accuracy    <       0.01481612 Ry

     iteration #  3     ecut=    40.00 Ry     beta= 0.60
     Davidson diagonalization with overlap
     ethr =  1.12E-06,  avg # of iterations =  4.7

     total cpu time spent up to now is     6760.6 secs

     total energy              =    -706.20249343 Ry
     Harris-Foulkes estimate   =    -706.20274825 Ry
     estimated scf accuracy    <       0.00107897 Ry

     iteration #  4     ecut=    40.00 Ry     beta= 0.60
     Davidson diagonalization with overlap
     ethr =  1.12E-06,  avg # of iterations =  4.3

     total cpu time spent up to now is     6787.4 secs

     total energy              =    -706.20252066 Ry
     Harris-Foulkes estimate   =    -706.20278584 Ry
     estimated scf accuracy    <       0.00156550 Ry

     iteration #  5     ecut=    40.00 Ry     beta= 0.60
     Davidson diagonalization with overlap
     ethr =  1.12E-06,  avg # of iterations =  3.3

     total cpu time spent up to now is     6810.5 secs

     total energy              =    -706.20264561 Ry
     Harris-Foulkes estimate   =    -706.20264581 Ry
     estimated scf accuracy    <       0.00000279 Ry

     iteration #  6     ecut=    40.00 Ry     beta= 0.60
     Davidson diagonalization with overlap
     ethr =  3.62E-09,  avg # of iterations =  5.4

     total cpu time spent up to now is     6846.3 secs

     total energy              =    -706.20265671 Ry
     Harris-Foulkes estimate   =    -706.20265904 Ry
     estimated scf accuracy    <       0.00001578 Ry

     iteration #  7     ecut=    40.00 Ry     beta= 0.60
     Davidson diagonalization with overlap
     ethr =  3.62E-09,  avg # of iterations =  4.0

     total cpu time spent up to now is     6874.0 secs

     total energy              =    -706.20265766 Ry
     Harris-Foulkes estimate   =    -706.20265772 Ry
     estimated scf accuracy    <       0.00000023 Ry

     iteration #  8     ecut=    40.00 Ry     beta= 0.60
     Davidson diagonalization with overlap
     ethr =  3.02E-10,  avg # of iterations =  4.0

     total cpu time spent up to now is     6901.3 secs

     total energy              =    -706.20265770 Ry
     Harris-Foulkes estimate   =    -706.20265773 Ry
     estimated scf accuracy    <       0.00000017 Ry

     iteration #  9     ecut=    40.00 Ry     beta= 0.60
     Davidson diagonalization with overlap
     ethr =  2.25E-10,  avg # of iterations =  1.0

     total cpu time spent up to now is     6921.3 secs

     total energy              =    -706.20265770 Ry
     Harris-Foulkes estimate   =    -706.20265771 Ry
     estimated scf accuracy    <       0.00000003 Ry

     iteration # 10     ecut=    40.00 Ry     beta= 0.60
     Davidson diagonalization with overlap
     ethr =  3.95E-11,  avg # of iterations =  3.9

     total cpu time spent up to now is     6947.7 secs

     total energy              =    -706.20265771 Ry
     Harris-Foulkes estimate   =    -706.20265771 Ry
     estimated scf accuracy    <          2.6E-09 Ry

     iteration # 11     ecut=    40.00 Ry     beta= 0.60
     Davidson diagonalization with overlap
     ethr =  3.42E-12,  avg # of iterations =  2.3

     total cpu time spent up to now is     6969.2 secs

     total energy              =    -706.20265771 Ry
     Harris-Foulkes estimate   =    -706.20265771 Ry
     estimated scf accuracy    <          1.6E-10 Ry

     iteration # 12     ecut=    40.00 Ry     beta= 0.60
     Davidson diagonalization with overlap
     ethr =  2.13E-13,  avg # of iterations =  4.1

     total cpu time spent up to now is     6998.1 secs

     End of self-consistent calculation

     Number of k-points >= 100: set verbosity='high' to print the bands.

     the Fermi energy is    17.3289 ev

!    total energy              =    -706.20265771 Ry
     Harris-Foulkes estimate   =    -706.20265771 Ry
     estimated scf accuracy    <          5.7E-12 Ry

     The total energy is the sum of the following terms:

     one-electron contribution =    -124.76343860 Ry
     hartree contribution      =     100.40055554 Ry
     xc contribution           =    -106.70379092 Ry
     ewald contribution        =    -575.13524692 Ry
     smearing contrib. (-TS)   =      -0.00073682 Ry

     convergence has been achieved in  12 iterations

     Forces acting on atoms (cartesian axes, Ry/au):

     atom    1 type  2   force =     0.00000000    0.00000000    0.00000000
     atom    2 type  1   force =     0.00040646    0.00023467    0.00000000
     atom    3 type  1   force =     0.00000000    0.00000000   -0.00036882
     atom    4 type  1   force =    -0.00040646    0.00023467   -0.00000000
     atom    5 type  1   force =    -0.00000000    0.00000000    0.00036882
     atom    6 type  1   force =     0.00000000   -0.00046933    0.00000000

     Total force =     0.000966     Total SCF correction =     0.000002


     Computing stress (Cartesian axis) and pressure

          total   stress  (Ry/bohr**3)                   (kbar)     P=   20.67
   0.00005180   0.00000000  -0.00000000          7.62      0.00     -0.00
   0.00000000   0.00005180   0.00000000          0.00      7.62      0.00
   0.00000000   0.00000000   0.00031795          0.00      0.00     46.77


     number of scf cycles    =   5
     number of bfgs steps    =   4

     enthalpy old            =    -706.1990994382 Ry
     enthalpy new            =    -706.2026577099 Ry

     CASE: enthalpy_new < enthalpy_old

     new trust radius        =       0.1169032675 bohr
     new conv_thr            =            4.7E-11 Ry

     new unit-cell volume =    737.16590 a.u.^3 (   109.23671 Ang^3 )
     density =      7.78912 g/cm^3

CELL_PARAMETERS (alat=  1.88972599)
   2.858335633   0.000000000   5.146243876
  -1.429167817   2.475391464   5.146243876
  -1.429167817  -2.475391464   5.146243876

ATOMIC_POSITIONS (angstrom)
Ti      -0.000000000   0.000000000  10.292487751
Nb       0.011320631  -1.643726658   7.719365814
Nb      -0.000000000   0.000000000  15.437870364
Nb       1.417850045   0.831664806   7.719365814
Nb      -0.000000000   0.000000000   5.147105139
Nb      -1.429166387   0.812059376   7.719365814


     NEW-OLD atomic charge density approx. for the potential

     Check: negative/imaginary core charge=   -0.000001    0.000000
     extrapolated charge   77.48104, renormalised to   77.00000

     total cpu time spent up to now is     7009.1 secs

     Self-consistent Calculation

     iteration #  1     ecut=    40.00 Ry     beta= 0.60
     Davidson diagonalization with overlap
     c_bands:  1 eigenvalues not converged
     c_bands:  1 eigenvalues not converged
     c_bands:  1 eigenvalues not converged
     ethr =  1.00E-06,  avg # of iterations = 10.0

     total cpu time spent up to now is     7068.7 secs

     total energy              =    -706.19444255 Ry
     Harris-Foulkes estimate   =    -705.64476354 Ry
     estimated scf accuracy    <       0.00915679 Ry

     iteration #  2     ecut=    40.00 Ry     beta= 0.60
     Davidson diagonalization with overlap
     ethr =  1.19E-05,  avg # of iterations =  5.5

     total cpu time spent up to now is     7112.6 secs

     total energy              =    -706.18797555 Ry
     Harris-Foulkes estimate   =    -706.22651344 Ry
     estimated scf accuracy    <       0.28607467 Ry

     iteration #  3     ecut=    40.00 Ry     beta= 0.60
     Davidson diagonalization with overlap
     ethr =  1.19E-05,  avg # of iterations =  5.0

     total cpu time spent up to now is     7149.1 secs

     total energy              =    -706.20348441 Ry
     Harris-Foulkes estimate   =    -706.20818046 Ry
     estimated scf accuracy    <       0.01634858 Ry

     iteration #  4     ecut=    40.00 Ry     beta= 0.60
     Davidson diagonalization with overlap
     ethr =  1.19E-05,  avg # of iterations =  4.3

     total cpu time spent up to now is     7177.3 secs

     total energy              =    -706.20482848 Ry
     Harris-Foulkes estimate   =    -706.20766195 Ry
     estimated scf accuracy    <       0.02331112 Ry

     iteration #  5     ecut=    40.00 Ry     beta= 0.60
     Davidson diagonalization with overlap
     ethr =  1.19E-05,  avg # of iterations =  2.0

     total cpu time spent up to now is     7198.3 secs

     total energy              =    -706.20511418 Ry
     Harris-Foulkes estimate   =    -706.20585815 Ry
     estimated scf accuracy    <       0.00335360 Ry

     iteration #  6     ecut=    40.00 Ry     beta= 0.60
     Davidson diagonalization with overlap
     ethr =  4.36E-06,  avg # of iterations =  3.9

     total cpu time spent up to now is     7224.4 secs

     total energy              =    -706.20540432 Ry
     Harris-Foulkes estimate   =    -706.20546154 Ry
     estimated scf accuracy    <       0.00047978 Ry

     iteration #  7     ecut=    40.00 Ry     beta= 0.60
     Davidson diagonalization with overlap
     ethr =  6.23E-07,  avg # of iterations =  2.4

     total cpu time spent up to now is     7246.0 secs

     total energy              =    -706.20540431 Ry
     Harris-Foulkes estimate   =    -706.20542858 Ry
     estimated scf accuracy    <       0.00018071 Ry

     iteration #  8     ecut=    40.00 Ry     beta= 0.60
     Davidson diagonalization with overlap
     ethr =  2.35E-07,  avg # of iterations =  3.0

     total cpu time spent up to now is     7269.4 secs

     total energy              =    -706.20541488 Ry
     Harris-Foulkes estimate   =    -706.20541846 Ry
     estimated scf accuracy    <       0.00001509 Ry

     iteration #  9     ecut=    40.00 Ry     beta= 0.60
     Davidson diagonalization with overlap
     ethr =  1.96E-08,  avg # of iterations =  3.8

     total cpu time spent up to now is     7297.7 secs

     total energy              =    -706.20541847 Ry
     Harris-Foulkes estimate   =    -706.20541905 Ry
     estimated scf accuracy    <       0.00000359 Ry

     iteration # 10     ecut=    40.00 Ry     beta= 0.60
     Davidson diagonalization with overlap
     ethr =  4.67E-09,  avg # of iterations =  1.5

     total cpu time spent up to now is     7318.1 secs

     total energy              =    -706.20541864 Ry
     Harris-Foulkes estimate   =    -706.20541870 Ry
     estimated scf accuracy    <       0.00000050 Ry

     iteration # 11     ecut=    40.00 Ry     beta= 0.60
     Davidson diagonalization with overlap
     ethr =  6.49E-10,  avg # of iterations =  3.8

     total cpu time spent up to now is     7345.1 secs

     total energy              =    -706.20541872 Ry
     Harris-Foulkes estimate   =    -706.20541872 Ry
     estimated scf accuracy    <          8.9E-09 Ry

     iteration # 12     ecut=    40.00 Ry     beta= 0.60
     Davidson diagonalization with overlap
     ethr =  1.16E-11,  avg # of iterations =  3.9

     total cpu time spent up to now is     7374.6 secs

     total energy              =    -706.20541872 Ry
     Harris-Foulkes estimate   =    -706.20541873 Ry
     estimated scf accuracy    <          2.8E-09 Ry

     iteration # 13     ecut=    40.00 Ry     beta= 0.60
     Davidson diagonalization with overlap
     ethr =  3.60E-12,  avg # of iterations =  1.3

     total cpu time spent up to now is     7394.7 secs

     total energy              =    -706.20541872 Ry
     Harris-Foulkes estimate   =    -706.20541872 Ry
     estimated scf accuracy    <          4.8E-10 Ry

     iteration # 14     ecut=    40.00 Ry     beta= 0.60
     Davidson diagonalization with overlap
     ethr =  6.19E-13,  avg # of iterations =  3.4

     total cpu time spent up to now is     7421.2 secs

     total energy              =    -706.20541872 Ry
     Harris-Foulkes estimate   =    -706.20541872 Ry
     estimated scf accuracy    <          1.4E-10 Ry

     iteration # 15     ecut=    40.00 Ry     beta= 0.60
     Davidson diagonalization with overlap
     ethr =  1.79E-13,  avg # of iterations =  2.0

     total cpu time spent up to now is     7442.2 secs

     End of self-consistent calculation

     Number of k-points >= 100: set verbosity='high' to print the bands.

     the Fermi energy is    17.1890 ev

!    total energy              =    -706.20541872 Ry
     Harris-Foulkes estimate   =    -706.20541872 Ry
     estimated scf accuracy    <          2.2E-12 Ry

     The total energy is the sum of the following terms:

     one-electron contribution =    -127.35655678 Ry
     hartree contribution      =     101.31347443 Ry
     xc contribution           =    -106.68588213 Ry
     ewald contribution        =    -573.47522431 Ry
     smearing contrib. (-TS)   =      -0.00122994 Ry

     convergence has been achieved in  15 iterations

     Forces acting on atoms (cartesian axes, Ry/au):

     atom    1 type  2   force =    -0.00000000    0.00000000    0.00000000
     atom    2 type  1   force =    -0.00169037   -0.00097594   -0.00000000
     atom    3 type  1   force =     0.00000000   -0.00000000   -0.00013059
     atom    4 type  1   force =     0.00169037   -0.00097594    0.00000000
     atom    5 type  1   force =    -0.00000000    0.00000000    0.00013059
     atom    6 type  1   force =     0.00000000    0.00195187    0.00000000

     Total force =     0.003386     Total SCF correction =     0.000000


     Computing stress (Cartesian axis) and pressure

          total   stress  (Ry/bohr**3)                   (kbar)     P=   10.97
   0.00005876   0.00000000  -0.00000000          8.64      0.00     -0.00
   0.00000000   0.00005876   0.00000000          0.00      8.64      0.00
  -0.00000000  -0.00000000   0.00010620         -0.00     -0.00     15.62


     number of scf cycles    =   6
     number of bfgs steps    =   5

     enthalpy old            =    -706.2026577099 Ry
     enthalpy new            =    -706.2054187248 Ry

     CASE: enthalpy_new < enthalpy_old

     new trust radius        =       0.0332463204 bohr
     new conv_thr            =            1.0E-10 Ry

     new unit-cell volume =    741.86931 a.u.^3 (   109.93369 Ang^3 )
     density =      7.73974 g/cm^3

CELL_PARAMETERS (alat=  1.88972599)
   2.858701895   0.000000000   5.177751912
  -1.429350947   2.475708656   5.177751912
  -1.429350947  -2.475708656   5.177751912

ATOMIC_POSITIONS (angstrom)
Ti      -0.000000000   0.000000000  10.355503824
Nb       0.010877651  -1.644193874   7.766627868
Nb      -0.000000000   0.000000000  15.532196775
Nb       1.418476156   0.831514782   7.766627868
Nb      -0.000000000   0.000000000   5.178810874
Nb      -1.429349518   0.812676616   7.766627868


     NEW-OLD atomic charge density approx. for the potential

     Check: negative/imaginary core charge=   -0.000001    0.000000
     extrapolated charge   77.48175, renormalised to   77.00000

     total cpu time spent up to now is     7453.2 secs

     Self-consistent Calculation

     iteration #  1     ecut=    40.00 Ry     beta= 0.60
     Davidson diagonalization with overlap
     c_bands:  1 eigenvalues not converged
     c_bands:  1 eigenvalues not converged
     ethr =  1.00E-06,  avg # of iterations =  6.1

     total cpu time spent up to now is     7498.1 secs

     total energy              =    -706.19321557 Ry
     Harris-Foulkes estimate   =    -705.63645969 Ry
     estimated scf accuracy    <       0.01033089 Ry

     iteration #  2     ecut=    40.00 Ry     beta= 0.60
     Davidson diagonalization with overlap
     c_bands:  1 eigenvalues not converged
     c_bands:  1 eigenvalues not converged
     c_bands:  1 eigenvalues not converged
     ethr =  1.34E-05,  avg # of iterations =  7.0

     total cpu time spent up to now is     7543.4 secs

     total energy              =    -706.18008220 Ry
     Harris-Foulkes estimate   =    -706.23450390 Ry
     estimated scf accuracy    <       0.46091855 Ry

     iteration #  3     ecut=    40.00 Ry     beta= 0.60
     Davidson diagonalization with overlap
     ethr =  1.34E-05,  avg # of iterations =  5.4

     total cpu time spent up to now is     7580.7 secs

     total energy              =    -706.20420101 Ry
     Harris-Foulkes estimate   =    -706.20847786 Ry
     estimated scf accuracy    <       0.01355575 Ry

     iteration #  4     ecut=    40.00 Ry     beta= 0.60
     Davidson diagonalization with overlap
     ethr =  1.34E-05,  avg # of iterations =  3.7

     total cpu time spent up to now is     7606.8 secs

     total energy              =    -706.20514392 Ry
     Harris-Foulkes estimate   =    -706.20773772 Ry
     estimated scf accuracy    <       0.01990257 Ry

     iteration #  5     ecut=    40.00 Ry     beta= 0.60
     Davidson diagonalization with overlap
     ethr =  1.34E-05,  avg # of iterations =  1.7

     total cpu time spent up to now is     7627.4 secs

     total energy              =    -706.20574766 Ry
     Harris-Foulkes estimate   =    -706.20614752 Ry
     estimated scf accuracy    <       0.00295879 Ry

     iteration #  6     ecut=    40.00 Ry     beta= 0.60
     Davidson diagonalization with overlap
     ethr =  3.84E-06,  avg # of iterations =  3.1

     total cpu time spent up to now is     7650.0 secs

     total energy              =    -706.20565766 Ry
     Harris-Foulkes estimate   =    -706.20587295 Ry
     estimated scf accuracy    <       0.00134500 Ry

     iteration #  7     ecut=    40.00 Ry     beta= 0.60
     Davidson diagonalization with overlap
     ethr =  1.75E-06,  avg # of iterations =  3.0

     total cpu time spent up to now is     7672.6 secs

     total energy              =    -706.20566317 Ry
     Harris-Foulkes estimate   =    -706.20572072 Ry
     estimated scf accuracy    <       0.00041870 Ry

     iteration #  8     ecut=    40.00 Ry     beta= 0.60
     Davidson diagonalization with overlap
     ethr =  5.44E-07,  avg # of iterations =  2.8

     total cpu time spent up to now is     7695.3 secs

     total energy              =    -706.20568549 Ry
     Harris-Foulkes estimate   =    -706.20569186 Ry
     estimated scf accuracy    <       0.00007099 Ry

     iteration #  9     ecut=    40.00 Ry     beta= 0.60
     Davidson diagonalization with overlap
     ethr =  9.22E-08,  avg # of iterations =  3.4

     total cpu time spent up to now is     7719.2 secs

     total energy              =    -706.20568944 Ry
     Harris-Foulkes estimate   =    -706.20569075 Ry
     estimated scf accuracy    <       0.00002043 Ry

     iteration # 10     ecut=    40.00 Ry     beta= 0.60
     Davidson diagonalization with overlap
     ethr =  2.65E-08,  avg # of iterations =  2.2

     total cpu time spent up to now is     7740.7 secs

     total energy              =    -706.20568800 Ry
     Harris-Foulkes estimate   =    -706.20569023 Ry
     estimated scf accuracy    <       0.00001108 Ry

     iteration # 11     ecut=    40.00 Ry     beta= 0.60
     Davidson diagonalization with overlap
     ethr =  1.44E-08,  avg # of iterations =  3.3

     total cpu time spent up to now is     7765.2 secs

     total energy              =    -706.20568930 Ry
     Harris-Foulkes estimate   =    -706.20568934 Ry
     estimated scf accuracy    <       0.00000053 Ry

     iteration # 12     ecut=    40.00 Ry     beta= 0.60
     Davidson diagonalization with overlap
     ethr =  6.83E-10,  avg # of iterations =  3.5

     total cpu time spent up to now is     7792.0 secs

     total energy              =    -706.20568937 Ry
     Harris-Foulkes estimate   =    -706.20568940 Ry
     estimated scf accuracy    <       0.00000020 Ry

     iteration # 13     ecut=    40.00 Ry     beta= 0.60
     Davidson diagonalization with overlap
     ethr =  2.60E-10,  avg # of iterations =  2.4

     total cpu time spent up to now is     7814.0 secs

     total energy              =    -706.20568938 Ry
     Harris-Foulkes estimate   =    -706.20568938 Ry
     estimated scf accuracy    <          1.8E-09 Ry

     iteration # 14     ecut=    40.00 Ry     beta= 0.60
     Davidson diagonalization with overlap
     ethr =  2.32E-12,  avg # of iterations =  4.8

     total cpu time spent up to now is     7850.4 secs

     total energy              =    -706.20568939 Ry
     Harris-Foulkes estimate   =    -706.20568939 Ry
     estimated scf accuracy    <          3.5E-09 Ry

     iteration # 15     ecut=    40.00 Ry     beta= 0.60
     Davidson diagonalization with overlap
     ethr =  2.32E-12,  avg # of iterations =  1.0

     total cpu time spent up to now is     7870.2 secs

     total energy              =    -706.20568939 Ry
     Harris-Foulkes estimate   =    -706.20568939 Ry
     estimated scf accuracy    <          1.0E-09 Ry

     iteration # 16     ecut=    40.00 Ry     beta= 0.60
     Davidson diagonalization with overlap
     ethr =  1.35E-12,  avg # of iterations =  3.0

     total cpu time spent up to now is     7894.1 secs

[...]
        Nb            13.00    92.90638     Nb( 1.00)
        Ti            12.00    47.86700     Ti( 1.00)

      6 Sym. Ops. (no inversion) found ( 3 have fractional translation)



   Cartesian axes

     site n.     atom                  positions (alat units)
         1           Ti  tau(   1) = (  -0.0000000   0.0000000  10.3613608  )
         2           Nb  tau(   2) = (   0.0051696  -1.6477631   7.7710206  )
         3           Nb  tau(   3) = (  -0.0000000   0.0000000  15.5331124  )
         4           Nb  tau(   4) = (   1.4244212   0.8283561   7.7710206  )
         5           Nb  tau(   5) = (  -0.0000000   0.0000000   5.1896092  )
         6           Nb  tau(   6) = (  -1.4295865   0.8194045   7.7710206  )

     number of k points=   189  Marzari-Vanderbilt smearing, width (Ry)=  0.0200

     Number of k-points >= 100: set verbosity='high' to print them.

     Dense  grid:   100383 G-vectors     FFT dimensions: (  72,  72,  72)

     Smooth grid:    25353 G-vectors     FFT dimensions: (  45,  45,  45)

     Estimated max dynamical RAM per process >     206.75 MB

     Estimated total dynamical RAM >     827.01 MB

     Check: negative/imaginary core charge=   -0.000001    0.000000

     Initial potential from superposition of free atoms

     starting charge   75.98629, renormalised to   77.00000
     Starting wfcs are   75 randomized atomic wfcs

     total cpu time spent up to now is    12014.3 secs

     Self-consistent Calculation

     iteration #  1     ecut=    40.00 Ry     beta= 0.60
     Davidson diagonalization with overlap
     ethr =  1.00E-06,  avg # of iterations = 11.3

     total cpu time spent up to now is    12104.1 secs

     total energy              =    -689.02248529 Ry
     Harris-Foulkes estimate   =    -708.18292171 Ry
     estimated scf accuracy    <      24.02892701 Ry

     iteration #  2     ecut=    40.00 Ry     beta= 0.60
     Davidson diagonalization with overlap
     ethr =  1.00E-02,  avg # of iterations =  5.7

     total cpu time spent up to now is    12150.1 secs

     total energy              =    -690.10395847 Ry
     Harris-Foulkes estimate   =    -733.24412261 Ry
     estimated scf accuracy    <     146.64445112 Ry

     iteration #  3     ecut=    40.00 Ry     beta= 0.60
     Davidson diagonalization with overlap
     ethr =  1.00E-02,  avg # of iterations =  5.1

     total cpu time spent up to now is    12189.8 secs

     total energy              =    -704.55906569 Ry
     Harris-Foulkes estimate   =    -713.90435469 Ry
     estimated scf accuracy    <      48.29832736 Ry

     iteration #  4     ecut=    40.00 Ry     beta= 0.60
     Davidson diagonalization with overlap
     ethr =  1.00E-02,  avg # of iterations =  2.3

     total cpu time spent up to now is    12212.3 secs

     total energy              =    -707.68732114 Ry
     Harris-Foulkes estimate   =    -707.74164865 Ry
     estimated scf accuracy    <       5.11977967 Ry

     iteration #  5     ecut=    40.00 Ry     beta= 0.60
     Davidson diagonalization with overlap
     ethr =  6.65E-03,  avg # of iterations =  1.0

     total cpu time spent up to now is    12231.2 secs

     total energy              =    -707.12083433 Ry
     Harris-Foulkes estimate   =    -707.71683085 Ry
     estimated scf accuracy    <       4.99599967 Ry

     iteration #  6     ecut=    40.00 Ry     beta= 0.60
     Davidson diagonalization with overlap
     ethr =  6.49E-03,  avg # of iterations =  1.0

     total cpu time spent up to now is    12250.9 secs

     total energy              =    -706.10975777 Ry
     Harris-Foulkes estimate   =    -707.15785294 Ry
     estimated scf accuracy    <       3.68859015 Ry

     iteration #  7     ecut=    40.00 Ry     beta= 0.60
     Davidson diagonalization with overlap
     ethr =  4.79E-03,  avg # of iterations =  2.3

     total cpu time spent up to now is    12273.0 secs

     total energy              =    -706.27629219 Ry
     Harris-Foulkes estimate   =    -706.26354804 Ry
     estimated scf accuracy    <       1.12657772 Ry

     iteration #  8     ecut=    40.00 Ry     beta= 0.60
     Davidson diagonalization with overlap
     ethr =  1.46E-03,  avg # of iterations =  4.4

     total cpu time spent up to now is    12297.0 secs

     total energy              =    -706.25163236 Ry
     Harris-Foulkes estimate   =    -706.32628795 Ry
     estimated scf accuracy    <       0.86156033 Ry

     iteration #  9     ecut=    40.00 Ry     beta= 0.60
     Davidson diagonalization with overlap
     ethr =  1.12E-03,  avg # of iterations =  2.3

     total cpu time spent up to now is    12317.4 secs

     total energy              =    -706.20082294 Ry
     Harris-Foulkes estimate   =    -706.27216094 Ry
     estimated scf accuracy    <       0.45505360 Ry

     iteration # 10     ecut=    40.00 Ry     beta= 0.60
     Davidson diagonalization with overlap
     ethr =  5.91E-04,  avg # of iterations =  4.1

     total cpu time spent up to now is    12344.5 secs

     total energy              =    -706.46110508 Ry
     Harris-Foulkes estimate   =    -706.27034587 Ry
     estimated scf accuracy    <       0.28175904 Ry

     iteration # 11     ecut=    40.00 Ry     beta= 0.60
     Davidson diagonalization with overlap
     ethr =  3.66E-04,  avg # of iterations =  4.7

     total cpu time spent up to now is    12378.9 secs

     total energy              =    -705.98628019 Ry
     Harris-Foulkes estimate   =    -707.59304636 Ry
     estimated scf accuracy    <      21.54465863 Ry

     iteration # 12     ecut=    40.00 Ry     beta= 0.60
     Davidson diagonalization with overlap
     ethr =  3.66E-04,  avg # of iterations =  4.7

     total cpu time spent up to now is    12411.0 secs

     total energy              =    -706.23683440 Ry
     Harris-Foulkes estimate   =    -706.40216175 Ry
     estimated scf accuracy    <       3.45626396 Ry

     iteration # 13     ecut=    40.00 Ry     beta= 0.60
     Davidson diagonalization with overlap
     ethr =  3.66E-04,  avg # of iterations =  1.4

     total cpu time spent up to now is    12430.9 secs

     total energy              =    -705.85479528 Ry
     Harris-Foulkes estimate   =    -706.27021693 Ry
     estimated scf accuracy    <       1.17749921 Ry

     iteration # 14     ecut=    40.00 Ry     beta= 0.60
     Davidson diagonalization with overlap
     ethr =  3.66E-04,  avg # of iterations =  7.0

     total cpu time spent up to now is    12468.9 secs

     total energy              =    -706.65002292 Ry
     Harris-Foulkes estimate   =    -706.43793096 Ry
     estimated scf accuracy    <       1.51411319 Ry

     iteration # 15     ecut=    40.00 Ry     beta= 0.60
     Davidson diagonalization with overlap
     ethr =  3.66E-04,  avg # of iterations =  2.5

     total cpu time spent up to now is    12489.9 secs

     total energy              =    -706.50494396 Ry
     Harris-Foulkes estimate   =    -706.66446110 Ry
     estimated scf accuracy    <       2.16867092 Ry

     iteration # 16     ecut=    40.00 Ry     beta= 0.60
     Davidson diagonalization with overlap
     ethr =  3.66E-04,  avg # of iterations =  1.0

     total cpu time spent up to now is    13322.9 secs

     total energy              =    -706.34392674 Ry
     Harris-Foulkes estimate   =    -706.51017181 Ry
     estimated scf accuracy    <       1.78047891 Ry

     iteration # 17     ecut=    40.00 Ry     beta= 0.60
     Davidson diagonalization with overlap
     ethr =  3.66E-04,  avg # of iterations =  2.2

     total cpu time spent up to now is    13343.9 secs

     total energy              =    -706.30635928 Ry
     Harris-Foulkes estimate   =    -706.35513265 Ry
     estimated scf accuracy    <       1.22374686 Ry

     iteration # 18     ecut=    40.00 Ry     beta= 0.60
     Davidson diagonalization with overlap
     ethr =  3.66E-04,  avg # of iterations =  1.3

     total cpu time spent up to now is    13364.4 secs

     total energy              =    -706.25357738 Ry
     Harris-Foulkes estimate   =    -706.30997658 Ry
     estimated scf accuracy    <       1.02914578 Ry

     iteration # 19     ecut=    40.00 Ry     beta= 0.60
     Davidson diagonalization with overlap
     ethr =  3.66E-04,  avg # of iterations =  2.3

     total cpu time spent up to now is    13387.2 secs

     total energy              =    -706.24360997 Ry
     Harris-Foulkes estimate   =    -706.26005266 Ry
     estimated scf accuracy    <       0.72571330 Ry

     iteration # 20     ecut=    40.00 Ry     beta= 0.60
     Davidson diagonalization with overlap
     ethr =  3.66E-04,  avg # of iterations =  1.8

     total cpu time spent up to now is    13407.7 secs

     total energy              =    -706.26060875 Ry
     Harris-Foulkes estimate   =    -706.24853108 Ry
     estimated scf accuracy    <       0.58035684 Ry

     iteration # 21     ecut=    40.00 Ry     beta= 0.60
     Davidson diagonalization with overlap
     ethr =  3.66E-04,  avg # of iterations =  1.0

     total cpu time spent up to now is    13427.5 secs

     total energy              =    -706.28693059 Ry
     Harris-Foulkes estimate   =    -706.26226206 Ry
     estimated scf accuracy    <       0.60257057 Ry

     iteration # 22     ecut=    40.00 Ry     beta= 0.60
     Davidson diagonalization with overlap
     ethr =  3.66E-04,  avg # of iterations =  1.0

     total cpu time spent up to now is    13449.0 secs

     total energy              =    -706.16279578 Ry
     Harris-Foulkes estimate   =    -706.29048305 Ry
     estimated scf accuracy    <       0.74004092 Ry

     iteration # 23     ecut=    40.00 Ry     beta= 0.60
     Davidson diagonalization with overlap
     ethr =  3.66E-04,  avg # of iterations =  4.4

     total cpu time spent up to now is    13479.7 secs

     total energy              =    -706.20897555 Ry
     Harris-Foulkes estimate   =    -706.20617028 Ry
     estimated scf accuracy    <       0.02419315 Ry

     iteration # 24     ecut=    40.00 Ry     beta= 0.60
     Davidson diagonalization with overlap
     ethr =  3.14E-05,  avg # of iterations =  3.9

     total cpu time spent up to now is    13509.4 secs

     total energy              =    -706.20160081 Ry
     Harris-Foulkes estimate   =    -706.21120607 Ry
     estimated scf accuracy    <       0.07501605 Ry

     iteration # 25     ecut=    40.00 Ry     beta= 0.60
     Davidson diagonalization with overlap
     ethr =  3.14E-05,  avg # of iterations =  3.2

     total cpu time spent up to now is    13532.3 secs

     total energy              =    -706.20267752 Ry
     Harris-Foulkes estimate   =    -706.20432833 Ry
     estimated scf accuracy    <       0.00990010 Ry

     iteration # 26     ecut=    40.00 Ry     beta= 0.60
     Davidson diagonalization with overlap
     ethr =  1.29E-05,  avg # of iterations =  5.0

     total cpu time spent up to now is    14170.9 secs

     total energy              =    -706.20422355 Ry
     Harris-Foulkes estimate   =    -706.20452211 Ry
     estimated scf accuracy    <       0.00266109 Ry

     iteration # 27     ecut=    40.00 Ry     beta= 0.60
     Davidson diagonalization with overlap
     ethr =  3.46E-06,  avg # of iterations =  1.2

     total cpu time spent up to now is    14190.0 secs

     total energy              =    -706.20413119 Ry
     Harris-Foulkes estimate   =    -706.20431011 Ry
     estimated scf accuracy    <       0.00044558 Ry

     iteration # 28     ecut=    40.00 Ry     beta= 0.60
     Davidson diagonalization with overlap
     ethr =  5.79E-07,  avg # of iterations =  4.8

     total cpu time spent up to now is    14220.6 secs

     total energy              =    -706.20420038 Ry
     Harris-Foulkes estimate   =    -706.20454906 Ry
     estimated scf accuracy    <       0.00325765 Ry

     iteration # 29     ecut=    40.00 Ry     beta= 0.60
     Davidson diagonalization with overlap
     ethr =  5.79E-07,  avg # of iterations =  3.9

     total cpu time spent up to now is    14244.8 secs

     total energy              =    -706.20426891 Ry
     Harris-Foulkes estimate   =    -706.20431872 Ry
     estimated scf accuracy    <       0.00024325 Ry

     iteration # 30     ecut=    40.00 Ry     beta= 0.60
     Davidson diagonalization with overlap
     ethr =  3.16E-07,  avg # of iterations =  3.5

     total cpu time spent up to now is    14267.0 secs

     total energy              =    -706.20429472 Ry
     Harris-Foulkes estimate   =    -706.20430169 Ry
     estimated scf accuracy    <       0.00002283 Ry

     iteration # 31     ecut=    40.00 Ry     beta= 0.60
     Davidson diagonalization with overlap
     ethr =  2.96E-08,  avg # of iterations =  4.1

     total cpu time spent up to now is    14294.1 secs

     total energy              =    -706.20430131 Ry
     Harris-Foulkes estimate   =    -706.20430362 Ry
     estimated scf accuracy    <       0.00001209 Ry

     iteration # 32     ecut=    40.00 Ry     beta= 0.60
     Davidson diagonalization with overlap
     ethr =  1.57E-08,  avg # of iterations =  2.7

     total cpu time spent up to now is    14314.9 secs

     total energy              =    -706.20430255 Ry
     Harris-Foulkes estimate   =    -706.20430256 Ry
     estimated scf accuracy    <       0.00000022 Ry

     iteration # 33     ecut=    40.00 Ry     beta= 0.60
     Davidson diagonalization with overlap
     ethr =  2.86E-10,  avg # of iterations =  4.9

     total cpu time spent up to now is    14346.5 secs

     total energy              =    -706.20430280 Ry
     Harris-Foulkes estimate   =    -706.20430285 Ry
     estimated scf accuracy    <       0.00000122 Ry

     iteration # 34     ecut=    40.00 Ry     beta= 0.60
     Davidson diagonalization with overlap
     ethr =  2.86E-10,  avg # of iterations =  1.0

     total cpu time spent up to now is    14365.5 secs

     total energy              =    -706.20430269 Ry
     Harris-Foulkes estimate   =    -706.20430281 Ry
     estimated scf accuracy    <       0.00000085 Ry

     iteration # 35     ecut=    40.00 Ry     beta= 0.60
     Davidson diagonalization with overlap
     ethr =  2.86E-10,  avg # of iterations =  3.7

     total cpu time spent up to now is    14390.5 secs

     total energy              =    -706.20430275 Ry
     Harris-Foulkes estimate   =    -706.20430275 Ry
     estimated scf accuracy    <          4.1E-09 Ry

     iteration # 36     ecut=    40.00 Ry     beta= 0.60
     Davidson diagonalization with overlap
     ethr =  5.32E-12,  avg # of iterations =  3.7

     total cpu time spent up to now is    14415.2 secs

     total energy              =    -706.20430275 Ry
     Harris-Foulkes estimate   =    -706.20430275 Ry
     estimated scf accuracy    <          2.5E-10 Ry

     iteration # 37     ecut=    40.00 Ry     beta= 0.60
     Davidson diagonalization with overlap
     ethr =  3.23E-13,  avg # of iterations =  3.9

     total cpu time spent up to now is    14440.3 secs

     total energy              =    -706.20430275 Ry
     Harris-Foulkes estimate   =    -706.20430275 Ry
     estimated scf accuracy    <          2.5E-10 Ry

     iteration # 38     ecut=    40.00 Ry     beta= 0.60
     Davidson diagonalization with overlap
     ethr =  3.22E-13,  avg # of iterations =  3.3

     total cpu time spent up to now is    14462.8 secs

     total energy              =    -706.20430275 Ry
     Harris-Foulkes estimate   =    -706.20430275 Ry
     estimated scf accuracy    <          2.1E-11 Ry

     iteration # 39     ecut=    40.00 Ry     beta= 0.60
     Davidson diagonalization with overlap
     ethr =  1.00E-13,  avg # of iterations =  1.9

     total cpu time spent up to now is    14482.8 secs

     End of self-consistent calculation

     Number of k-points >= 100: set verbosity='high' to print the bands.

     the Fermi energy is    17.0426 ev

!    total energy              =    -706.20430275 Ry
     Harris-Foulkes estimate   =    -706.20430275 Ry
     estimated scf accuracy    <          2.8E-13 Ry

     The total energy is the sum of the following terms:

     one-electron contribution =    -129.55940051 Ry
     hartree contribution      =     101.97171156 Ry
     xc contribution           =    -106.64497529 Ry
     ewald contribution        =    -571.97032974 Ry
     smearing contrib. (-TS)   =      -0.00130876 Ry

     convergence has been achieved in  39 iterations

     Forces acting on atoms (cartesian axes, Ry/au):

     atom    1 type  2   force =     0.00000000    0.00000000    0.00000000
     atom    2 type  1   force =     0.00000069    0.00000040    0.00000000
     atom    3 type  1   force =    -0.00000000    0.00000000    0.00000428
     atom    4 type  1   force =    -0.00000069    0.00000040   -0.00000000
     atom    5 type  1   force =     0.00000000    0.00000000   -0.00000428
     atom    6 type  1   force =     0.00000000   -0.00000080    0.00000000

     Total force =     0.000006     Total SCF correction =     0.000001


     Computing stress (Cartesian axis) and pressure

          total   stress  (Ry/bohr**3)                   (kbar)     P=   -0.01
  -0.00000158   0.00000000  -0.00000000         -0.23      0.00     -0.00
   0.00000000  -0.00000158   0.00000000          0.00     -0.23      0.00
  -0.00000000   0.00000000   0.00000296         -0.00      0.00      0.43

 
     init_run     :     25.23s CPU     25.70s WALL (       2 calls)
     electrons    :   8659.24s CPU  14206.32s WALL (      19 calls)
     update_pot   :     23.58s CPU     36.05s WALL (      17 calls)
     forces       :     48.81s CPU     50.55s WALL (      19 calls)
     stress       :    122.67s CPU    127.77s WALL (      19 calls)

     Called by init_run:
     wfcinit      :     22.90s CPU     23.27s WALL (       2 calls)
     potinit      :      0.70s CPU      0.71s WALL (       2 calls)
     hinit0       :      1.27s CPU      1.27s WALL (       2 calls)

     Called by electrons:
     c_bands      :   7382.98s CPU  12798.44s WALL (     329 calls)
     sum_band     :   1203.70s CPU   1242.90s WALL (     329 calls)
     v_of_rho     :     16.18s CPU     16.28s WALL (     339 calls)
     newd         :     52.81s CPU     81.30s WALL (     339 calls)
     mix_rho      :      1.81s CPU      1.81s WALL (     329 calls)

     Called by c_bands:
     init_us_2    :     79.98s CPU     80.24s WALL (  131922 calls)
     cegterg      :   6883.16s CPU   6959.80s WALL (   62181 calls)

     Called by sum_band:
     sum_band:bec :      3.00s CPU      2.97s WALL (   62181 calls)
     addusdens    :     60.95s CPU     86.47s WALL (     329 calls)

     Called by *egterg:
     h_psi        :   4819.00s CPU   4890.08s WALL (  265953 calls)
     s_psi        :    183.44s CPU    183.69s WALL (  265953 calls)
     g_psi        :     31.83s CPU     31.80s WALL (  203394 calls)
     cdiaghg      :   1145.09s CPU   1147.22s WALL (  260661 calls)

     Called by h_psi:
     h_psi:pot    :   4804.19s CPU   4874.95s WALL (  265953 calls)
     h_psi:calbec :    204.92s CPU    205.53s WALL (  265953 calls)
     vloc_psi     :   4412.45s CPU   4481.13s WALL (  265953 calls)
     add_vuspsi   :    185.70s CPU    186.84s WALL (  265953 calls)

     General routines
     calbec       :    300.02s CPU    300.72s WALL (  346089 calls)
     fft          :     10.21s CPU     10.35s WALL (    4889 calls)
     ffts         :      0.36s CPU      0.36s WALL (     668 calls)
     fftw         :   4860.17s CPU   4921.73s WALL (17796777 calls)
     interpolate  :      0.91s CPU      0.92s WALL (     339 calls)
 
     Parallel routines
     fft_scatt_xy :    928.19s CPU    930.52s WALL (17802334 calls)
     fft_scatt_yz :    868.52s CPU    881.21s WALL (17802334 calls)
 
     PWSCF        :     2h28m CPU       28h 4m WALL

       1h
 
   This run was terminated on:  16:35: 8  25Jan2020            

=------------------------------------------------------------------------------=
   JOB DONE.
=------------------------------------------------------------------------------=
