
     Program PWSCF v.6.0 (svn rev. 13079) starts on  8May2018 at 20:22:27 

     This program is part of the open-source Quantum ESPRESSO suite
     for quantum simulation of materials; please cite
         "P. Giannozzi et al., J. Phys.:Condens. Matter 21 395502 (2009);
          URL http://www.quantum-espresso.org", 
     in publications or presentations arising from this work. More details at
     http://www.quantum-espresso.org/quote

     Parallel version (MPI), running on     4 processors
     R & G space division:  proc/nbgrp/npool/nimage =       4
     Waiting for input...
     Reading input from standard input

     Current dimensions of program PWSCF are:
     Max number of different atomic species (ntypx) = 10
     Max number of k-points (npk) =  40000
     Max angular momentum in pseudopotentials (lmaxx) =  3

     Subspace diagonalization in iterative solution of the eigenvalue problem:
     a serial algorithm will be used


     Parallelization info
     --------------------
     sticks:   dense  smooth     PW     G-vecs:    dense   smooth      PW
     Min        1073     428    156                27702     7013    1564
     Max        1074     429    157                27703     7014    1565
     Sum        4295    1715    627               110809    28053    6257



     bravais-lattice index     =            0
     lattice parameter (alat)  =       1.8897  a.u.
     unit-cell volume          =     586.6735 (a.u.)^3
     number of atoms/cell      =            4
     number of atomic types    =            2
     number of electrons       =        51.00
     number of Kohn-Sham states=           31
     kinetic-energy cutoff     =      50.0000  Ry
     charge density cutoff     =     500.0000  Ry
     convergence threshold     =      1.0E-10
     mixing beta               =       0.6000
     number of iterations used =            8  plain     mixing
     Exchange-correlation      = SLA  PW   PBE  PBE ( 1  4  3  4 0 0)
     nstep                     =           50


     celldm(1)=   1.889726  celldm(2)=   0.000000  celldm(3)=   0.000000
     celldm(4)=   0.000000  celldm(5)=   0.000000  celldm(6)=   0.000000

     crystal axes: (cart. coord. in units of alat)
               a(1) = (  -5.274095   1.758031   1.758031 )  
               a(2) = (   1.758031   1.758031  -5.274095 )  
               a(3) = (   1.758031  -5.274095   1.758031 )  

     reciprocal axes: (cart. coord. in units 2 pi/alat)
               b(1) = ( -0.284409 -0.142205 -0.142205 )  
               b(2) = ( -0.142205 -0.142205 -0.284409 )  
               b(3) = ( -0.142205 -0.284409 -0.142205 )  


     PseudoPot. # 1 for Nb read from file:
     ./Nb.pbe-nsp-van.UPF
     MD5 check sum: 0a22fc7fb0ba19a08ca5db297a5d2854
     Pseudo is Ultrasoft + core correction, Zval = 13.0
     Generated by new atomic code, or converted to UPF format
     Using radial grid of  887 points,  6 beta functions with: 
                l(1) =   0
                l(2) =   0
                l(3) =   1
                l(4) =   1
                l(5) =   2
                l(6) =   2
     Q(r) pseudized with  6 coefficients,  rinner =    1.000   1.000   1.000
                                                       1.000   1.000

     PseudoPot. # 2 for Ti read from file:
     ./Ti.pbe-sp-van_ak.UPF
     MD5 check sum: f98fea3e8887528921fefa5636a534ca
     Pseudo is Ultrasoft, Zval = 12.0
     Generated by new atomic code, or converted to UPF format
     Using radial grid of  851 points,  6 beta functions with: 
                l(1) =   0
                l(2) =   0
                l(3) =   1
                l(4) =   1
                l(5) =   2
                l(6) =   2
     Q(r) pseudized with  8 coefficients,  rinner =    1.000   1.000   1.000
                                                       1.000   1.000

     atomic species   valence    mass     pseudopotential
        Nb            13.00    92.90638     Nb( 1.00)
        Ti            12.00    47.86700     Ti( 1.00)

     12 Sym. Ops., with inversion, found ( 8 have fractional translation)



   Cartesian axes

     site n.     atom                  positions (alat units)
         1           Ti  tau(   1) = (   0.0000000   0.0000000  -3.5160633  )
         2           Nb  tau(   2) = (   0.0000000  -3.5160633   0.0000000  )
         3           Nb  tau(   3) = (  -3.5160633   0.0000000   0.0000000  )
         4           Nb  tau(   4) = (  -1.7580316  -1.7580316  -1.7580316  )

     number of k points=   231  Marzari-Vanderbilt smearing, width (Ry)=  0.0200

     Number of k-points >= 100: set verbosity='high' to print them.

     Dense  grid:   110809 G-vectors     FFT dimensions: (  80,  80,  80)

     Smooth grid:    28053 G-vectors     FFT dimensions: (  50,  50,  50)

     Estimated max dynamical RAM per process >     120.95Mb

     Estimated total allocated dynamical RAM >     483.80Mb

     Initial potential from superposition of free atoms

     starting charge   49.99176, renormalised to   51.00000
     Starting wfc are   49 randomized atomic wfcs

     total cpu time spent up to now is       29.4 secs

     per-process dynamical memory:   185.8 Mb

     Self-consistent Calculation

     iteration #  1     ecut=    50.00 Ry     beta=0.60
     Davidson diagonalization with overlap
     ethr =  1.00E-02,  avg # of iterations =  2.3

     total cpu time spent up to now is       84.0 secs

     total energy              =    -448.58537453 Ry
     Harris-Foulkes estimate   =    -472.59586474 Ry
     estimated scf accuracy    <      29.96858802 Ry

     iteration #  2     ecut=    50.00 Ry     beta=0.60
     Davidson diagonalization with overlap
     ethr =  1.00E-02,  avg # of iterations =  7.2

     total cpu time spent up to now is      193.8 secs

     total energy              =    -455.19556079 Ry
     Harris-Foulkes estimate   =    -504.35733491 Ry
     estimated scf accuracy    <     153.96767609 Ry

     iteration #  3     ecut=    50.00 Ry     beta=0.60
     Davidson diagonalization with overlap
     ethr =  1.00E-02,  avg # of iterations =  5.1

     total cpu time spent up to now is      275.3 secs

     total energy              =    -472.13238479 Ry
     Harris-Foulkes estimate   =    -472.70540560 Ry
     estimated scf accuracy    <       7.46926694 Ry

     iteration #  4     ecut=    50.00 Ry     beta=0.60
     Davidson diagonalization with overlap
     ethr =  1.00E-02,  avg # of iterations =  1.0

     total cpu time spent up to now is      320.1 secs

     total energy              =    -470.85110243 Ry
     Harris-Foulkes estimate   =    -472.15845762 Ry
     estimated scf accuracy    <       6.24503607 Ry

     iteration #  5     ecut=    50.00 Ry     beta=0.60
     Davidson diagonalization with overlap
     ethr =  1.00E-02,  avg # of iterations =  1.1

     total cpu time spent up to now is      365.5 secs

     total energy              =    -471.17172257 Ry
     Harris-Foulkes estimate   =    -470.94944834 Ry
     estimated scf accuracy    <       3.30280363 Ry

     iteration #  6     ecut=    50.00 Ry     beta=0.60
     Davidson diagonalization with overlap
     ethr =  6.48E-03,  avg # of iterations =  1.0

     total cpu time spent up to now is      410.7 secs

     total energy              =    -470.03689941 Ry
     Harris-Foulkes estimate   =    -471.18566889 Ry
     estimated scf accuracy    <       3.74669682 Ry

     iteration #  7     ecut=    50.00 Ry     beta=0.60
     Davidson diagonalization with overlap
     ethr =  6.48E-03,  avg # of iterations =  3.4

     total cpu time spent up to now is      462.2 secs

     total energy              =    -470.13151984 Ry
     Harris-Foulkes estimate   =    -470.28996269 Ry
     estimated scf accuracy    <       0.24528323 Ry

     iteration #  8     ecut=    50.00 Ry     beta=0.60
     Davidson diagonalization with overlap
     ethr =  4.81E-04,  avg # of iterations =  5.0

     total cpu time spent up to now is      550.3 secs

     total energy              =    -469.79369640 Ry
     Harris-Foulkes estimate   =    -471.43461299 Ry
     estimated scf accuracy    <      23.54219313 Ry

     iteration #  9     ecut=    50.00 Ry     beta=0.60
     Davidson diagonalization with overlap
     ethr =  4.81E-04,  avg # of iterations =  4.9

     total cpu time spent up to now is      626.3 secs

     total energy              =    -470.31050625 Ry
     Harris-Foulkes estimate   =    -470.40982009 Ry
     estimated scf accuracy    <       1.05053437 Ry

     iteration # 10     ecut=    50.00 Ry     beta=0.60
     Davidson diagonalization with overlap
     ethr =  4.81E-04,  avg # of iterations =  3.1

     total cpu time spent up to now is      675.9 secs

     total energy              =    -470.36513822 Ry
     Harris-Foulkes estimate   =    -470.36371923 Ry
     estimated scf accuracy    <       0.02445754 Ry

     iteration # 11     ecut=    50.00 Ry     beta=0.60
     Davidson diagonalization with overlap
     ethr =  4.80E-05,  avg # of iterations =  7.5

     total cpu time spent up to now is      757.2 secs

     total energy              =    -470.38450794 Ry
     Harris-Foulkes estimate   =    -470.37906943 Ry
     estimated scf accuracy    <       0.19631528 Ry

     iteration # 12     ecut=    50.00 Ry     beta=0.60
     Davidson diagonalization with overlap
     ethr =  4.80E-05,  avg # of iterations =  1.7

     total cpu time spent up to now is      803.3 secs

     total energy              =    -470.35360453 Ry
     Harris-Foulkes estimate   =    -470.38645644 Ry
     estimated scf accuracy    <       0.30951003 Ry

     iteration # 13     ecut=    50.00 Ry     beta=0.60
     Davidson diagonalization with overlap
     ethr =  4.80E-05,  avg # of iterations =  5.4

     total cpu time spent up to now is      866.8 secs

     total energy              =    -470.36684507 Ry
     Harris-Foulkes estimate   =    -470.36254145 Ry
     estimated scf accuracy    <       0.03501656 Ry

     iteration # 14     ecut=    50.00 Ry     beta=0.60
     Davidson diagonalization with overlap
     ethr =  4.80E-05,  avg # of iterations =  1.2

     total cpu time spent up to now is      912.1 secs

     total energy              =    -470.36779997 Ry
     Harris-Foulkes estimate   =    -470.36843322 Ry
     estimated scf accuracy    <       0.10470948 Ry

     iteration # 15     ecut=    50.00 Ry     beta=0.60
     Davidson diagonalization with overlap
     ethr =  4.80E-05,  avg # of iterations =  1.0

     total cpu time spent up to now is      957.1 secs

     total energy              =    -470.35901135 Ry
     Harris-Foulkes estimate   =    -470.36796700 Ry
     estimated scf accuracy    <       0.10545600 Ry

     iteration # 16     ecut=    50.00 Ry     beta=0.60
     Davidson diagonalization with overlap
     ethr =  4.80E-05,  avg # of iterations =  1.3

     total cpu time spent up to now is     1003.2 secs

     total energy              =    -470.35855774 Ry
     Harris-Foulkes estimate   =    -470.36075594 Ry
     estimated scf accuracy    <       0.03018304 Ry

     iteration # 17     ecut=    50.00 Ry     beta=0.60
     Davidson diagonalization with overlap
     ethr =  4.80E-05,  avg # of iterations =  2.2

     total cpu time spent up to now is     1050.5 secs

     total energy              =    -470.35837943 Ry
     Harris-Foulkes estimate   =    -470.35932571 Ry
     estimated scf accuracy    <       0.00598064 Ry

     iteration # 18     ecut=    50.00 Ry     beta=0.60
     Davidson diagonalization with overlap
     ethr =  1.17E-05,  avg # of iterations =  6.3

     total cpu time spent up to now is     1116.6 secs

     total energy              =    -470.35878493 Ry
     Harris-Foulkes estimate   =    -470.35921856 Ry
     estimated scf accuracy    <       0.00209222 Ry

     iteration # 19     ecut=    50.00 Ry     beta=0.60
     Davidson diagonalization with overlap
     ethr =  4.10E-06,  avg # of iterations =  5.9

     total cpu time spent up to now is     1181.0 secs

     total energy              =    -470.35833881 Ry
     Harris-Foulkes estimate   =    -470.35970864 Ry
     estimated scf accuracy    <       0.00914577 Ry

     iteration # 20     ecut=    50.00 Ry     beta=0.60
     Davidson diagonalization with overlap
     ethr =  4.10E-06,  avg # of iterations =  5.7

     total cpu time spent up to now is     1244.1 secs

     total energy              =    -470.35905657 Ry
     Harris-Foulkes estimate   =    -470.35905495 Ry
     estimated scf accuracy    <       0.00046325 Ry

     iteration # 21     ecut=    50.00 Ry     beta=0.60
     Davidson diagonalization with overlap
     ethr =  9.08E-07,  avg # of iterations =  2.5

     total cpu time spent up to now is     1292.9 secs

     total energy              =    -470.35904612 Ry
     Harris-Foulkes estimate   =    -470.35907475 Ry
     estimated scf accuracy    <       0.00078437 Ry

     iteration # 22     ecut=    50.00 Ry     beta=0.60
     Davidson diagonalization with overlap
     ethr =  9.08E-07,  avg # of iterations =  1.0

     total cpu time spent up to now is     1337.9 secs

     total energy              =    -470.35903061 Ry
     Harris-Foulkes estimate   =    -470.35905499 Ry
     estimated scf accuracy    <       0.00038238 Ry

     iteration # 23     ecut=    50.00 Ry     beta=0.60
     Davidson diagonalization with overlap
     ethr =  7.50E-07,  avg # of iterations =  1.0

     total cpu time spent up to now is     1382.9 secs

     total energy              =    -470.35901515 Ry
     Harris-Foulkes estimate   =    -470.35903585 Ry
     estimated scf accuracy    <       0.00013273 Ry

     iteration # 24     ecut=    50.00 Ry     beta=0.60
     Davidson diagonalization with overlap
     ethr =  2.60E-07,  avg # of iterations =  3.3

     total cpu time spent up to now is     1433.5 secs

     total energy              =    -470.35902552 Ry
     Harris-Foulkes estimate   =    -470.35902562 Ry
     estimated scf accuracy    <       0.00000051 Ry

     iteration # 25     ecut=    50.00 Ry     beta=0.60
     Davidson diagonalization with overlap
     ethr =  9.97E-10,  avg # of iterations =  5.9

     total cpu time spent up to now is     1516.6 secs

     total energy              =    -470.35902694 Ry
     Harris-Foulkes estimate   =    -470.35902784 Ry
     estimated scf accuracy    <       0.00000704 Ry

     iteration # 26     ecut=    50.00 Ry     beta=0.60
     Davidson diagonalization with overlap
     ethr =  9.97E-10,  avg # of iterations =  4.5

     total cpu time spent up to now is     1584.0 secs

     total energy              =    -470.35902726 Ry
     Harris-Foulkes estimate   =    -470.35902728 Ry
     estimated scf accuracy    <       0.00000022 Ry

     iteration # 27     ecut=    50.00 Ry     beta=0.60
     Davidson diagonalization with overlap
     ethr =  4.30E-10,  avg # of iterations =  1.0

     total cpu time spent up to now is     1629.0 secs

     total energy              =    -470.35902727 Ry
     Harris-Foulkes estimate   =    -470.35902727 Ry
     estimated scf accuracy    <       0.00000003 Ry

     iteration # 28     ecut=    50.00 Ry     beta=0.60
     Davidson diagonalization with overlap
     ethr =  6.84E-11,  avg # of iterations =  3.6

     total cpu time spent up to now is     1680.5 secs

     total energy              =    -470.35902727 Ry
     Harris-Foulkes estimate   =    -470.35902727 Ry
     estimated scf accuracy    <       0.00000002 Ry

     iteration # 29     ecut=    50.00 Ry     beta=0.60
     Davidson diagonalization with overlap
     ethr =  3.71E-11,  avg # of iterations =  1.5

     total cpu time spent up to now is     1726.5 secs

     total energy              =    -470.35902727 Ry
     Harris-Foulkes estimate   =    -470.35902727 Ry
     estimated scf accuracy    <       0.00000002 Ry

     iteration # 30     ecut=    50.00 Ry     beta=0.60
     Davidson diagonalization with overlap
     ethr =  3.58E-11,  avg # of iterations =  1.8

     total cpu time spent up to now is     1773.2 secs

     total energy              =    -470.35902727 Ry
     Harris-Foulkes estimate   =    -470.35902727 Ry
     estimated scf accuracy    <          4.6E-09 Ry

     iteration # 31     ecut=    50.00 Ry     beta=0.60
     Davidson diagonalization with overlap
     ethr =  9.06E-12,  avg # of iterations =  3.4

     total cpu time spent up to now is     1826.7 secs

     total energy              =    -470.35902727 Ry
     Harris-Foulkes estimate   =    -470.35902727 Ry
     estimated scf accuracy    <          1.4E-10 Ry

     iteration # 32     ecut=    50.00 Ry     beta=0.60
     Davidson diagonalization with overlap
     ethr =  2.79E-13,  avg # of iterations =  4.7

     total cpu time spent up to now is     1890.6 secs

     End of self-consistent calculation

     Number of k-points >= 100: set verbosity='high' to print the bands.

     the Fermi energy is    13.2831 ev

!    total energy              =    -470.35902727 Ry
     Harris-Foulkes estimate   =    -470.35902727 Ry
     estimated scf accuracy    <          1.3E-11 Ry

     The total energy is the sum of the following terms:

     one-electron contribution =    -124.24085030 Ry
     hartree contribution      =      79.32105597 Ry
     xc contribution           =     -69.12085323 Ry
     ewald contribution        =    -356.31861417 Ry
     smearing contrib. (-TS)   =       0.00023446 Ry

     convergence has been achieved in  32 iterations

     Forces acting on atoms (Ry/au):

     atom    1 type  2   force =    -0.00000000   -0.00000000   -0.00000000
     atom    2 type  1   force =     0.00000000    0.00000000    0.00000000
     atom    3 type  1   force =     0.00000000    0.00000000    0.00000000
     atom    4 type  1   force =     0.00000000    0.00000000    0.00000000

     Total force =     0.000000     Total SCF correction =     0.000000


     entering subroutine stress ...

          total   stress  (Ry/bohr**3)                   (kbar)     P= -212.29
  -0.00144312  -0.00001329  -0.00001329       -212.29     -1.95     -1.95
  -0.00001329  -0.00144312  -0.00001329         -1.95   -212.29     -1.95
  -0.00001329  -0.00001329  -0.00144312         -1.95     -1.95   -212.29


     BFGS Geometry Optimization

     number of scf cycles    =   1
     number of bfgs steps    =   0

     enthalpy new            =    -470.3590272695 Ry

     new trust radius        =       0.1747860633 bohr
     new conv_thr            =            1.0E-10 Ry

     new unit-cell volume =    525.43869 a.u.^3 (    77.86198 Ang^3 )

CELL_PARAMETERS (alat=  1.88972599)
  -5.084984198   1.695773516   1.695773516
   1.695773516   1.695773516  -5.084984198
   1.695773516  -5.084984198   1.695773516

ATOMIC_POSITIONS (angstrom)
Ti       0.001168175   0.001168175  -3.389210682
Nb       0.001168175  -3.389210682   0.001168175
Nb      -3.389210682   0.001168175   0.001168175
Nb      -1.693437166  -1.693437166  -1.693437166


     NEW-OLD atomic charge density approx. for the potential
     extrapolated charge   45.17395, renormalised to   51.00000

     total cpu time spent up to now is     1912.5 secs

     per-process dynamical memory:   197.3 Mb

     Self-consistent Calculation

     iteration #  1     ecut=    50.00 Ry     beta=0.60
     Davidson diagonalization with overlap
     c_bands:  1 eigenvalues not converged
     c_bands:  1 eigenvalues not converged
     c_bands:  1 eigenvalues not converged
     c_bands:  1 eigenvalues not converged
     c_bands:  1 eigenvalues not converged
     c_bands:  1 eigenvalues not converged
     c_bands:  1 eigenvalues not converged
     c_bands:  1 eigenvalues not converged
     ethr =  1.00E-06,  avg # of iterations = 12.7

     total cpu time spent up to now is     2091.0 secs

     total energy              =    -448.65297611 Ry
     Harris-Foulkes estimate   =    -479.89047458 Ry
     estimated scf accuracy    <      24.41218687 Ry

     iteration #  2     ecut=    50.00 Ry     beta=0.60
     Davidson diagonalization with overlap
     ethr =  1.00E-02,  avg # of iterations =  6.4

     total cpu time spent up to now is     2192.3 secs

     total energy              =    -460.58674314 Ry
     Harris-Foulkes estimate   =    -500.43708804 Ry
     estimated scf accuracy    <     127.13780435 Ry

     iteration #  3     ecut=    50.00 Ry     beta=0.60
     Davidson diagonalization with overlap
     ethr =  1.00E-02,  avg # of iterations =  5.0

     total cpu time spent up to now is     2272.8 secs

     total energy              =    -471.96352335 Ry
     Harris-Foulkes estimate   =    -473.74557589 Ry
     estimated scf accuracy    <       8.46622885 Ry

     iteration #  4     ecut=    50.00 Ry     beta=0.60
     Davidson diagonalization with overlap
     ethr =  1.00E-02,  avg # of iterations =  1.0

     total cpu time spent up to now is     2318.1 secs

     total energy              =    -470.96333847 Ry
     Harris-Foulkes estimate   =    -472.08422045 Ry
     estimated scf accuracy    <       5.47899214 Ry

     iteration #  5     ecut=    50.00 Ry     beta=0.60
     Davidson diagonalization with overlap
     ethr =  1.00E-02,  avg # of iterations =  1.8

     total cpu time spent up to now is     2365.6 secs

     total energy              =    -470.87613225 Ry
     Harris-Foulkes estimate   =    -471.08419871 Ry
     estimated scf accuracy    <       3.01132722 Ry

     iteration #  6     ecut=    50.00 Ry     beta=0.60
     Davidson diagonalization with overlap
     ethr =  5.90E-03,  avg # of iterations =  1.0

     total cpu time spent up to now is     2411.0 secs

     total energy              =    -470.30482416 Ry
     Harris-Foulkes estimate   =    -470.89888390 Ry
     estimated scf accuracy    <       2.48710027 Ry

     iteration #  7     ecut=    50.00 Ry     beta=0.60
     Davidson diagonalization with overlap
     ethr =  4.88E-03,  avg # of iterations =  3.2

     total cpu time spent up to now is     2462.6 secs

     total energy              =    -470.55783286 Ry
     Harris-Foulkes estimate   =    -470.46142715 Ry
     estimated scf accuracy    <       0.36679895 Ry

     iteration #  8     ecut=    50.00 Ry     beta=0.60
     Davidson diagonalization with overlap
     ethr =  7.19E-04,  avg # of iterations =  4.5

     total cpu time spent up to now is     2520.7 secs

     total energy              =    -470.64134686 Ry
     Harris-Foulkes estimate   =    -470.60604835 Ry
     estimated scf accuracy    <       0.92040115 Ry

     iteration #  9     ecut=    50.00 Ry     beta=0.60
     Davidson diagonalization with overlap
     ethr =  7.19E-04,  avg # of iterations =  1.1

     total cpu time spent up to now is     2566.2 secs

     total energy              =    -470.51905203 Ry
     Harris-Foulkes estimate   =    -470.64442841 Ry
     estimated scf accuracy    <       1.09063750 Ry

     iteration # 10     ecut=    50.00 Ry     beta=0.60
     Davidson diagonalization with overlap
     ethr =  7.19E-04,  avg # of iterations =  1.0

     total cpu time spent up to now is     2611.4 secs

     total energy              =    -470.24023724 Ry
     Harris-Foulkes estimate   =    -470.52665478 Ry
     estimated scf accuracy    <       0.70649405 Ry

     iteration # 11     ecut=    50.00 Ry     beta=0.60
     Davidson diagonalization with overlap
     ethr =  7.19E-04,  avg # of iterations =  5.1

     total cpu time spent up to now is     2695.8 secs

     total energy              =    -470.53249602 Ry
     Harris-Foulkes estimate   =    -470.57078184 Ry
     estimated scf accuracy    <       3.07990215 Ry

     iteration # 12     ecut=    50.00 Ry     beta=0.60
     Davidson diagonalization with overlap
     ethr =  7.19E-04,  avg # of iterations =  1.0

     total cpu time spent up to now is     2741.1 secs

     total energy              =    -470.52483089 Ry
     Harris-Foulkes estimate   =    -470.53474147 Ry
     estimated scf accuracy    <       2.41479420 Ry

     iteration # 13     ecut=    50.00 Ry     beta=0.60
     Davidson diagonalization with overlap
     ethr =  7.19E-04,  avg # of iterations =  1.0

     total cpu time spent up to now is     2786.3 secs

     total energy              =    -470.40566653 Ry
     Harris-Foulkes estimate   =    -470.52537442 Ry
     estimated scf accuracy    <       2.19367354 Ry

     iteration # 14     ecut=    50.00 Ry     beta=0.60
     Davidson diagonalization with overlap
     ethr =  7.19E-04,  avg # of iterations =  1.1

     total cpu time spent up to now is     2831.8 secs

     total energy              =    -470.44242067 Ry
     Harris-Foulkes estimate   =    -470.44007238 Ry
     estimated scf accuracy    <       0.37928534 Ry

     iteration # 15     ecut=    50.00 Ry     beta=0.60
     Davidson diagonalization with overlap
     ethr =  7.19E-04,  avg # of iterations =  1.0

     total cpu time spent up to now is     2876.9 secs

     total energy              =    -470.49566490 Ry
     Harris-Foulkes estimate   =    -470.44431813 Ry
     estimated scf accuracy    <       0.43104603 Ry

     iteration # 16     ecut=    50.00 Ry     beta=0.60
     Davidson diagonalization with overlap
     ethr =  7.19E-04,  avg # of iterations =  1.0

     total cpu time spent up to now is     2924.0 secs

     total energy              =    -470.49842660 Ry
     Harris-Foulkes estimate   =    -470.52743553 Ry
     estimated scf accuracy    <       2.11071673 Ry

     iteration # 17     ecut=    50.00 Ry     beta=0.60
     Davidson diagonalization with overlap
     ethr =  7.19E-04,  avg # of iterations =  1.0

     total cpu time spent up to now is     2969.3 secs

     total energy              =    -470.37292882 Ry
     Harris-Foulkes estimate   =    -470.50049271 Ry
     estimated scf accuracy    <       1.59023561 Ry

     iteration # 18     ecut=    50.00 Ry     beta=0.60
     Davidson diagonalization with overlap
     ethr =  7.19E-04,  avg # of iterations =  2.5

     total cpu time spent up to now is     3017.4 secs

     total energy              =    -470.42143521 Ry
     Harris-Foulkes estimate   =    -470.42679272 Ry
     estimated scf accuracy    <       0.04181245 Ry

     iteration # 19     ecut=    50.00 Ry     beta=0.60
     Davidson diagonalization with overlap
     ethr =  8.20E-05,  avg # of iterations =  6.3

     total cpu time spent up to now is     3087.0 secs

     total energy              =    -470.42943355 Ry
     Harris-Foulkes estimate   =    -470.42976391 Ry
     estimated scf accuracy    <       0.00433283 Ry

     iteration # 20     ecut=    50.00 Ry     beta=0.60
     Davidson diagonalization with overlap
     ethr =  8.50E-06,  avg # of iterations =  3.4

     total cpu time spent up to now is     3137.4 secs

     total energy              =    -470.42945303 Ry
     Harris-Foulkes estimate   =    -470.42953619 Ry
     estimated scf accuracy    <       0.00199524 Ry

     iteration # 21     ecut=    50.00 Ry     beta=0.60
     Davidson diagonalization with overlap
     ethr =  3.91E-06,  avg # of iterations =  2.4

     total cpu time spent up to now is     3185.8 secs

     total energy              =    -470.42947755 Ry
     Harris-Foulkes estimate   =    -470.42950859 Ry
     estimated scf accuracy    <       0.00084004 Ry

     iteration # 22     ecut=    50.00 Ry     beta=0.60
     Davidson diagonalization with overlap
     ethr =  1.65E-06,  avg # of iterations =  3.8

     total cpu time spent up to now is     3242.4 secs

     total energy              =    -470.42938914 Ry
     Harris-Foulkes estimate   =    -470.42957743 Ry
     estimated scf accuracy    <       0.00194332 Ry

     iteration # 23     ecut=    50.00 Ry     beta=0.60
     Davidson diagonalization with overlap
     ethr =  1.65E-06,  avg # of iterations =  1.1

     total cpu time spent up to now is     3287.8 secs

     total energy              =    -470.42937486 Ry
     Harris-Foulkes estimate   =    -470.42943288 Ry
     estimated scf accuracy    <       0.00047743 Ry

     iteration # 24     ecut=    50.00 Ry     beta=0.60
     Davidson diagonalization with overlap
     ethr =  9.36E-07,  avg # of iterations =  3.8

     total cpu time spent up to now is     3341.8 secs

     total energy              =    -470.42941589 Ry
     Harris-Foulkes estimate   =    -470.42941728 Ry
     estimated scf accuracy    <       0.00000677 Ry

     iteration # 25     ecut=    50.00 Ry     beta=0.60
     Davidson diagonalization with overlap
     ethr =  1.33E-08,  avg # of iterations =  5.1

     total cpu time spent up to now is     3414.2 secs

     total energy              =    -470.42941980 Ry
     Harris-Foulkes estimate   =    -470.42942174 Ry
     estimated scf accuracy    <       0.00004376 Ry

     iteration # 26     ecut=    50.00 Ry     beta=0.60
     Davidson diagonalization with overlap
     ethr =  1.33E-08,  avg # of iterations =  1.0

     total cpu time spent up to now is     3459.3 secs

     total energy              =    -470.42941968 Ry
     Harris-Foulkes estimate   =    -470.42941997 Ry
     estimated scf accuracy    <       0.00003194 Ry

     iteration # 27     ecut=    50.00 Ry     beta=0.60
     Davidson diagonalization with overlap
     ethr =  1.33E-08,  avg # of iterations =  1.0

     total cpu time spent up to now is     3504.6 secs

     total energy              =    -470.42941759 Ry
     Harris-Foulkes estimate   =    -470.42941985 Ry
     estimated scf accuracy    <       0.00003287 Ry

     iteration # 28     ecut=    50.00 Ry     beta=0.60
     Davidson diagonalization with overlap
     ethr =  1.33E-08,  avg # of iterations =  3.3

     total cpu time spent up to now is     3554.6 secs

     total energy              =    -470.42941655 Ry
     Harris-Foulkes estimate   =    -470.42941802 Ry
     estimated scf accuracy    <       0.00001319 Ry

     iteration # 29     ecut=    50.00 Ry     beta=0.60
     Davidson diagonalization with overlap
     ethr =  1.33E-08,  avg # of iterations =  3.2

     total cpu time spent up to now is     3606.4 secs

     total energy              =    -470.42941725 Ry
     Harris-Foulkes estimate   =    -470.42941731 Ry
     estimated scf accuracy    <       0.00000054 Ry

     iteration # 30     ecut=    50.00 Ry     beta=0.60
     Davidson diagonalization with overlap
     ethr =  1.06E-09,  avg # of iterations =  4.1

     total cpu time spent up to now is     3662.9 secs

     total energy              =    -470.42941734 Ry
     Harris-Foulkes estimate   =    -470.42941735 Ry
     estimated scf accuracy    <       0.00000001 Ry

     iteration # 31     ecut=    50.00 Ry     beta=0.60
     Davidson diagonalization with overlap
     ethr =  2.87E-11,  avg # of iterations =  4.8

     total cpu time spent up to now is     3732.4 secs

     total energy              =    -470.42941735 Ry
     Harris-Foulkes estimate   =    -470.42941735 Ry
     estimated scf accuracy    <       0.00000003 Ry

     iteration # 32     ecut=    50.00 Ry     beta=0.60
     Davidson diagonalization with overlap
     ethr =  2.87E-11,  avg # of iterations =  3.4

     total cpu time spent up to now is     3783.0 secs

     total energy              =    -470.42941735 Ry
     Harris-Foulkes estimate   =    -470.42941735 Ry
     estimated scf accuracy    <          1.3E-10 Ry

     iteration # 33     ecut=    50.00 Ry     beta=0.60
     Davidson diagonalization with overlap
     ethr =  2.62E-13,  avg # of iterations =  5.1

     total cpu time spent up to now is     3861.1 secs

     total energy              =    -470.42941735 Ry
     Harris-Foulkes estimate   =    -470.42941735 Ry
     estimated scf accuracy    <          3.5E-10 Ry

     iteration # 34     ecut=    50.00 Ry     beta=0.60
     Davidson diagonalization with overlap
     ethr =  2.62E-13,  avg # of iterations =  2.4

     total cpu time spent up to now is     3908.7 secs

     End of self-consistent calculation

     Number of k-points >= 100: set verbosity='high' to print the bands.

     the Fermi energy is    15.1772 ev

!    total energy              =    -470.42941735 Ry
     Harris-Foulkes estimate   =    -470.42941735 Ry
     estimated scf accuracy    <          4.1E-11 Ry

     The total energy is the sum of the following terms:

     one-electron contribution =    -104.88330956 Ry
     hartree contribution      =      73.61965763 Ry
     xc contribution           =     -69.51058196 Ry
     ewald contribution        =    -369.65484057 Ry
     smearing contrib. (-TS)   =      -0.00034289 Ry

     convergence has been achieved in  34 iterations

     Forces acting on atoms (Ry/au):

     atom    1 type  2   force =     0.00000000    0.00000000    0.00000000
     atom    2 type  1   force =     0.00000000    0.00000000    0.00000000
     atom    3 type  1   force =     0.00000000    0.00000000    0.00000000
     atom    4 type  1   force =     0.00000000    0.00000000    0.00000000

     Total force =     0.000000     Total SCF correction =     0.000000


     entering subroutine stress ...

          total   stress  (Ry/bohr**3)                   (kbar)     P= -116.07
  -0.00078905  -0.00001308  -0.00001308       -116.07     -1.92     -1.92
  -0.00001308  -0.00078905  -0.00001308         -1.92   -116.07     -1.92
  -0.00001308  -0.00001308  -0.00078905         -1.92     -1.92   -116.07


     number of scf cycles    =   2
     number of bfgs steps    =   1

     enthalpy old            =    -470.3590272695 Ry
     enthalpy new            =    -470.4294173516 Ry

     CASE: enthalpy_new < enthalpy_old

     new trust radius        =       0.1772940989 bohr
     new conv_thr            =            1.0E-12 Ry

     new unit-cell volume =    466.82170 a.u.^3 (    69.17584 Ang^3 )

CELL_PARAMETERS (alat=  1.88972599)
  -4.890659182   1.632477375   1.632477375
   1.632477375   1.632477375  -4.890659182
   1.632477375  -4.890659182   1.632477375

ATOMIC_POSITIONS (angstrom)
Ti       0.003386472   0.003386472  -3.258181807
Nb       0.003386472  -3.258181807   0.003386472
Nb      -3.258181807   0.003386472   0.003386472
Nb      -1.625704431  -1.625704431  -1.625704431


     NEW-OLD atomic charge density approx. for the potential
     extrapolated charge   44.72273, renormalised to   51.00000

     total cpu time spent up to now is     3931.1 secs

     per-process dynamical memory:   197.3 Mb

     Self-consistent Calculation

     iteration #  1     ecut=    50.00 Ry     beta=0.60
     Davidson diagonalization with overlap
     c_bands:  1 eigenvalues not converged
     c_bands:  1 eigenvalues not converged
     c_bands:  1 eigenvalues not converged
     c_bands:  1 eigenvalues not converged
     c_bands:  1 eigenvalues not converged
     c_bands:  1 eigenvalues not converged
     c_bands:  1 eigenvalues not converged
     c_bands:  1 eigenvalues not converged
     c_bands:  2 eigenvalues not converged
     ethr =  1.00E-06,  avg # of iterations = 12.9

     total cpu time spent up to now is     4106.8 secs

     total energy              =    -451.19191103 Ry
     Harris-Foulkes estimate   =    -478.87384766 Ry
     estimated scf accuracy    <      21.30334367 Ry

     iteration #  2     ecut=    50.00 Ry     beta=0.60
     Davidson diagonalization with overlap
     ethr =  1.00E-02,  avg # of iterations =  6.3

     total cpu time spent up to now is     4205.2 secs

     total energy              =    -462.81858031 Ry
     Harris-Foulkes estimate   =    -496.26756650 Ry
     estimated scf accuracy    <     105.08654879 Ry

     iteration #  3     ecut=    50.00 Ry     beta=0.60
     Davidson diagonalization with overlap
     ethr =  1.00E-02,  avg # of iterations =  4.9

     total cpu time spent up to now is     4283.1 secs

     total energy              =    -471.70314408 Ry
     Harris-Foulkes estimate   =    -473.40986119 Ry
     estimated scf accuracy    <       7.86341946 Ry

     iteration #  4     ecut=    50.00 Ry     beta=0.60
     Davidson diagonalization with overlap
     ethr =  1.00E-02,  avg # of iterations =  1.0

     total cpu time spent up to now is     4328.4 secs

     total energy              =    -470.96117397 Ry
     Harris-Foulkes estimate   =    -471.80821190 Ry
     estimated scf accuracy    <       4.97106488 Ry

     iteration #  5     ecut=    50.00 Ry     beta=0.60
     Davidson diagonalization with overlap
     ethr =  9.75E-03,  avg # of iterations =  1.0

     total cpu time spent up to now is     4373.6 secs

     total energy              =    -470.90828958 Ry
     Harris-Foulkes estimate   =    -471.07156677 Ry
     estimated scf accuracy    <       2.89103127 Ry

     iteration #  6     ecut=    50.00 Ry     beta=0.60
     Davidson diagonalization with overlap
     ethr =  5.67E-03,  avg # of iterations =  1.0

     total cpu time spent up to now is     4418.8 secs

     total energy              =    -470.27658463 Ry
     Harris-Foulkes estimate   =    -470.92658173 Ry
     estimated scf accuracy    <       2.46362980 Ry

     iteration #  7     ecut=    50.00 Ry     beta=0.60
     Davidson diagonalization with overlap
     ethr =  4.83E-03,  avg # of iterations =  3.4

     total cpu time spent up to now is     4471.2 secs

     total energy              =    -470.50937445 Ry
     Harris-Foulkes estimate   =    -470.47330749 Ry
     estimated scf accuracy    <       0.18981116 Ry

     iteration #  8     ecut=    50.00 Ry     beta=0.60
     Davidson diagonalization with overlap
     ethr =  3.72E-04,  avg # of iterations =  4.6

     total cpu time spent up to now is     4533.0 secs

     total energy              =    -470.55213901 Ry
     Harris-Foulkes estimate   =    -470.54478029 Ry
     estimated scf accuracy    <       0.46507495 Ry

     iteration #  9     ecut=    50.00 Ry     beta=0.60
     Davidson diagonalization with overlap
     ethr =  3.72E-04,  avg # of iterations =  1.0

     total cpu time spent up to now is     4578.2 secs

     total energy              =    -470.56165247 Ry
     Harris-Foulkes estimate   =    -470.55290007 Ry
     estimated scf accuracy    <       0.50755640 Ry

     iteration # 10     ecut=    50.00 Ry     beta=0.60
     Davidson diagonalization with overlap
     ethr =  3.72E-04,  avg # of iterations =  1.0

     total cpu time spent up to now is     4623.4 secs

     total energy              =    -470.27761660 Ry
     Harris-Foulkes estimate   =    -470.56293422 Ry
     estimated scf accuracy    <       0.59507114 Ry

     iteration # 11     ecut=    50.00 Ry     beta=0.60
     Davidson diagonalization with overlap
     ethr =  3.72E-04,  avg # of iterations =  5.1

     total cpu time spent up to now is     4709.5 secs

     total energy              =    -470.55525766 Ry
     Harris-Foulkes estimate   =    -470.58650819 Ry
     estimated scf accuracy    <       2.62614595 Ry

     iteration # 12     ecut=    50.00 Ry     beta=0.60
     Davidson diagonalization with overlap
     ethr =  3.72E-04,  avg # of iterations =  1.0

     total cpu time spent up to now is     4754.5 secs

     total energy              =    -470.55943623 Ry
     Harris-Foulkes estimate   =    -470.55675008 Ry
     estimated scf accuracy    <       2.15081283 Ry

     iteration # 13     ecut=    50.00 Ry     beta=0.60
     Davidson diagonalization with overlap
     ethr =  3.72E-04,  avg # of iterations =  1.0

     total cpu time spent up to now is     4799.6 secs

     total energy              =    -470.37587399 Ry
     Harris-Foulkes estimate   =    -470.55954031 Ry
     estimated scf accuracy    <       2.18988408 Ry

     iteration # 14     ecut=    50.00 Ry     beta=0.60
     Davidson diagonalization with overlap
     ethr =  3.72E-04,  avg # of iterations =  4.4

     total cpu time spent up to now is     4854.4 secs

     total energy              =    -470.44952532 Ry
     Harris-Foulkes estimate   =    -470.45069537 Ry
     estimated scf accuracy    <       0.09053134 Ry

     iteration # 15     ecut=    50.00 Ry     beta=0.60
     Davidson diagonalization with overlap
     ethr =  1.78E-04,  avg # of iterations =  2.3

     total cpu time spent up to now is     4902.0 secs

     total energy              =    -470.45072644 Ry
     Harris-Foulkes estimate   =    -470.45035417 Ry
     estimated scf accuracy    <       0.07268098 Ry

     iteration # 16     ecut=    50.00 Ry     beta=0.60
     Davidson diagonalization with overlap
     ethr =  1.43E-04,  avg # of iterations =  1.1

     total cpu time spent up to now is     4947.3 secs

     total energy              =    -470.44547868 Ry
     Harris-Foulkes estimate   =    -470.45161082 Ry
     estimated scf accuracy    <       0.05772393 Ry

     iteration # 17     ecut=    50.00 Ry     beta=0.60
     Davidson diagonalization with overlap
     ethr =  1.13E-04,  avg # of iterations =  2.9

     total cpu time spent up to now is     4996.9 secs

     total energy              =    -470.44710511 Ry
     Harris-Foulkes estimate   =    -470.44803412 Ry
     estimated scf accuracy    <       0.01822818 Ry

     iteration # 18     ecut=    50.00 Ry     beta=0.60
     Davidson diagonalization with overlap
     ethr =  3.57E-05,  avg # of iterations =  5.6

     total cpu time spent up to now is     5063.3 secs

     total energy              =    -470.44993376 Ry
     Harris-Foulkes estimate   =    -470.44995889 Ry
     estimated scf accuracy    <       0.01023688 Ry

     iteration # 19     ecut=    50.00 Ry     beta=0.60
     Davidson diagonalization with overlap
     ethr =  2.01E-05,  avg # of iterations =  1.0

     total cpu time spent up to now is     5108.6 secs

     total energy              =    -470.44889787 Ry
     Harris-Foulkes estimate   =    -470.45019646 Ry
     estimated scf accuracy    <       0.01000167 Ry

     iteration # 20     ecut=    50.00 Ry     beta=0.60
     Davidson diagonalization with overlap
     ethr =  1.96E-05,  avg # of iterations =  1.1

     total cpu time spent up to now is     5153.7 secs

     total energy              =    -470.44672278 Ry
     Harris-Foulkes estimate   =    -470.44894665 Ry
     estimated scf accuracy    <       0.00723861 Ry

     iteration # 21     ecut=    50.00 Ry     beta=0.60
     Davidson diagonalization with overlap
     ethr =  1.42E-05,  avg # of iterations =  1.7

     total cpu time spent up to now is     5200.2 secs

     total energy              =    -470.44545260 Ry
     Harris-Foulkes estimate   =    -470.44693721 Ry
     estimated scf accuracy    <       0.00276986 Ry

     iteration # 22     ecut=    50.00 Ry     beta=0.60
     Davidson diagonalization with overlap
     ethr =  5.43E-06,  avg # of iterations =  5.0

     total cpu time spent up to now is     5270.7 secs

     total energy              =    -470.44592233 Ry
     Harris-Foulkes estimate   =    -470.44617235 Ry
     estimated scf accuracy    <       0.00226284 Ry

     iteration # 23     ecut=    50.00 Ry     beta=0.60
     Davidson diagonalization with overlap
     ethr =  4.44E-06,  avg # of iterations =  1.0

     total cpu time spent up to now is     5315.8 secs

     total energy              =    -470.44582804 Ry
     Harris-Foulkes estimate   =    -470.44598849 Ry
     estimated scf accuracy    <       0.00045006 Ry

     iteration # 24     ecut=    50.00 Ry     beta=0.60
     Davidson diagonalization with overlap
     ethr =  8.82E-07,  avg # of iterations =  5.0

     total cpu time spent up to now is     5385.3 secs

     total energy              =    -470.44597009 Ry
     Harris-Foulkes estimate   =    -470.44601510 Ry
     estimated scf accuracy    <       0.00065284 Ry

     iteration # 25     ecut=    50.00 Ry     beta=0.60
     Davidson diagonalization with overlap
     ethr =  8.82E-07,  avg # of iterations =  1.0

     total cpu time spent up to now is     5430.5 secs

     total energy              =    -470.44594192 Ry
     Harris-Foulkes estimate   =    -470.44597584 Ry
     estimated scf accuracy    <       0.00030582 Ry

     iteration # 26     ecut=    50.00 Ry     beta=0.60
     Davidson diagonalization with overlap
     ethr =  6.00E-07,  avg # of iterations =  2.1

     total cpu time spent up to now is     5478.5 secs

     total energy              =    -470.44595362 Ry
     Harris-Foulkes estimate   =    -470.44595686 Ry
     estimated scf accuracy    <       0.00002055 Ry

     iteration # 27     ecut=    50.00 Ry     beta=0.60
     Davidson diagonalization with overlap
     ethr =  4.03E-08,  avg # of iterations =  4.1

     total cpu time spent up to now is     5537.0 secs

     total energy              =    -470.44595688 Ry
     Harris-Foulkes estimate   =    -470.44595732 Ry
     estimated scf accuracy    <       0.00000171 Ry

     iteration # 28     ecut=    50.00 Ry     beta=0.60
     Davidson diagonalization with overlap
     ethr =  3.35E-09,  avg # of iterations =  3.9

     total cpu time spent up to now is     5595.3 secs

     total energy              =    -470.44595703 Ry
     Harris-Foulkes estimate   =    -470.44595744 Ry
     estimated scf accuracy    <       0.00000276 Ry

     iteration # 29     ecut=    50.00 Ry     beta=0.60
     Davidson diagonalization with overlap
     ethr =  3.35E-09,  avg # of iterations =  2.1

     total cpu time spent up to now is     5642.4 secs

     total energy              =    -470.44595705 Ry
     Harris-Foulkes estimate   =    -470.44595713 Ry
     estimated scf accuracy    <       0.00000041 Ry

     iteration # 30     ecut=    50.00 Ry     beta=0.60
     Davidson diagonalization with overlap
     ethr =  8.01E-10,  avg # of iterations =  3.9

     total cpu time spent up to now is     5700.1 secs

     total energy              =    -470.44595714 Ry
     Harris-Foulkes estimate   =    -470.44595715 Ry
     estimated scf accuracy    <       0.00000007 Ry

     iteration # 31     ecut=    50.00 Ry     beta=0.60
     Davidson diagonalization with overlap
     ethr =  1.28E-10,  avg # of iterations =  1.9

     total cpu time spent up to now is     5747.1 secs

     total energy              =    -470.44595714 Ry
     Harris-Foulkes estimate   =    -470.44595714 Ry
     estimated scf accuracy    <       0.00000001 Ry

     iteration # 32     ecut=    50.00 Ry     beta=0.60
     Davidson diagonalization with overlap
     ethr =  2.63E-11,  avg # of iterations =  3.9

     total cpu time spent up to now is     5804.9 secs

     total energy              =    -470.44595714 Ry
     Harris-Foulkes estimate   =    -470.44595714 Ry
     estimated scf accuracy    <          5.0E-09 Ry

     iteration # 33     ecut=    50.00 Ry     beta=0.60
     Davidson diagonalization with overlap
     ethr =  9.89E-12,  avg # of iterations =  1.8

     total cpu time spent up to now is     5851.6 secs

     total energy              =    -470.44595714 Ry
     Harris-Foulkes estimate   =    -470.44595714 Ry
     estimated scf accuracy    <          1.5E-10 Ry

     iteration # 34     ecut=    50.00 Ry     beta=0.60
     Davidson diagonalization with overlap
     ethr =  3.01E-13,  avg # of iterations =  4.5

     total cpu time spent up to now is     5917.5 secs

     total energy              =    -470.44595714 Ry
     Harris-Foulkes estimate   =    -470.44595714 Ry
     estimated scf accuracy    <          2.5E-11 Ry

     iteration # 35     ecut=    50.00 Ry     beta=0.60
     Davidson diagonalization with overlap
     ethr =  1.00E-13,  avg # of iterations =  1.0

     total cpu time spent up to now is     5962.7 secs

     total energy              =    -470.44595714 Ry
     Harris-Foulkes estimate   =    -470.44595714 Ry
     estimated scf accuracy    <          2.2E-11 Ry

     iteration # 36     ecut=    50.00 Ry     beta=0.60
     Davidson diagonalization with overlap
     ethr =  1.00E-13,  avg # of iterations =  1.0

     total cpu time spent up to now is     6008.2 secs

     total energy              =    -470.44595714 Ry
     Harris-Foulkes estimate   =    -470.44595714 Ry
     estimated scf accuracy    <          1.1E-12 Ry

     iteration # 37     ecut=    50.00 Ry     beta=0.60
     Davidson diagonalization with overlap
     ethr =  1.00E-13,  avg # of iterations =  1.0

     total cpu time spent up to now is     6053.4 secs

     End of self-consistent calculation

     Number of k-points >= 100: set verbosity='high' to print the bands.

     the Fermi energy is    17.4365 ev

!    total energy              =    -470.44595714 Ry
     Harris-Foulkes estimate   =    -470.44595714 Ry
     estimated scf accuracy    <          1.3E-13 Ry

     The total energy is the sum of the following terms:

     one-electron contribution =     -83.61593035 Ry
     hartree contribution      =      67.68212813 Ry
     xc contribution           =     -69.99155841 Ry
     ewald contribution        =    -384.52022187 Ry
     smearing contrib. (-TS)   =      -0.00037464 Ry

     convergence has been achieved in  37 iterations

     Forces acting on atoms (Ry/au):

     atom    1 type  2   force =    -0.00000000   -0.00000000   -0.00000000
     atom    2 type  1   force =    -0.00000000   -0.00000000   -0.00000000
     atom    3 type  1   force =     0.00000000    0.00000000    0.00000000
     atom    4 type  1   force =    -0.00000000   -0.00000000   -0.00000000

     Total force =     0.000000     Total SCF correction =     0.000000


     entering subroutine stress ...

          total   stress  (Ry/bohr**3)                   (kbar)     P=   48.47
   0.00032948  -0.00000741  -0.00000741         48.47     -1.09     -1.09
  -0.00000741   0.00032948  -0.00000741         -1.09     48.47     -1.09
  -0.00000741  -0.00000741   0.00032948         -1.09     -1.09     48.47


     number of scf cycles    =   3
     number of bfgs steps    =   2

     enthalpy old            =    -470.4294173516 Ry
     enthalpy new            =    -470.4459571404 Ry

     CASE: enthalpy_new < enthalpy_old

     new trust radius        =       0.0483520764 bohr
     new conv_thr            =            1.0E-12 Ry

     new unit-cell volume =    482.66815 a.u.^3 (    71.52404 Ang^3 )

CELL_PARAMETERS (alat=  1.88972599)
  -4.945417324   1.650778142   1.650778142
   1.650778142   1.650778142  -4.945417324
   1.650778142  -4.945417324   1.650778142

ATOMIC_POSITIONS (angstrom)
Ti       0.003458552   0.003458552  -3.294639182
Nb       0.003458552  -3.294639182   0.003458552
Nb      -3.294639182   0.003458552   0.003458552
Nb      -1.643861039  -1.643861039  -1.643861039


     NEW-OLD atomic charge density approx. for the potential
     extrapolated charge   52.64128, renormalised to   51.00000

     total cpu time spent up to now is     6075.9 secs

     per-process dynamical memory:   197.3 Mb

     Self-consistent Calculation

     iteration #  1     ecut=    50.00 Ry     beta=0.60
     Davidson diagonalization with overlap
     ethr =  1.00E-06,  avg # of iterations = 12.3

     total cpu time spent up to now is     6221.5 secs

     total energy              =    -470.24540475 Ry
     Harris-Foulkes estimate   =    -468.42977784 Ry
     estimated scf accuracy    <       0.16224218 Ry

     iteration #  2     ecut=    50.00 Ry     beta=0.60
     Davidson diagonalization with overlap
     ethr =  3.18E-04,  avg # of iterations =  5.9

     total cpu time spent up to now is     6323.8 secs

     total energy              =    -469.95935830 Ry
     Harris-Foulkes estimate   =    -470.95956464 Ry
     estimated scf accuracy    <      10.02359450 Ry

     iteration #  3     ecut=    50.00 Ry     beta=0.60
     Davidson diagonalization with overlap
     ethr =  3.18E-04,  avg # of iterations =  5.5

     total cpu time spent up to now is     6401.4 secs

     total energy              =    -470.44325217 Ry
     Harris-Foulkes estimate   =    -470.48918022 Ry
     estimated scf accuracy    <       0.13385954 Ry

     iteration #  4     ecut=    50.00 Ry     beta=0.60
     Davidson diagonalization with overlap
     ethr =  2.62E-04,  avg # of iterations =  1.8

     total cpu time spent up to now is     6448.4 secs

     total energy              =    -470.45286226 Ry
     Harris-Foulkes estimate   =    -470.45665054 Ry
     estimated scf accuracy    <       0.04298278 Ry

     iteration #  5     ecut=    50.00 Ry     beta=0.60
     Davidson diagonalization with overlap
     ethr =  8.43E-05,  avg # of iterations =  2.0

     total cpu time spent up to now is     6495.4 secs

     total energy              =    -470.45158816 Ry
     Harris-Foulkes estimate   =    -470.45421571 Ry
     estimated scf accuracy    <       0.03545533 Ry

     iteration #  6     ecut=    50.00 Ry     beta=0.60
     Davidson diagonalization with overlap
     ethr =  6.95E-05,  avg # of iterations =  1.0

     total cpu time spent up to now is     6540.5 secs

     total energy              =    -470.44890194 Ry
     Harris-Foulkes estimate   =    -470.45212382 Ry
     estimated scf accuracy    <       0.02592656 Ry

     iteration #  7     ecut=    50.00 Ry     beta=0.60
     Davidson diagonalization with overlap
     ethr =  5.08E-05,  avg # of iterations =  1.4

     total cpu time spent up to now is     6586.3 secs

     total energy              =    -470.44791303 Ry
     Harris-Foulkes estimate   =    -470.44963462 Ry
     estimated scf accuracy    <       0.01126657 Ry

     iteration #  8     ecut=    50.00 Ry     beta=0.60
     Davidson diagonalization with overlap
     ethr =  2.21E-05,  avg # of iterations =  2.1

     total cpu time spent up to now is     6633.4 secs

     total energy              =    -470.44803696 Ry
     Harris-Foulkes estimate   =    -470.44836096 Ry
     estimated scf accuracy    <       0.00292962 Ry

     iteration #  9     ecut=    50.00 Ry     beta=0.60
     Davidson diagonalization with overlap
     ethr =  5.74E-06,  avg # of iterations =  4.6

     total cpu time spent up to now is     6690.2 secs

     total energy              =    -470.44821994 Ry
     Harris-Foulkes estimate   =    -470.44824098 Ry
     estimated scf accuracy    <       0.00073622 Ry

     iteration # 10     ecut=    50.00 Ry     beta=0.60
     Davidson diagonalization with overlap
     ethr =  1.44E-06,  avg # of iterations =  3.4

     total cpu time spent up to now is     6740.7 secs

     total energy              =    -470.44817764 Ry
     Harris-Foulkes estimate   =    -470.44823496 Ry
     estimated scf accuracy    <       0.00050432 Ry

     iteration # 11     ecut=    50.00 Ry     beta=0.60
     Davidson diagonalization with overlap
     ethr =  9.89E-07,  avg # of iterations =  2.0

     total cpu time spent up to now is     6788.3 secs

     total energy              =    -470.44818718 Ry
     Harris-Foulkes estimate   =    -470.44819804 Ry
     estimated scf accuracy    <       0.00008352 Ry

     iteration # 12     ecut=    50.00 Ry     beta=0.60
     Davidson diagonalization with overlap
     ethr =  1.64E-07,  avg # of iterations =  4.1

     total cpu time spent up to now is     6846.2 secs

     total energy              =    -470.44820142 Ry
     Harris-Foulkes estimate   =    -470.44820153 Ry
     estimated scf accuracy    <       0.00000083 Ry

     iteration # 13     ecut=    50.00 Ry     beta=0.60
     Davidson diagonalization with overlap
     ethr =  1.62E-09,  avg # of iterations =  4.4

     total cpu time spent up to now is     6914.8 secs

     total energy              =    -470.44820195 Ry
     Harris-Foulkes estimate   =    -470.44820196 Ry
     estimated scf accuracy    <       0.00000020 Ry

     iteration # 14     ecut=    50.00 Ry     beta=0.60
     Davidson diagonalization with overlap
     ethr =  3.95E-10,  avg # of iterations =  1.2

     total cpu time spent up to now is     6960.7 secs

     total energy              =    -470.44820195 Ry
     Harris-Foulkes estimate   =    -470.44820195 Ry
     estimated scf accuracy    <       0.00000009 Ry

     iteration # 15     ecut=    50.00 Ry     beta=0.60
     Davidson diagonalization with overlap
     ethr =  1.75E-10,  avg # of iterations =  1.2

     total cpu time spent up to now is     7007.0 secs

     total energy              =    -470.44820194 Ry
     Harris-Foulkes estimate   =    -470.44820195 Ry
     estimated scf accuracy    <       0.00000005 Ry

     iteration # 16     ecut=    50.00 Ry     beta=0.60
     Davidson diagonalization with overlap
     ethr =  9.23E-11,  avg # of iterations =  2.4

     total cpu time spent up to now is     7055.8 secs

     total energy              =    -470.44820194 Ry
     Harris-Foulkes estimate   =    -470.44820195 Ry
     estimated scf accuracy    <       0.00000001 Ry

     iteration # 17     ecut=    50.00 Ry     beta=0.60
     Davidson diagonalization with overlap
     ethr =  2.92E-11,  avg # of iterations =  3.3

     total cpu time spent up to now is     7108.9 secs

     total energy              =    -470.44820194 Ry
     Harris-Foulkes estimate   =    -470.44820194 Ry
     estimated scf accuracy    <          1.1E-09 Ry

     iteration # 18     ecut=    50.00 Ry     beta=0.60
     Davidson diagonalization with overlap
     ethr =  2.16E-12,  avg # of iterations =  4.1

     total cpu time spent up to now is     7168.6 secs

     total energy              =    -470.44820194 Ry
     Harris-Foulkes estimate   =    -470.44820194 Ry
     estimated scf accuracy    <          1.5E-10 Ry

     iteration # 19     ecut=    50.00 Ry     beta=0.60
     Davidson diagonalization with overlap
     ethr =  2.90E-13,  avg # of iterations =  2.2

     total cpu time spent up to now is     7217.6 secs

     total energy              =    -470.44820194 Ry
     Harris-Foulkes estimate   =    -470.44820194 Ry
     estimated scf accuracy    <          1.1E-10 Ry

     iteration # 20     ecut=    50.00 Ry     beta=0.60
     Davidson diagonalization with overlap
     ethr =  2.12E-13,  avg # of iterations =  1.6

     total cpu time spent up to now is     7264.2 secs

     total energy              =    -470.44820194 Ry
     Harris-Foulkes estimate   =    -470.44820194 Ry
     estimated scf accuracy    <          2.6E-11 Ry

     iteration # 21     ecut=    50.00 Ry     beta=0.60
     Davidson diagonalization with overlap
     ethr =  1.00E-13,  avg # of iterations =  3.2

     total cpu time spent up to now is     7316.3 secs

     total energy              =    -470.44820194 Ry
     Harris-Foulkes estimate   =    -470.44820194 Ry
     estimated scf accuracy    <          2.3E-12 Ry

     iteration # 22     ecut=    50.00 Ry     beta=0.60
     Davidson diagonalization with overlap
     ethr =  1.00E-13,  avg # of iterations =  1.0

     total cpu time spent up to now is     7361.7 secs

     End of self-consistent calculation

     Number of k-points >= 100: set verbosity='high' to print the bands.

     the Fermi energy is    16.7737 ev

!    total energy              =    -470.44820194 Ry
     Harris-Foulkes estimate   =    -470.44820194 Ry
     estimated scf accuracy    <          2.7E-13 Ry

     The total energy is the sum of the following terms:

     one-electron contribution =     -89.67298404 Ry
     hartree contribution      =      69.33962072 Ry
     xc contribution           =     -69.84918488 Ry
     ewald contribution        =    -380.26524295 Ry
     smearing contrib. (-TS)   =      -0.00041081 Ry

     convergence has been achieved in  22 iterations

     Forces acting on atoms (Ry/au):

     atom    1 type  2   force =    -0.00000000   -0.00000000   -0.00000000
     atom    2 type  1   force =     0.00000000    0.00000000    0.00000000
     atom    3 type  1   force =     0.00000000    0.00000000    0.00000000
     atom    4 type  1   force =    -0.00000000   -0.00000000   -0.00000000

     Total force =     0.000000     Total SCF correction =     0.000000


     entering subroutine stress ...

          total   stress  (Ry/bohr**3)                   (kbar)     P=   -5.43
  -0.00003693  -0.00000928  -0.00000928         -5.43     -1.37     -1.37
  -0.00000928  -0.00003693  -0.00000928         -1.37     -5.43     -1.37
  -0.00000928  -0.00000928  -0.00003693         -1.37     -1.37     -5.43


     number of scf cycles    =   4
     number of bfgs steps    =   3

     enthalpy old            =    -470.4459571404 Ry
     enthalpy new            =    -470.4482019442 Ry

     CASE: enthalpy_new < enthalpy_old

     new trust radius        =       0.0051583909 bohr
     new conv_thr            =            1.0E-12 Ry

     new unit-cell volume =    481.02650 a.u.^3 (    71.28077 Ang^3 )

CELL_PARAMETERS (alat=  1.88972599)
  -4.940504914   1.649603614   1.649603614
   1.649603614   1.649603614  -4.940504914
   1.649603614  -4.940504914   1.649603614

ATOMIC_POSITIONS (angstrom)
Ti       0.004152964   0.004152964  -3.290901300
Nb       0.004152964  -3.290901300   0.004152964
Nb      -3.290901300   0.004152964   0.004152964
Nb      -1.641297686  -1.641297686  -1.641297686


     NEW-OLD atomic charge density approx. for the potential
     extrapolated charge   50.82939, renormalised to   51.00000

     total cpu time spent up to now is     7383.9 secs

     per-process dynamical memory:   197.3 Mb

     Self-consistent Calculation

     iteration #  1     ecut=    50.00 Ry     beta=0.60
     Davidson diagonalization with overlap
     ethr =  1.00E-06,  avg # of iterations =  5.1

     total cpu time spent up to now is     7471.9 secs

     total energy              =    -470.44488231 Ry
     Harris-Foulkes estimate   =    -470.65979884 Ry
     estimated scf accuracy    <       0.00303547 Ry

     iteration #  2     ecut=    50.00 Ry     beta=0.60
     Davidson diagonalization with overlap
     c_bands:  1 eigenvalues not converged
     c_bands:  1 eigenvalues not converged
     c_bands:  2 eigenvalues not converged
     c_bands:  1 eigenvalues not converged
     c_bands:  2 eigenvalues not converged
     c_bands:  2 eigenvalues not converged
     c_bands:  1 eigenvalues not converged
     c_bands:  1 eigenvalues not converged
     c_bands:  1 eigenvalues not converged
     c_bands:  1 eigenvalues not converged
     c_bands:  2 eigenvalues not converged
     c_bands:  1 eigenvalues not converged
     c_bands:  1 eigenvalues not converged
     c_bands:  1 eigenvalues not converged
     c_bands:  1 eigenvalues not converged
     c_bands:  1 eigenvalues not converged
     c_bands:  1 eigenvalues not converged
     c_bands:  1 eigenvalues not converged
     c_bands:  1 eigenvalues not converged
     ethr =  5.95E-06,  avg # of iterations =  9.0

     total cpu time spent up to now is     7579.5 secs

     total energy              =    -470.44210090 Ry
     Harris-Foulkes estimate   =    -470.45742757 Ry
     estimated scf accuracy    <       0.11489946 Ry

     iteration #  3     ecut=    50.00 Ry     beta=0.60
     Davidson diagonalization with overlap
     ethr =  5.95E-06,  avg # of iterations =  5.6

     total cpu time spent up to now is     7662.0 secs

     total energy              =    -470.44830606 Ry
     Harris-Foulkes estimate   =    -470.44879250 Ry
     estimated scf accuracy    <       0.00156060 Ry

     iteration #  4     ecut=    50.00 Ry     beta=0.60
     Davidson diagonalization with overlap
     ethr =  3.06E-06,  avg # of iterations =  1.2

     total cpu time spent up to now is     7707.8 secs

     total energy              =    -470.44823862 Ry
     Harris-Foulkes estimate   =    -470.44839983 Ry
     estimated scf accuracy    <       0.00126348 Ry

     iteration #  5     ecut=    50.00 Ry     beta=0.60
     Davidson diagonalization with overlap
     ethr =  2.48E-06,  avg # of iterations =  1.7

     total cpu time spent up to now is     7754.6 secs

     total energy              =    -470.44823620 Ry
     Harris-Foulkes estimate   =    -470.44828260 Ry
     estimated scf accuracy    <       0.00044548 Ry

     iteration #  6     ecut=    50.00 Ry     beta=0.60
     Davidson diagonalization with overlap
     ethr =  8.73E-07,  avg # of iterations =  1.3

     total cpu time spent up to now is     7800.8 secs

     total energy              =    -470.44822029 Ry
     Harris-Foulkes estimate   =    -470.44824752 Ry
     estimated scf accuracy    <       0.00016411 Ry

     iteration #  7     ecut=    50.00 Ry     beta=0.60
     Davidson diagonalization with overlap
     ethr =  3.22E-07,  avg # of iterations =  3.1

     total cpu time spent up to now is     7854.4 secs

     total energy              =    -470.44823857 Ry
     Harris-Foulkes estimate   =    -470.44823844 Ry
     estimated scf accuracy    <       0.00000193 Ry

     iteration #  8     ecut=    50.00 Ry     beta=0.60
     Davidson diagonalization with overlap
     ethr =  3.78E-09,  avg # of iterations =  4.5

     total cpu time spent up to now is     7924.4 secs

     total energy              =    -470.44823986 Ry
     Harris-Foulkes estimate   =    -470.44823949 Ry
     estimated scf accuracy    <       0.00000225 Ry

     iteration #  9     ecut=    50.00 Ry     beta=0.60
     Davidson diagonalization with overlap
     ethr =  3.78E-09,  avg # of iterations =  1.3

     total cpu time spent up to now is     7970.2 secs

     total energy              =    -470.44823906 Ry
     Harris-Foulkes estimate   =    -470.44823994 Ry
     estimated scf accuracy    <       0.00000509 Ry

     iteration # 10     ecut=    50.00 Ry     beta=0.60
     Davidson diagonalization with overlap
     ethr =  3.78E-09,  avg # of iterations =  2.0

     total cpu time spent up to now is     8018.8 secs

     total energy              =    -470.44823861 Ry
     Harris-Foulkes estimate   =    -470.44823920 Ry
     estimated scf accuracy    <       0.00000252 Ry

     iteration # 11     ecut=    50.00 Ry     beta=0.60
     Davidson diagonalization with overlap
     ethr =  3.78E-09,  avg # of iterations =  2.8

     total cpu time spent up to now is     8071.4 secs

     total energy              =    -470.44823885 Ry
     Harris-Foulkes estimate   =    -470.44823886 Ry
     estimated scf accuracy    <       0.00000009 Ry

     iteration # 12     ecut=    50.00 Ry     beta=0.60
     Davidson diagonalization with overlap
     ethr =  1.69E-10,  avg # of iterations =  4.0

     total cpu time spent up to now is     8132.3 secs

     total energy              =    -470.44823887 Ry
     Harris-Foulkes estimate   =    -470.44823887 Ry
     estimated scf accuracy    <       0.00000002 Ry

     iteration # 13     ecut=    50.00 Ry     beta=0.60
     Davidson diagonalization with overlap
     ethr =  3.88E-11,  avg # of iterations =  4.2

     total cpu time spent up to now is     8197.1 secs

     total energy              =    -470.44823887 Ry
     Harris-Foulkes estimate   =    -470.44823888 Ry
     estimated scf accuracy    <       0.00000018 Ry

     iteration # 14     ecut=    50.00 Ry     beta=0.60
     Davidson diagonalization with overlap
     ethr =  3.88E-11,  avg # of iterations =  3.5

     total cpu time spent up to now is     8250.1 secs

     total energy              =    -470.44823886 Ry
     Harris-Foulkes estimate   =    -470.44823887 Ry
     estimated scf accuracy    <       0.00000006 Ry

     iteration # 15     ecut=    50.00 Ry     beta=0.60
     Davidson diagonalization with overlap
     ethr =  3.88E-11,  avg # of iterations =  2.0

     total cpu time spent up to now is     8297.8 secs

     total energy              =    -470.44823886 Ry
     Harris-Foulkes estimate   =    -470.44823886 Ry
     estimated scf accuracy    <       0.00000003 Ry

     iteration # 16     ecut=    50.00 Ry     beta=0.60
     Davidson diagonalization with overlap
     ethr =  3.88E-11,  avg # of iterations =  3.9

     total cpu time spent up to now is     8353.7 secs

     total energy              =    -470.44823886 Ry
     Harris-Foulkes estimate   =    -470.44823886 Ry
     estimated scf accuracy    <          3.0E-09 Ry

     iteration # 17     ecut=    50.00 Ry     beta=0.60
     Davidson diagonalization with overlap
     ethr =  5.84E-12,  avg # of iterations =  2.0

     total cpu time spent up to now is     8401.6 secs

     total energy              =    -470.44823886 Ry
     Harris-Foulkes estimate   =    -470.44823886 Ry
     estimated scf accuracy    <          6.8E-10 Ry

     iteration # 18     ecut=    50.00 Ry     beta=0.60
     Davidson diagonalization with overlap
     ethr =  1.32E-12,  avg # of iterations =  3.5

     total cpu time spent up to now is     8456.0 secs

     total energy              =    -470.44823886 Ry
     Harris-Foulkes estimate   =    -470.44823886 Ry
     estimated scf accuracy    <          2.7E-11 Ry

     iteration # 19     ecut=    50.00 Ry     beta=0.60
     Davidson diagonalization with overlap
     ethr =  1.00E-13,  avg # of iterations =  3.1

     total cpu time spent up to now is     8508.6 secs

     total energy              =    -470.44823886 Ry
     Harris-Foulkes estimate   =    -470.44823886 Ry
     estimated scf accuracy    <          3.4E-11 Ry

     iteration # 20     ecut=    50.00 Ry     beta=0.60
     Davidson diagonalization with overlap
     ethr =  1.00E-13,  avg # of iterations =  1.0

     total cpu time spent up to now is     8554.1 secs

     total energy              =    -470.44823886 Ry
     Harris-Foulkes estimate   =    -470.44823886 Ry
     estimated scf accuracy    <          3.7E-12 Ry

     iteration # 21     ecut=    50.00 Ry     beta=0.60
     Davidson diagonalization with overlap
     ethr =  1.00E-13,  avg # of iterations =  1.5

     total cpu time spent up to now is     8600.6 secs

     total energy              =    -470.44823886 Ry
     Harris-Foulkes estimate   =    -470.44823886 Ry
     estimated scf accuracy    <          1.1E-12 Ry

     iteration # 22     ecut=    50.00 Ry     beta=0.60
     Davidson diagonalization with overlap
     ethr =  1.00E-13,  avg # of iterations =  1.0

     total cpu time spent up to now is     8646.3 secs

     End of self-consistent calculation

     Number of k-points >= 100: set verbosity='high' to print the bands.

     the Fermi energy is    16.8405 ev

!    total energy              =    -470.44823886 Ry
     Harris-Foulkes estimate   =    -470.44823886 Ry
     estimated scf accuracy    <          8.3E-13 Ry

     The total energy is the sum of the following terms:

     one-electron contribution =     -89.05734075 Ry
     hartree contribution      =      69.17000225 Ry
     xc contribution           =     -69.86348984 Ry
     ewald contribution        =    -380.69701428 Ry
     smearing contrib. (-TS)   =      -0.00039624 Ry

     convergence has been achieved in  22 iterations

     Forces acting on atoms (Ry/au):

     atom    1 type  2   force =     0.00000000    0.00000000   -0.00000000
     atom    2 type  1   force =    -0.00000000   -0.00000000   -0.00000000
     atom    3 type  1   force =     0.00000000    0.00000000    0.00000000
     atom    4 type  1   force =     0.00000000    0.00000000    0.00000000

     Total force =     0.000000     Total SCF correction =     0.000000


     entering subroutine stress ...

          total   stress  (Ry/bohr**3)                   (kbar)     P=   -0.21
  -0.00000142  -0.00000819  -0.00000819         -0.21     -1.20     -1.20
  -0.00000819  -0.00000142  -0.00000819         -1.20     -0.21     -1.20
  -0.00000819  -0.00000819  -0.00000142         -1.20     -1.20     -0.21


     number of scf cycles    =   5
     number of bfgs steps    =   4

     enthalpy old            =    -470.4482019442 Ry
     enthalpy new            =    -470.4482388630 Ry

     CASE: enthalpy_new < enthalpy_old

     new trust radius        =       0.0015427601 bohr
     new conv_thr            =            1.0E-12 Ry

     new unit-cell volume =    480.84053 a.u.^3 (    71.25321 Ang^3 )

CELL_PARAMETERS (alat=  1.88972599)
  -4.940631908   1.650152650   1.650152650
   1.650152650   1.650152650  -4.940631908
   1.650152650  -4.940631908   1.650152650

ATOMIC_POSITIONS (angstrom)
Ti       0.004913020   0.004913020  -3.290479259
Nb       0.004913020  -3.290479259   0.004913020
Nb      -3.290479259   0.004913020   0.004913020
Nb      -1.640326609  -1.640326609  -1.640326609


     NEW-OLD atomic charge density approx. for the potential
     extrapolated charge   50.98067, renormalised to   51.00000

     total cpu time spent up to now is     8668.7 secs

     per-process dynamical memory:   197.4 Mb

     Self-consistent Calculation

     iteration #  1     ecut=    50.00 Ry     beta=0.60
     Davidson diagonalization with overlap
     ethr =  1.00E-06,  avg # of iterations =  2.0

     Threshold (ethr) on eigenvalues was too large:
     Diagonalizing with lowered threshold

     Davidson diagonalization with overlap
     ethr =  6.24E-08,  avg # of iterations =  1.5

     total cpu time spent up to now is     8779.4 secs

     total energy              =    -470.44820483 Ry
     Harris-Foulkes estimate   =    -470.47216741 Ry
     estimated scf accuracy    <       0.00003515 Ry

     iteration #  2     ecut=    50.00 Ry     beta=0.60
     Davidson diagonalization with overlap
     ethr =  6.89E-08,  avg # of iterations =  5.1

     total cpu time spent up to now is     8867.0 secs

     total energy              =    -470.44815972 Ry
     Harris-Foulkes estimate   =    -470.44835379 Ry
     estimated scf accuracy    <       0.00157866 Ry

     iteration #  3     ecut=    50.00 Ry     beta=0.60
     Davidson diagonalization with overlap
     ethr =  6.89E-08,  avg # of iterations =  4.5

     total cpu time spent up to now is     8936.4 secs

     total energy              =    -470.44824436 Ry
     Harris-Foulkes estimate   =    -470.44825018 Ry
     estimated scf accuracy    <       0.00001647 Ry

     iteration #  4     ecut=    50.00 Ry     beta=0.60
     Davidson diagonalization with overlap
     ethr =  3.23E-08,  avg # of iterations =  1.8

     total cpu time spent up to now is     8983.5 secs

     total energy              =    -470.44824368 Ry
     Harris-Foulkes estimate   =    -470.44824558 Ry
     estimated scf accuracy    <       0.00001202 Ry

     iteration #  5     ecut=    50.00 Ry     beta=0.60
     Davidson diagonalization with overlap
     ethr =  2.36E-08,  avg # of iterations =  1.9

     total cpu time spent up to now is     9030.7 secs

     total energy              =    -470.44824333 Ry
     Harris-Foulkes estimate   =    -470.44824420 Ry
     estimated scf accuracy    <       0.00000390 Ry

     iteration #  6     ecut=    50.00 Ry     beta=0.60
     Davidson diagonalization with overlap
     ethr =  7.65E-09,  avg # of iterations =  3.3

     total cpu time spent up to now is     9083.5 secs

     total energy              =    -470.44824382 Ry
     Harris-Foulkes estimate   =    -470.44824383 Ry
     estimated scf accuracy    <       0.00000002 Ry

     iteration #  7     ecut=    50.00 Ry     beta=0.60
     Davidson diagonalization with overlap
     ethr =  3.77E-11,  avg # of iterations =  4.8

     total cpu time spent up to now is     9169.8 secs

     total energy              =    -470.44824386 Ry
     Harris-Foulkes estimate   =    -470.44824386 Ry
     estimated scf accuracy    <          3.0E-09 Ry

     iteration #  8     ecut=    50.00 Ry     beta=0.60
     Davidson diagonalization with overlap
     ethr =  5.79E-12,  avg # of iterations =  1.5

     total cpu time spent up to now is     9216.0 secs

     total energy              =    -470.44824386 Ry
     Harris-Foulkes estimate   =    -470.44824386 Ry
     estimated scf accuracy    <          2.2E-09 Ry

     iteration #  9     ecut=    50.00 Ry     beta=0.60
     Davidson diagonalization with overlap
     ethr =  4.36E-12,  avg # of iterations =  3.9

     total cpu time spent up to now is     9272.9 secs

     total energy              =    -470.44824386 Ry
     Harris-Foulkes estimate   =    -470.44824386 Ry
     estimated scf accuracy    <          2.8E-09 Ry

     iteration # 10     ecut=    50.00 Ry     beta=0.60
     Davidson diagonalization with overlap
     ethr =  4.36E-12,  avg # of iterations =  1.0

     total cpu time spent up to now is     9318.1 secs

     total energy              =    -470.44824386 Ry
     Harris-Foulkes estimate   =    -470.44824386 Ry
     estimated scf accuracy    <          1.4E-09 Ry

     iteration # 11     ecut=    50.00 Ry     beta=0.60
     Davidson diagonalization with overlap
     ethr =  2.71E-12,  avg # of iterations =  2.3

     total cpu time spent up to now is     9365.8 secs

     total energy              =    -470.44824386 Ry
     Harris-Foulkes estimate   =    -470.44824386 Ry
     estimated scf accuracy    <          5.0E-11 Ry

     iteration # 12     ecut=    50.00 Ry     beta=0.60
     Davidson diagonalization with overlap
     ethr =  1.00E-13,  avg # of iterations =  4.6

     total cpu time spent up to now is     9428.7 secs

     total energy              =    -470.44824386 Ry
     Harris-Foulkes estimate   =    -470.44824386 Ry
     estimated scf accuracy    <          1.8E-12 Ry

     iteration # 13     ecut=    50.00 Ry     beta=0.60
     Davidson diagonalization with overlap
     ethr =  1.00E-13,  avg # of iterations =  1.0

     total cpu time spent up to now is     9474.0 secs

     End of self-consistent calculation

     Number of k-points >= 100: set verbosity='high' to print the bands.

     the Fermi energy is    16.8481 ev

!    total energy              =    -470.44824386 Ry
     Harris-Foulkes estimate   =    -470.44824386 Ry
     estimated scf accuracy    <          1.5E-13 Ry

     The total energy is the sum of the following terms:

     one-electron contribution =     -88.98805411 Ry
     hartree contribution      =      69.15100486 Ry
     xc contribution           =     -69.86513448 Ry
     ewald contribution        =    -380.74567788 Ry
     smearing contrib. (-TS)   =      -0.00038224 Ry

     convergence has been achieved in  13 iterations

     Forces acting on atoms (Ry/au):

     atom    1 type  2   force =    -0.00000000   -0.00000000   -0.00000000
     atom    2 type  1   force =    -0.00000000   -0.00000000   -0.00000000
     atom    3 type  1   force =    -0.00000000   -0.00000000   -0.00000000
     atom    4 type  1   force =    -0.00000000   -0.00000000   -0.00000000

     Total force =     0.000000     Total SCF correction =     0.000000


     entering subroutine stress ...

          total   stress  (Ry/bohr**3)                   (kbar)     P=    0.40
   0.00000272  -0.00000713  -0.00000713          0.40     -1.05     -1.05
  -0.00000713   0.00000272  -0.00000713         -1.05      0.40     -1.05
  -0.00000713  -0.00000713   0.00000272         -1.05     -1.05      0.40


     number of scf cycles    =   6
     number of bfgs steps    =   5

     enthalpy old            =    -470.4482388630 Ry
     enthalpy new            =    -470.4482438586 Ry

     CASE: enthalpy_new < enthalpy_old

     new trust radius        =       0.0016976457 bohr
     new conv_thr            =            1.0E-12 Ry

     new unit-cell volume =    480.78186 a.u.^3 (    71.24452 Ang^3 )

CELL_PARAMETERS (alat=  1.88972599)
  -4.941329675   1.650981342   1.650981342
   1.650981342   1.650981342  -4.941329675
   1.650981342  -4.941329675   1.650981342

ATOMIC_POSITIONS (angstrom)
Ti       0.005807175   0.005807175  -3.290348333
Nb       0.005807175  -3.290348333   0.005807175
Nb      -3.290348333   0.005807175   0.005807175
Nb      -1.639366991  -1.639366991  -1.639366991


     NEW-OLD atomic charge density approx. for the potential
     extrapolated charge   50.99390, renormalised to   51.00000

     total cpu time spent up to now is     9496.3 secs

     per-process dynamical memory:   197.3 Mb

     Self-consistent Calculation

     iteration #  1     ecut=    50.00 Ry     beta=0.60
     Davidson diagonalization with overlap
     ethr =  1.00E-06,  avg # of iterations =  2.0

     Threshold (ethr) on eigenvalues was too large:
     Diagonalizing with lowered threshold

     Davidson diagonalization with overlap
[...]
     number of iterations used =            8  plain     mixing
     Exchange-correlation      = SLA  PW   PBE  PBE ( 1  4  3  4 0 0)

     celldm(1)=   1.889726  celldm(2)=   0.000000  celldm(3)=   0.000000
     celldm(4)=   0.000000  celldm(5)=   0.000000  celldm(6)=   0.000000

     crystal axes: (cart. coord. in units of alat)
               a(1) = (  -4.946435   1.655585   1.655585 )  
               a(2) = (   1.655585   1.655585  -4.946435 )  
               a(3) = (   1.655585  -4.946435   1.655585 )  

     reciprocal axes: (cart. coord. in units 2 pi/alat)
               b(1) = ( -0.304820 -0.153351 -0.153351 )  
               b(2) = ( -0.153351 -0.153351 -0.304820 )  
               b(3) = ( -0.153351 -0.304820 -0.153351 )  


     PseudoPot. # 1 for Nb read from file:
     ./Nb.pbe-nsp-van.UPF
     MD5 check sum: 0a22fc7fb0ba19a08ca5db297a5d2854
     Pseudo is Ultrasoft + core correction, Zval = 13.0
     Generated by new atomic code, or converted to UPF format
     Using radial grid of  887 points,  6 beta functions with: 
                l(1) =   0
                l(2) =   0
                l(3) =   1
                l(4) =   1
                l(5) =   2
                l(6) =   2
     Q(r) pseudized with  6 coefficients,  rinner =    1.000   1.000   1.000
                                                       1.000   1.000

     PseudoPot. # 2 for Ti read from file:
     ./Ti.pbe-sp-van_ak.UPF
     MD5 check sum: f98fea3e8887528921fefa5636a534ca
     Pseudo is Ultrasoft, Zval = 12.0
     Generated by new atomic code, or converted to UPF format
     Using radial grid of  851 points,  6 beta functions with: 
                l(1) =   0
                l(2) =   0
                l(3) =   1
                l(4) =   1
                l(5) =   2
                l(6) =   2
     Q(r) pseudized with  8 coefficients,  rinner =    1.000   1.000   1.000
                                                       1.000   1.000

     atomic species   valence    mass     pseudopotential
        Nb            13.00    92.90638     Nb( 1.00)
        Ti            12.00    47.86700     Ti( 1.00)

     12 Sym. Ops., with inversion, found ( 8 have fractional translation)



   Cartesian axes

     site n.     atom                  positions (alat units)
         1           Ti  tau(   1) = (   0.0101597   0.0101597  -3.2908502  )
         2           Nb  tau(   2) = (   0.0101597  -3.2908502   0.0101597  )
         3           Nb  tau(   3) = (  -3.2908502   0.0101597   0.0101597  )
         4           Nb  tau(   4) = (  -1.6352654  -1.6352654  -1.6352654  )

     number of k points=   231  Marzari-Vanderbilt smearing, width (Ry)=  0.0200

     Number of k-points >= 100: set verbosity='high' to print them.

     Dense  grid:    90817 G-vectors     FFT dimensions: (  80,  80,  80)

     Smooth grid:    22977 G-vectors     FFT dimensions: (  50,  50,  50)

     Estimated max dynamical RAM per process >     100.90Mb

     Estimated total allocated dynamical RAM >     403.62Mb

     Initial potential from superposition of free atoms

     starting charge   49.99176, renormalised to   51.00000
     Starting wfc are   49 randomized atomic wfcs

     total cpu time spent up to now is    14304.1 secs

     per-process dynamical memory:   178.8 Mb

     Self-consistent Calculation

     iteration #  1     ecut=    50.00 Ry     beta=0.60
     Davidson diagonalization with overlap
     ethr =  1.00E-06,  avg # of iterations = 10.0

     total cpu time spent up to now is    14443.0 secs

     total energy              =    -453.69058117 Ry
     Harris-Foulkes estimate   =    -472.27275786 Ry
     estimated scf accuracy    <      23.23634622 Ry

     iteration #  2     ecut=    50.00 Ry     beta=0.60
     Davidson diagonalization with overlap
     ethr =  1.00E-02,  avg # of iterations =  6.6

     total cpu time spent up to now is    14535.6 secs

     total energy              =    -460.18159118 Ry
     Harris-Foulkes estimate   =    -495.73813285 Ry
     estimated scf accuracy    <     108.31042050 Ry

     iteration #  3     ecut=    50.00 Ry     beta=0.60
     Davidson diagonalization with overlap
     ethr =  1.00E-02,  avg # of iterations =  5.0

     total cpu time spent up to now is    14609.3 secs

     total energy              =    -471.61847467 Ry
     Harris-Foulkes estimate   =    -472.27633768 Ry
     estimated scf accuracy    <       6.45079420 Ry

     iteration #  4     ecut=    50.00 Ry     beta=0.60
     Davidson diagonalization with overlap
     ethr =  1.00E-02,  avg # of iterations =  1.0

     total cpu time spent up to now is    14655.9 secs

     total energy              =    -470.60214416 Ry
     Harris-Foulkes estimate   =    -471.64596065 Ry
     estimated scf accuracy    <       4.98403354 Ry

     iteration #  5     ecut=    50.00 Ry     beta=0.60
     Davidson diagonalization with overlap
     ethr =  9.77E-03,  avg # of iterations =  1.5

     total cpu time spent up to now is    14700.3 secs

     total energy              =    -471.18325122 Ry
     Harris-Foulkes estimate   =    -470.72260972 Ry
     estimated scf accuracy    <       2.12562019 Ry

     iteration #  6     ecut=    50.00 Ry     beta=0.60
     Davidson diagonalization with overlap
     ethr =  4.17E-03,  avg # of iterations =  1.2

     total cpu time spent up to now is    14745.1 secs

     total energy              =    -469.82972031 Ry
     Harris-Foulkes estimate   =    -471.22280150 Ry
     estimated scf accuracy    <       3.28453138 Ry

     iteration #  7     ecut=    50.00 Ry     beta=0.60
     Davidson diagonalization with overlap
     ethr =  4.17E-03,  avg # of iterations =  4.1

     total cpu time spent up to now is    14814.2 secs

     total energy              =    -470.55897868 Ry
     Harris-Foulkes estimate   =    -470.72145847 Ry
     estimated scf accuracy    <       5.10818429 Ry

     iteration #  8     ecut=    50.00 Ry     beta=0.60
     Davidson diagonalization with overlap
     ethr =  4.17E-03,  avg # of iterations =  1.0

     total cpu time spent up to now is    14860.1 secs

     total energy              =    -470.62223896 Ry
     Harris-Foulkes estimate   =    -470.57937168 Ry
     estimated scf accuracy    <       2.77980566 Ry

     iteration #  9     ecut=    50.00 Ry     beta=0.60
     Davidson diagonalization with overlap
     ethr =  4.17E-03,  avg # of iterations =  1.0

     total cpu time spent up to now is    14904.5 secs

     total energy              =    -469.79895774 Ry
     Harris-Foulkes estimate   =    -470.62617734 Ry
     estimated scf accuracy    <       3.54520033 Ry

     iteration # 10     ecut=    50.00 Ry     beta=0.60
     Davidson diagonalization with overlap
     ethr =  4.17E-03,  avg # of iterations =  4.1

     total cpu time spent up to now is    14955.1 secs

     total energy              =    -470.48375112 Ry
     Harris-Foulkes estimate   =    -470.63217879 Ry
     estimated scf accuracy    <       1.42787124 Ry

     iteration # 11     ecut=    50.00 Ry     beta=0.60
     Davidson diagonalization with overlap
     ethr =  2.80E-03,  avg # of iterations =  1.3

     total cpu time spent up to now is    14999.3 secs

     total energy              =    -470.45577586 Ry
     Harris-Foulkes estimate   =    -470.50566558 Ry
     estimated scf accuracy    <       0.73275284 Ry

     iteration # 12     ecut=    50.00 Ry     beta=0.60
     Davidson diagonalization with overlap
     ethr =  1.44E-03,  avg # of iterations =  1.3

     total cpu time spent up to now is    15043.4 secs

     total energy              =    -470.44424149 Ry
     Harris-Foulkes estimate   =    -470.46556556 Ry
     estimated scf accuracy    <       0.38597966 Ry

     iteration # 13     ecut=    50.00 Ry     beta=0.60
     Davidson diagonalization with overlap
     ethr =  7.57E-04,  avg # of iterations =  2.3

     total cpu time spent up to now is    15089.3 secs

     total energy              =    -470.46135321 Ry
     Harris-Foulkes estimate   =    -470.45236154 Ry
     estimated scf accuracy    <       0.16596067 Ry

     iteration # 14     ecut=    50.00 Ry     beta=0.60
     Davidson diagonalization with overlap
     ethr =  3.25E-04,  avg # of iterations =  3.7

     total cpu time spent up to now is    15138.6 secs

     total energy              =    -470.45247894 Ry
     Harris-Foulkes estimate   =    -470.46420811 Ry
     estimated scf accuracy    <       0.23536819 Ry

     iteration # 15     ecut=    50.00 Ry     beta=0.60
     Davidson diagonalization with overlap
     ethr =  3.25E-04,  avg # of iterations =  1.3

     total cpu time spent up to now is    15182.7 secs

     total energy              =    -470.43556671 Ry
     Harris-Foulkes estimate   =    -470.45446898 Ry
     estimated scf accuracy    <       0.13223755 Ry

     iteration # 16     ecut=    50.00 Ry     beta=0.60
     Davidson diagonalization with overlap
     ethr =  2.59E-04,  avg # of iterations =  3.2

     total cpu time spent up to now is    15233.2 secs

     total energy              =    -470.44756598 Ry
     Harris-Foulkes estimate   =    -470.44742236 Ry
     estimated scf accuracy    <       0.00168288 Ry

     iteration # 17     ecut=    50.00 Ry     beta=0.60
     Davidson diagonalization with overlap
     ethr =  3.30E-06,  avg # of iterations =  6.5

     total cpu time spent up to now is    15312.7 secs

     total energy              =    -470.45079440 Ry
     Harris-Foulkes estimate   =    -470.44880948 Ry
     estimated scf accuracy    <       0.01510086 Ry

     iteration # 18     ecut=    50.00 Ry     beta=0.60
     Davidson diagonalization with overlap
     ethr =  3.30E-06,  avg # of iterations =  5.4

     total cpu time spent up to now is    15376.9 secs

     total energy              =    -470.45379207 Ry
     Harris-Foulkes estimate   =    -470.45178721 Ry
     estimated scf accuracy    <       0.06516025 Ry

     iteration # 19     ecut=    50.00 Ry     beta=0.60
     Davidson diagonalization with overlap
     ethr =  3.30E-06,  avg # of iterations =  2.2

     total cpu time spent up to now is    15423.0 secs

     total energy              =    -470.44476367 Ry
     Harris-Foulkes estimate   =    -470.45399347 Ry
     estimated scf accuracy    <       0.09740477 Ry

     iteration # 20     ecut=    50.00 Ry     beta=0.60
     Davidson diagonalization with overlap
     ethr =  3.30E-06,  avg # of iterations =  5.6

     total cpu time spent up to now is    15497.3 secs

     total energy              =    -470.44707270 Ry
     Harris-Foulkes estimate   =    -470.44810498 Ry
     estimated scf accuracy    <       0.00505942 Ry

     iteration # 21     ecut=    50.00 Ry     beta=0.60
     Davidson diagonalization with overlap
     ethr =  3.30E-06,  avg # of iterations =  6.0

     total cpu time spent up to now is    15560.6 secs

     total energy              =    -470.44779056 Ry
     Harris-Foulkes estimate   =    -470.44789435 Ry
     estimated scf accuracy    <       0.00199398 Ry

     iteration # 22     ecut=    50.00 Ry     beta=0.60
     Davidson diagonalization with overlap
     ethr =  3.30E-06,  avg # of iterations =  1.0

     total cpu time spent up to now is    15604.1 secs

     total energy              =    -470.44774857 Ry
     Harris-Foulkes estimate   =    -470.44780779 Ry
     estimated scf accuracy    <       0.00093779 Ry

     iteration # 23     ecut=    50.00 Ry     beta=0.60
     Davidson diagonalization with overlap
     ethr =  1.84E-06,  avg # of iterations =  1.2

     total cpu time spent up to now is    15647.9 secs

     total energy              =    -470.44773147 Ry
     Harris-Foulkes estimate   =    -470.44776557 Ry
     estimated scf accuracy    <       0.00029669 Ry

     iteration # 24     ecut=    50.00 Ry     beta=0.60
     Davidson diagonalization with overlap
     ethr =  5.82E-07,  avg # of iterations =  3.4

     total cpu time spent up to now is    15697.5 secs

     total energy              =    -470.44775837 Ry
     Harris-Foulkes estimate   =    -470.44775862 Ry
     estimated scf accuracy    <       0.00000106 Ry

     iteration # 25     ecut=    50.00 Ry     beta=0.60
     Davidson diagonalization with overlap
     ethr =  2.07E-09,  avg # of iterations =  5.2

     total cpu time spent up to now is    15770.7 secs

     total energy              =    -470.44776120 Ry
     Harris-Foulkes estimate   =    -470.44776159 Ry
     estimated scf accuracy    <       0.00000692 Ry

     iteration # 26     ecut=    50.00 Ry     beta=0.60
     Davidson diagonalization with overlap
     ethr =  2.07E-09,  avg # of iterations =  1.0

     total cpu time spent up to now is    15814.3 secs

     total energy              =    -470.44776071 Ry
     Harris-Foulkes estimate   =    -470.44776125 Ry
     estimated scf accuracy    <       0.00000336 Ry

     iteration # 27     ecut=    50.00 Ry     beta=0.60
     Davidson diagonalization with overlap
     ethr =  2.07E-09,  avg # of iterations =  3.9

     total cpu time spent up to now is    15870.3 secs

     total energy              =    -470.44776101 Ry
     Harris-Foulkes estimate   =    -470.44776105 Ry
     estimated scf accuracy    <       0.00000013 Ry

     iteration # 28     ecut=    50.00 Ry     beta=0.60
     Davidson diagonalization with overlap
     ethr =  2.63E-10,  avg # of iterations =  4.1

     total cpu time spent up to now is    15927.0 secs

     total energy              =    -470.44776103 Ry
     Harris-Foulkes estimate   =    -470.44776106 Ry
     estimated scf accuracy    <       0.00000025 Ry

     iteration # 29     ecut=    50.00 Ry     beta=0.60
     Davidson diagonalization with overlap
     ethr =  2.63E-10,  avg # of iterations =  1.6

     total cpu time spent up to now is    15971.5 secs

     total energy              =    -470.44776104 Ry
     Harris-Foulkes estimate   =    -470.44776104 Ry
     estimated scf accuracy    <       0.00000003 Ry

     iteration # 30     ecut=    50.00 Ry     beta=0.60
     Davidson diagonalization with overlap
     ethr =  6.81E-11,  avg # of iterations =  3.7

     total cpu time spent up to now is    16025.4 secs

     total energy              =    -470.44776104 Ry
     Harris-Foulkes estimate   =    -470.44776104 Ry
     estimated scf accuracy    <          2.7E-10 Ry

     iteration # 31     ecut=    50.00 Ry     beta=0.60
     Davidson diagonalization with overlap
     ethr =  5.22E-13,  avg # of iterations =  4.9

     total cpu time spent up to now is    16094.0 secs

     total energy              =    -470.44776104 Ry
     Harris-Foulkes estimate   =    -470.44776104 Ry
     estimated scf accuracy    <          1.3E-09 Ry

     iteration # 32     ecut=    50.00 Ry     beta=0.60
     Davidson diagonalization with overlap
     ethr =  5.22E-13,  avg # of iterations =  3.5

     total cpu time spent up to now is    16143.2 secs

     total energy              =    -470.44776104 Ry
     Harris-Foulkes estimate   =    -470.44776104 Ry
     estimated scf accuracy    <          9.2E-11 Ry

     iteration # 33     ecut=    50.00 Ry     beta=0.60
     Davidson diagonalization with overlap
     ethr =  1.80E-13,  avg # of iterations =  3.0

     total cpu time spent up to now is    16191.2 secs

     total energy              =    -470.44776104 Ry
     Harris-Foulkes estimate   =    -470.44776104 Ry
     estimated scf accuracy    <          1.2E-11 Ry

     iteration # 34     ecut=    50.00 Ry     beta=0.60
     Davidson diagonalization with overlap
     ethr =  1.00E-13,  avg # of iterations =  2.1

     total cpu time spent up to now is    16236.1 secs

     total energy              =    -470.44776104 Ry
     Harris-Foulkes estimate   =    -470.44776104 Ry
     estimated scf accuracy    <          1.7E-12 Ry

     iteration # 35     ecut=    50.00 Ry     beta=0.60
     Davidson diagonalization with overlap
     ethr =  1.00E-13,  avg # of iterations =  1.0

     total cpu time spent up to now is    16279.0 secs

     End of self-consistent calculation

     Number of k-points >= 100: set verbosity='high' to print the bands.

     the Fermi energy is    16.8424 ev

!    total energy              =    -470.44776104 Ry
     Harris-Foulkes estimate   =    -470.44776104 Ry
     estimated scf accuracy    <          2.6E-14 Ry

     The total energy is the sum of the following terms:

     one-electron contribution =     -89.05240472 Ry
     hartree contribution      =      69.17014362 Ry
     xc contribution           =     -69.86384867 Ry
     ewald contribution        =    -380.70136285 Ry
     smearing contrib. (-TS)   =      -0.00028843 Ry

     convergence has been achieved in  35 iterations

     Forces acting on atoms (Ry/au):

     atom    1 type  2   force =    -0.00000000   -0.00000000   -0.00000000
     atom    2 type  1   force =     0.00000000    0.00000000    0.00000000
     atom    3 type  1   force =    -0.00000000   -0.00000000   -0.00000000
     atom    4 type  1   force =    -0.00000000   -0.00000000   -0.00000000

     Total force =     0.000000     Total SCF correction =     0.000000


     entering subroutine stress ...

          total   stress  (Ry/bohr**3)                   (kbar)     P=   -1.35
  -0.00000916  -0.00000005  -0.00000005         -1.35     -0.01     -0.01
  -0.00000005  -0.00000916  -0.00000005         -0.01     -1.35     -0.01
  -0.00000005  -0.00000005  -0.00000916         -0.01     -0.01     -1.35


     init_run     :     53.69s CPU     55.10s WALL (       2 calls)
     electrons    :  15564.93s CPU  15959.92s WALL (      13 calls)
     update_pot   :     32.59s CPU     32.98s WALL (      11 calls)
     forces       :     84.29s CPU     86.35s WALL (      13 calls)
     stress       :    147.15s CPU    151.34s WALL (      13 calls)

     Called by init_run:
     wfcinit      :     49.79s CPU     50.94s WALL (       2 calls)
     potinit      :      1.32s CPU      1.38s WALL (       2 calls)

     Called by electrons:
     c_bands      :  12698.96s CPU  12992.33s WALL (     280 calls)
     sum_band     :   2715.34s CPU   2798.85s WALL (     280 calls)
     v_of_rho     :     53.39s CPU     55.80s WALL (     286 calls)
     newd         :     89.45s CPU    105.19s WALL (     286 calls)
     mix_rho      :      8.30s CPU      8.71s WALL (     280 calls)

     Called by c_bands:
     init_us_2    :    148.96s CPU    152.40s WALL (  135828 calls)
     cegterg      :  12398.98s CPU  12686.00s WALL (   64680 calls)

     Called by sum_band:
     sum_band:bec :      5.45s CPU      5.52s WALL (   64680 calls)
     addusdens    :    113.57s CPU    133.93s WALL (     280 calls)

     Called by *egterg:
     h_psi        :   9255.76s CPU   9510.73s WALL (  257260 calls)
     s_psi        :    579.26s CPU    584.77s WALL (  257260 calls)
     g_psi        :     19.12s CPU     19.26s WALL (  192118 calls)
     cdiaghg      :    638.40s CPU    643.53s WALL (  252640 calls)

     Called by h_psi:
     h_psi:pot    :   9194.24s CPU   9447.97s WALL (  257260 calls)
     h_psi:calbec :    759.48s CPU    778.40s WALL (  257260 calls)
     vloc_psi     :   7907.75s CPU   8138.28s WALL (  257260 calls)
     add_vuspsi   :    524.96s CPU    529.85s WALL (  257260 calls)

     General routines
     calbec       :   1098.61s CPU   1124.87s WALL (  336955 calls)
     fft          :     50.77s CPU     54.62s WALL (    4888 calls)
     ffts         :      0.62s CPU      0.64s WALL (     566 calls)
     fftw         :   6070.69s CPU   6235.90s WALL (11942902 calls)
     interpolate  :      8.35s CPU      8.79s WALL (     566 calls)

     Parallel routines
     fft_scatter  :   1217.27s CPU   1257.75s WALL (11948356 calls)

     PWSCF        :     4h24m CPU        4h31m WALL


   This run was terminated on:   0:53:58   9May2018            

=------------------------------------------------------------------------------=
   JOB DONE.
=------------------------------------------------------------------------------=
