
     Program PWSCF v.6.3MaX starts on 28Jan2020 at 13:49:49 

     This program is part of the open-source Quantum ESPRESSO suite
     for quantum simulation of materials; please cite
         "P. Giannozzi et al., J. Phys.:Condens. Matter 21 395502 (2009);
         "P. Giannozzi et al., J. Phys.:Condens. Matter 29 465901 (2017);
          URL http://www.quantum-espresso.org", 
     in publications or presentations arising from this work. More details at
     http://www.quantum-espresso.org/quote

     Parallel version (MPI), running on     4 processors

     MPI processes distributed on     1 nodes
     R & G space division:  proc/nbgrp/npool/nimage =       4
     Waiting for input...
     Reading input from standard input

     Current dimensions of program PWSCF are:
     Max number of different atomic species (ntypx) = 10
     Max number of k-points (npk) =  40000
     Max angular momentum in pseudopotentials (lmaxx) =  3
     Message from routine iosys:
     minimal I/O required, wf_collect reset to FALSE

     Subspace diagonalization in iterative solution of the eigenvalue problem:
     a serial algorithm will be used

 
     Parallelization info
     --------------------
     sticks:   dense  smooth     PW     G-vecs:    dense   smooth      PW
     Min         439     174     53                27693     6992    1169
     Max         440     175     54                27696     6999    1176
     Sum        1757     697    213               110779    27979    4685
 


     bravais-lattice index     =            0
     lattice parameter (alat)  =       1.8897  a.u.
     unit-cell volume          =     586.6735 (a.u.)^3
     number of atoms/cell      =            4
     number of atomic types    =            2
     number of electrons       =        51.00
     number of Kohn-Sham states=           31
     kinetic-energy cutoff     =      50.0000  Ry
     charge density cutoff     =     500.0000  Ry
     convergence threshold     =      1.0E-10
     mixing beta               =       0.6000
     number of iterations used =            8  plain     mixing
     Exchange-correlation      = SLA PW PBE PBE ( 1  4  3  4 0 0)
     nstep                     =           50


     celldm(1)=   1.889726  celldm(2)=   0.000000  celldm(3)=   0.000000
     celldm(4)=   0.000000  celldm(5)=   0.000000  celldm(6)=   0.000000

     crystal axes: (cart. coord. in units of alat)
               a(1) = (  -3.516063   0.000000   0.000000 )  
               a(2) = (   0.000000   0.000000   3.516063 )  
               a(3) = (   0.000000   7.032126   0.000000 )  

     reciprocal axes: (cart. coord. in units 2 pi/alat)
               b(1) = ( -0.284409  0.000000  0.000000 )  
               b(2) = (  0.000000  0.000000  0.284409 )  
               b(3) = (  0.000000  0.142205  0.000000 )  


     PseudoPot. # 1 for Nb read from file:
     ./Nb.pbe-nsp-van.UPF
     MD5 check sum: 0a22fc7fb0ba19a08ca5db297a5d2854
     Pseudo is Ultrasoft + core correction, Zval = 13.0
     Generated by new atomic code, or converted to UPF format
     Using radial grid of  887 points,  6 beta functions with: 
                l(1) =   0
                l(2) =   0
                l(3) =   1
                l(4) =   1
                l(5) =   2
                l(6) =   2
     Q(r) pseudized with  6 coefficients,  rinner =    1.000   1.000   1.000
                                                       1.000   1.000

     PseudoPot. # 2 for Ti read from file:
     ./Ti.pbe-sp-van_ak.UPF
     MD5 check sum: f98fea3e8887528921fefa5636a534ca
     Pseudo is Ultrasoft, Zval = 12.0
     Generated by new atomic code, or converted to UPF format
     Using radial grid of  851 points,  6 beta functions with: 
                l(1) =   0
                l(2) =   0
                l(3) =   1
                l(4) =   1
                l(5) =   2
                l(6) =   2
     Q(r) pseudized with  8 coefficients,  rinner =    1.000   1.000   1.000
                                                       1.000   1.000

     atomic species   valence    mass     pseudopotential
        Nb            13.00    92.90638     Nb( 1.00)
        Ti            12.00    47.86700     Ti( 1.00)

     16 Sym. Ops., with inversion, found ( 8 have fractional translation)



   Cartesian axes

     site n.     atom                  positions (alat units)
         1           Ti  tau(   1) = (  -1.7580316   1.7580316   1.7580316  )
         2           Nb  tau(   2) = (  -3.5160633   3.5160633   3.5160633  )
         3           Nb  tau(   3) = (  -1.7580316   5.2740949   1.7580316  )
         4           Nb  tau(   4) = (  -3.5160633   7.0321265   3.5160633  )

     number of k points=   225  Marzari-Vanderbilt smearing, width (Ry)=  0.0200

     Number of k-points >= 100: set verbosity='high' to print them.

     Dense  grid:   110779 G-vectors     FFT dimensions: (  48,  48,  96)

     Smooth grid:    27979 G-vectors     FFT dimensions: (  30,  30,  60)

     Estimated max dynamical RAM per process >     197.60 MB

     Estimated total dynamical RAM >     790.41 MB

     Initial potential from superposition of free atoms

     starting charge   49.99176, renormalised to   51.00000
     Starting wfcs are   49 randomized atomic wfcs

     total cpu time spent up to now is        8.5 secs

     Self-consistent Calculation

     iteration #  1     ecut=    50.00 Ry     beta= 0.60
     Davidson diagonalization with overlap
     ethr =  1.00E-02,  avg # of iterations =  2.7

     total cpu time spent up to now is       20.8 secs

     total energy              =    -437.40271823 Ry
     Harris-Foulkes estimate   =    -473.53234057 Ry
     estimated scf accuracy    <      44.68237554 Ry

     iteration #  2     ecut=    50.00 Ry     beta= 0.60
     Davidson diagonalization with overlap
     ethr =  1.00E-02,  avg # of iterations =  7.2

     total cpu time spent up to now is       44.6 secs

     total energy              =    -450.53477496 Ry
     Harris-Foulkes estimate   =    -537.86247581 Ry
     estimated scf accuracy    <     300.05579112 Ry

     iteration #  3     ecut=    50.00 Ry     beta= 0.60
     Davidson diagonalization with overlap
     ethr =  1.00E-02,  avg # of iterations =  7.1

     total cpu time spent up to now is       66.7 secs

     total energy              =    -471.34923070 Ry
     Harris-Foulkes estimate   =    -476.51389875 Ry
     estimated scf accuracy    <      22.39639334 Ry

     iteration #  4     ecut=    50.00 Ry     beta= 0.60
     Davidson diagonalization with overlap
     ethr =  1.00E-02,  avg # of iterations =  3.9

     total cpu time spent up to now is       79.8 secs

     total energy              =    -471.65172529 Ry
     Harris-Foulkes estimate   =    -473.24064846 Ry
     estimated scf accuracy    <      14.79412603 Ry

     iteration #  5     ecut=    50.00 Ry     beta= 0.60
     Davidson diagonalization with overlap
     ethr =  1.00E-02,  avg # of iterations =  1.7

     total cpu time spent up to now is       89.9 secs

     total energy              =    -471.30053012 Ry
     Harris-Foulkes estimate   =    -471.85518317 Ry
     estimated scf accuracy    <       7.59806316 Ry

     iteration #  6     ecut=    50.00 Ry     beta= 0.60
     Davidson diagonalization with overlap
     ethr =  1.00E-02,  avg # of iterations =  1.0

     total cpu time spent up to now is       99.6 secs

     total energy              =    -469.79665770 Ry
     Harris-Foulkes estimate   =    -471.33971456 Ry
     estimated scf accuracy    <       5.92665496 Ry

     iteration #  7     ecut=    50.00 Ry     beta= 0.60
     Davidson diagonalization with overlap
     ethr =  1.00E-02,  avg # of iterations =  3.6

     total cpu time spent up to now is      111.7 secs

     total energy              =    -470.31978016 Ry
     Harris-Foulkes estimate   =    -470.30813547 Ry
     estimated scf accuracy    <       0.13963685 Ry

     iteration #  8     ecut=    50.00 Ry     beta= 0.60
     Davidson diagonalization with overlap
     ethr =  2.74E-04,  avg # of iterations =  5.9

     total cpu time spent up to now is      130.8 secs

     total energy              =    -470.40917622 Ry
     Harris-Foulkes estimate   =    -470.43834979 Ry
     estimated scf accuracy    <       1.33244257 Ry

     iteration #  9     ecut=    50.00 Ry     beta= 0.60
     Davidson diagonalization with overlap
     ethr =  2.74E-04,  avg # of iterations =  1.0

     total cpu time spent up to now is      140.5 secs

     total energy              =    -470.55598798 Ry
     Harris-Foulkes estimate   =    -470.41594434 Ry
     estimated scf accuracy    <       0.75654053 Ry

     iteration # 10     ecut=    50.00 Ry     beta= 0.60
     Davidson diagonalization with overlap
     ethr =  2.74E-04,  avg # of iterations =  5.0

     total cpu time spent up to now is      158.6 secs

     total energy              =    -469.22238537 Ry
     Harris-Foulkes estimate   =    -471.17025371 Ry
     estimated scf accuracy    <      21.14402846 Ry

     iteration # 11     ecut=    50.00 Ry     beta= 0.60
     Davidson diagonalization with overlap
     ethr =  2.74E-04,  avg # of iterations =  6.9

     total cpu time spent up to now is      179.2 secs

     total energy              =    -470.31860321 Ry
     Harris-Foulkes estimate   =    -470.39098674 Ry
     estimated scf accuracy    <       0.22752099 Ry

     iteration # 12     ecut=    50.00 Ry     beta= 0.60
     Davidson diagonalization with overlap
     ethr =  2.74E-04,  avg # of iterations =  5.6

     total cpu time spent up to now is      195.5 secs

     total energy              =    -470.39224933 Ry
     Harris-Foulkes estimate   =    -470.36457191 Ry
     estimated scf accuracy    <       0.21835792 Ry

     iteration # 13     ecut=    50.00 Ry     beta= 0.60
     Davidson diagonalization with overlap
     ethr =  2.74E-04,  avg # of iterations =  3.2

     total cpu time spent up to now is      206.8 secs

     total energy              =    -470.33713009 Ry
     Harris-Foulkes estimate   =    -470.41065848 Ry
     estimated scf accuracy    <       1.14870337 Ry

     iteration # 14     ecut=    50.00 Ry     beta= 0.60
     Davidson diagonalization with overlap
     ethr =  2.74E-04,  avg # of iterations =  2.8

     total cpu time spent up to now is      217.7 secs

     total energy              =    -470.36182391 Ry
     Harris-Foulkes estimate   =    -470.36055268 Ry
     estimated scf accuracy    <       0.18018366 Ry

     iteration # 15     ecut=    50.00 Ry     beta= 0.60
     Davidson diagonalization with overlap
     ethr =  2.74E-04,  avg # of iterations =  1.0

     total cpu time spent up to now is      227.4 secs

     total energy              =    -470.35289663 Ry
     Harris-Foulkes estimate   =    -470.36225478 Ry
     estimated scf accuracy    <       0.19519427 Ry

     iteration # 16     ecut=    50.00 Ry     beta= 0.60
     Davidson diagonalization with overlap
     ethr =  2.74E-04,  avg # of iterations =  1.0

     total cpu time spent up to now is      237.0 secs

     total energy              =    -470.35110524 Ry
     Harris-Foulkes estimate   =    -470.35487662 Ry
     estimated scf accuracy    <       0.06458543 Ry

     iteration # 17     ecut=    50.00 Ry     beta= 0.60
     Davidson diagonalization with overlap
     ethr =  1.27E-04,  avg # of iterations =  2.2

     total cpu time spent up to now is      247.5 secs

     total energy              =    -470.35260331 Ry
     Harris-Foulkes estimate   =    -470.35335496 Ry
     estimated scf accuracy    <       0.01025461 Ry

     iteration # 18     ecut=    50.00 Ry     beta= 0.60
     Davidson diagonalization with overlap
     ethr =  2.01E-05,  avg # of iterations =  5.2

     total cpu time spent up to now is      261.8 secs

     total energy              =    -470.35327210 Ry
     Harris-Foulkes estimate   =    -470.35375581 Ry
     estimated scf accuracy    <       0.00251013 Ry

     iteration # 19     ecut=    50.00 Ry     beta= 0.60
     Davidson diagonalization with overlap
     ethr =  4.92E-06,  avg # of iterations =  3.7

     total cpu time spent up to now is      274.5 secs

     total energy              =    -470.35326548 Ry
     Harris-Foulkes estimate   =    -470.35343749 Ry
     estimated scf accuracy    <       0.00082174 Ry

     iteration # 20     ecut=    50.00 Ry     beta= 0.60
     Davidson diagonalization with overlap
     ethr =  1.61E-06,  avg # of iterations =  4.4

     total cpu time spent up to now is      288.4 secs

     total energy              =    -470.35342005 Ry
     Harris-Foulkes estimate   =    -470.35343811 Ry
     estimated scf accuracy    <       0.00012696 Ry

     iteration # 21     ecut=    50.00 Ry     beta= 0.60
     Davidson diagonalization with overlap
     ethr =  2.49E-07,  avg # of iterations =  2.0

     total cpu time spent up to now is      298.8 secs

     total energy              =    -470.35341608 Ry
     Harris-Foulkes estimate   =    -470.35342611 Ry
     estimated scf accuracy    <       0.00004588 Ry

     iteration # 22     ecut=    50.00 Ry     beta= 0.60
     Davidson diagonalization with overlap
     ethr =  9.00E-08,  avg # of iterations =  3.8

     total cpu time spent up to now is      311.9 secs

     total energy              =    -470.35342568 Ry
     Harris-Foulkes estimate   =    -470.35342713 Ry
     estimated scf accuracy    <       0.00002745 Ry

     iteration # 23     ecut=    50.00 Ry     beta= 0.60
     Davidson diagonalization with overlap
     ethr =  5.38E-08,  avg # of iterations =  1.0

     total cpu time spent up to now is      321.5 secs

     total energy              =    -470.35342540 Ry
     Harris-Foulkes estimate   =    -470.35342598 Ry
     estimated scf accuracy    <       0.00001937 Ry

     iteration # 24     ecut=    50.00 Ry     beta= 0.60
     Davidson diagonalization with overlap
     ethr =  3.80E-08,  avg # of iterations =  1.0

     total cpu time spent up to now is      331.2 secs

     total energy              =    -470.35342430 Ry
     Harris-Foulkes estimate   =    -470.35342553 Ry
     estimated scf accuracy    <       0.00001290 Ry

     iteration # 25     ecut=    50.00 Ry     beta= 0.60
     Davidson diagonalization with overlap
     ethr =  2.53E-08,  avg # of iterations =  2.5

     total cpu time spent up to now is      341.8 secs

     total energy              =    -470.35342468 Ry
     Harris-Foulkes estimate   =    -470.35342481 Ry
     estimated scf accuracy    <       0.00000130 Ry

     iteration # 26     ecut=    50.00 Ry     beta= 0.60
     Davidson diagonalization with overlap
     ethr =  2.54E-09,  avg # of iterations =  4.5

     total cpu time spent up to now is      355.7 secs

     total energy              =    -470.35342511 Ry
     Harris-Foulkes estimate   =    -470.35342515 Ry
     estimated scf accuracy    <       0.00000057 Ry

     iteration # 27     ecut=    50.00 Ry     beta= 0.60
     Davidson diagonalization with overlap
     ethr =  1.12E-09,  avg # of iterations =  1.3

     total cpu time spent up to now is      365.6 secs

     total energy              =    -470.35342505 Ry
     Harris-Foulkes estimate   =    -470.35342512 Ry
     estimated scf accuracy    <       0.00000043 Ry

     iteration # 28     ecut=    50.00 Ry     beta= 0.60
     Davidson diagonalization with overlap
     ethr =  8.44E-10,  avg # of iterations =  3.0

     total cpu time spent up to now is      377.1 secs

     total energy              =    -470.35342509 Ry
     Harris-Foulkes estimate   =    -470.35342509 Ry
     estimated scf accuracy    <       0.00000002 Ry

     iteration # 29     ecut=    50.00 Ry     beta= 0.60
     Davidson diagonalization with overlap
     ethr =  4.52E-11,  avg # of iterations =  3.5

     total cpu time spent up to now is      389.2 secs

     total energy              =    -470.35342509 Ry
     Harris-Foulkes estimate   =    -470.35342509 Ry
     estimated scf accuracy    <       0.00000001 Ry

     iteration # 30     ecut=    50.00 Ry     beta= 0.60
     Davidson diagonalization with overlap
     ethr =  2.10E-11,  avg # of iterations =  2.7

     total cpu time spent up to now is      400.2 secs

     total energy              =    -470.35342509 Ry
     Harris-Foulkes estimate   =    -470.35342509 Ry
     estimated scf accuracy    <          6.0E-10 Ry

     iteration # 31     ecut=    50.00 Ry     beta= 0.60
     Davidson diagonalization with overlap
     ethr =  1.17E-12,  avg # of iterations =  4.7

     total cpu time spent up to now is      415.6 secs

     total energy              =    -470.35342509 Ry
     Harris-Foulkes estimate   =    -470.35342509 Ry
     estimated scf accuracy    <          3.3E-09 Ry

     iteration # 32     ecut=    50.00 Ry     beta= 0.60
     Davidson diagonalization with overlap
     ethr =  1.17E-12,  avg # of iterations =  2.9

     total cpu time spent up to now is      427.0 secs

     total energy              =    -470.35342509 Ry
     Harris-Foulkes estimate   =    -470.35342509 Ry
     estimated scf accuracy    <          1.3E-09 Ry

     iteration # 33     ecut=    50.00 Ry     beta= 0.60
     Davidson diagonalization with overlap
     ethr =  1.17E-12,  avg # of iterations =  2.8

     total cpu time spent up to now is      437.9 secs

     total energy              =    -470.35342509 Ry
     Harris-Foulkes estimate   =    -470.35342509 Ry
     estimated scf accuracy    <          2.5E-10 Ry

     iteration # 34     ecut=    50.00 Ry     beta= 0.60
     Davidson diagonalization with overlap
     ethr =  4.86E-13,  avg # of iterations =  3.1

     total cpu time spent up to now is      449.3 secs

     End of self-consistent calculation

     Number of k-points >= 100: set verbosity='high' to print the bands.

     the Fermi energy is    13.2923 ev

!    total energy              =    -470.35342509 Ry
     Harris-Foulkes estimate   =    -470.35342509 Ry
     estimated scf accuracy    <          2.6E-11 Ry

     The total energy is the sum of the following terms:

     one-electron contribution =    -124.30886820 Ry
     hartree contribution      =      79.36177428 Ry
     xc contribution           =     -69.11967897 Ry
     ewald contribution        =    -356.28636831 Ry
     smearing contrib. (-TS)   =      -0.00028389 Ry

     convergence has been achieved in  34 iterations

     Forces acting on atoms (cartesian axes, Ry/au):

     atom    1 type  2   force =     0.00000000   -0.00000000    0.00000000
     atom    2 type  1   force =     0.00000000    0.02093636    0.00000000
     atom    3 type  1   force =     0.00000000    0.00000000    0.00000000
     atom    4 type  1   force =     0.00000000   -0.02093636    0.00000000

     Total force =     0.029608     Total SCF correction =     0.000008


     Computing stress (Cartesian axis) and pressure

          total   stress  (Ry/bohr**3)                   (kbar)     P= -212.02
  -0.00143004   0.00000000   0.00000000       -210.37      0.00      0.00
   0.00000000  -0.00146368   0.00000000          0.00   -215.32      0.00
   0.00000000   0.00000000  -0.00143004          0.00      0.00   -210.37


     BFGS Geometry Optimization

     number of scf cycles    =   1
     number of bfgs steps    =   0

     enthalpy new            =    -470.3534250930 Ry

     new trust radius        =       0.1772617767 bohr
     new conv_thr            =            1.0E-10 Ry

     new unit-cell volume =    525.51502 a.u.^3 (    77.87329 Ang^3 )
     density =      6.96399 g/cm^3

CELL_PARAMETERS (alat=  1.88972599)
  -3.390360512   0.000000000   0.000000000
   0.000000000   0.000000000   3.390360512
   0.000000000   6.774806009   0.000000000

ATOMIC_POSITIONS (angstrom)
Ti      -1.695180256   1.693701502   1.695180256
Nb      -3.390360512   3.398076645   3.390360512
Nb      -1.695180256   5.081104507   1.695180256
Nb      -3.390360512   6.764132369   3.390360512


     NEW-OLD atomic charge density approx. for the potential
     extrapolated charge   45.18205, renormalised to   51.00000

     total cpu time spent up to now is      458.3 secs

     Self-consistent Calculation

     iteration #  1     ecut=    50.00 Ry     beta= 0.60
     Davidson diagonalization with overlap
     c_bands:  1 eigenvalues not converged
     c_bands:  1 eigenvalues not converged
     c_bands:  1 eigenvalues not converged
     c_bands:  1 eigenvalues not converged
     c_bands:  1 eigenvalues not converged
     c_bands:  1 eigenvalues not converged
     c_bands:  1 eigenvalues not converged
     c_bands:  2 eigenvalues not converged
     c_bands:  1 eigenvalues not converged
     c_bands:  1 eigenvalues not converged
     c_bands:  1 eigenvalues not converged
     c_bands:  1 eigenvalues not converged
     c_bands:  2 eigenvalues not converged
     c_bands:  1 eigenvalues not converged
     c_bands:  1 eigenvalues not converged
     c_bands:  1 eigenvalues not converged
     c_bands:  1 eigenvalues not converged
     c_bands:  1 eigenvalues not converged
     ethr =  1.00E-06,  avg # of iterations = 14.0

     total cpu time spent up to now is      496.5 secs

     total energy              =    -451.15862930 Ry
     Harris-Foulkes estimate   =    -479.79609374 Ry
     estimated scf accuracy    <      21.42648847 Ry

     iteration #  2     ecut=    50.00 Ry     beta= 0.60
     Davidson diagonalization with overlap
     ethr =  1.00E-02,  avg # of iterations =  6.3

     total cpu time spent up to now is      517.9 secs

     total energy              =    -460.59650186 Ry
     Harris-Foulkes estimate   =    -498.13363464 Ry
     estimated scf accuracy    <     125.88139642 Ry

     iteration #  3     ecut=    50.00 Ry     beta= 0.60
     Davidson diagonalization with overlap
     ethr =  1.00E-02,  avg # of iterations =  5.0

     total cpu time spent up to now is      537.0 secs

     total energy              =    -471.12019623 Ry
     Harris-Foulkes estimate   =    -474.75706598 Ry
     estimated scf accuracy    <      14.31109419 Ry

     iteration #  4     ecut=    50.00 Ry     beta= 0.60
     Davidson diagonalization with overlap
     ethr =  1.00E-02,  avg # of iterations =  3.8

     total cpu time spent up to now is      550.4 secs

     total energy              =    -471.46988364 Ry
     Harris-Foulkes estimate   =    -472.77048631 Ry
     estimated scf accuracy    <       8.60995924 Ry

     iteration #  5     ecut=    50.00 Ry     beta= 0.60
     Davidson diagonalization with overlap
     ethr =  1.00E-02,  avg # of iterations =  1.0

     total cpu time spent up to now is      560.1 secs

     total energy              =    -470.94273083 Ry
     Harris-Foulkes estimate   =    -471.67345338 Ry
     estimated scf accuracy    <       4.59989843 Ry

     iteration #  6     ecut=    50.00 Ry     beta= 0.60
     Davidson diagonalization with overlap
     ethr =  9.02E-03,  avg # of iterations =  1.0

     total cpu time spent up to now is      569.8 secs

     total energy              =    -470.59510003 Ry
     Harris-Foulkes estimate   =    -471.01814558 Ry
     estimated scf accuracy    <       2.76295353 Ry

     iteration #  7     ecut=    50.00 Ry     beta= 0.60
     Davidson diagonalization with overlap
     ethr =  5.42E-03,  avg # of iterations =  1.2

     total cpu time spent up to now is      579.7 secs

     total energy              =    -470.52962447 Ry
     Harris-Foulkes estimate   =    -470.63882468 Ry
     estimated scf accuracy    <       1.65672725 Ry

     iteration #  8     ecut=    50.00 Ry     beta= 0.60
     Davidson diagonalization with overlap
     ethr =  3.25E-03,  avg # of iterations =  2.4

     total cpu time spent up to now is      590.5 secs

     total energy              =    -470.64751480 Ry
     Harris-Foulkes estimate   =    -470.57268862 Ry
     estimated scf accuracy    <       1.00661966 Ry

     iteration #  9     ecut=    50.00 Ry     beta= 0.60
     Davidson diagonalization with overlap
     ethr =  1.97E-03,  avg # of iterations =  1.0

     total cpu time spent up to now is      600.3 secs

     total energy              =    -470.49128453 Ry
     Harris-Foulkes estimate   =    -470.66523551 Ry
     estimated scf accuracy    <       1.39255710 Ry

     iteration # 10     ecut=    50.00 Ry     beta= 0.60
     Davidson diagonalization with overlap
     ethr =  1.97E-03,  avg # of iterations =  1.4

     total cpu time spent up to now is      610.4 secs

     total energy              =    -470.13664225 Ry
     Harris-Foulkes estimate   =    -470.50906551 Ry
     estimated scf accuracy    <       0.82501529 Ry

     iteration # 11     ecut=    50.00 Ry     beta= 0.60
     Davidson diagonalization with overlap
     ethr =  1.62E-03,  avg # of iterations =  4.5

     total cpu time spent up to now is      627.4 secs

     total energy              =    -470.52663140 Ry
     Harris-Foulkes estimate   =    -470.82166232 Ry
     estimated scf accuracy    <       9.94205878 Ry

     iteration # 12     ecut=    50.00 Ry     beta= 0.60
     Davidson diagonalization with overlap
     ethr =  1.62E-03,  avg # of iterations =  1.0

     total cpu time spent up to now is      637.2 secs

     total energy              =    -470.59683558 Ry
     Harris-Foulkes estimate   =    -470.57381919 Ry
     estimated scf accuracy    <       4.08232968 Ry

     iteration # 13     ecut=    50.00 Ry     beta= 0.60
     Davidson diagonalization with overlap
     ethr =  1.62E-03,  avg # of iterations =  1.0

     total cpu time spent up to now is      647.0 secs

     total energy              =    -470.51961745 Ry
     Harris-Foulkes estimate   =    -470.59961522 Ry
     estimated scf accuracy    <       4.62854171 Ry

     iteration # 14     ecut=    50.00 Ry     beta= 0.60
     Davidson diagonalization with overlap
     ethr =  1.62E-03,  avg # of iterations =  1.0

     total cpu time spent up to now is      656.7 secs

     total energy              =    -470.74664581 Ry
     Harris-Foulkes estimate   =    -470.53043409 Ry
     estimated scf accuracy    <       2.83472036 Ry

     iteration # 15     ecut=    50.00 Ry     beta= 0.60
     Davidson diagonalization with overlap
     ethr =  1.62E-03,  avg # of iterations =  1.6

     total cpu time spent up to now is      666.9 secs

     total energy              =    -470.64182865 Ry
     Harris-Foulkes estimate   =    -470.83700276 Ry
     estimated scf accuracy    <       9.58882408 Ry

     iteration # 16     ecut=    50.00 Ry     beta= 0.60
     Davidson diagonalization with overlap
     ethr =  1.62E-03,  avg # of iterations =  1.0

     total cpu time spent up to now is      676.7 secs

     total energy              =    -470.24982308 Ry
     Harris-Foulkes estimate   =    -470.66639623 Ry
     estimated scf accuracy    <       5.87716362 Ry

     iteration # 17     ecut=    50.00 Ry     beta= 0.60
     Davidson diagonalization with overlap
     ethr =  1.62E-03,  avg # of iterations =  3.2

     total cpu time spent up to now is      688.1 secs

     total energy              =    -470.42871593 Ry
     Harris-Foulkes estimate   =    -470.42967625 Ry
     estimated scf accuracy    <       0.21358105 Ry

     iteration # 18     ecut=    50.00 Ry     beta= 0.60
     Davidson diagonalization with overlap
     ethr =  4.19E-04,  avg # of iterations =  3.4

     total cpu time spent up to now is      700.0 secs

     total energy              =    -470.41474958 Ry
     Harris-Foulkes estimate   =    -470.43580872 Ry
     estimated scf accuracy    <       0.22903463 Ry

     iteration # 19     ecut=    50.00 Ry     beta= 0.60
     Davidson diagonalization with overlap
     ethr =  4.19E-04,  avg # of iterations =  1.4

     total cpu time spent up to now is      710.0 secs

     total energy              =    -470.42081586 Ry
     Harris-Foulkes estimate   =    -470.42261996 Ry
     estimated scf accuracy    <       0.02185936 Ry

     iteration # 20     ecut=    50.00 Ry     beta= 0.60
     Davidson diagonalization with overlap
     ethr =  4.29E-05,  avg # of iterations =  5.8

     total cpu time spent up to now is      725.9 secs

     total energy              =    -470.42444252 Ry
     Harris-Foulkes estimate   =    -470.42470087 Ry
     estimated scf accuracy    <       0.00216097 Ry

     iteration # 21     ecut=    50.00 Ry     beta= 0.60
     Davidson diagonalization with overlap
     ethr =  4.24E-06,  avg # of iterations =  2.5

     total cpu time spent up to now is      736.8 secs

     total energy              =    -470.42435626 Ry
     Harris-Foulkes estimate   =    -470.42450047 Ry
     estimated scf accuracy    <       0.00116672 Ry

     iteration # 22     ecut=    50.00 Ry     beta= 0.60
     Davidson diagonalization with overlap
     ethr =  2.29E-06,  avg # of iterations =  3.1

     total cpu time spent up to now is      748.3 secs

     total energy              =    -470.42438485 Ry
     Harris-Foulkes estimate   =    -470.42442791 Ry
     estimated scf accuracy    <       0.00071342 Ry

     iteration # 23     ecut=    50.00 Ry     beta= 0.60
     Davidson diagonalization with overlap
     ethr =  1.40E-06,  avg # of iterations =  1.0

     total cpu time spent up to now is      758.1 secs

     total energy              =    -470.42432110 Ry
     Harris-Foulkes estimate   =    -470.42439455 Ry
     estimated scf accuracy    <       0.00046710 Ry

     iteration # 24     ecut=    50.00 Ry     beta= 0.60
     Davidson diagonalization with overlap
     ethr =  9.16E-07,  avg # of iterations =  2.8

     total cpu time spent up to now is      769.6 secs

     total energy              =    -470.42433735 Ry
     Harris-Foulkes estimate   =    -470.42435376 Ry
     estimated scf accuracy    <       0.00012532 Ry

     iteration # 25     ecut=    50.00 Ry     beta= 0.60
     Davidson diagonalization with overlap
     ethr =  2.46E-07,  avg # of iterations =  3.7

     total cpu time spent up to now is      781.7 secs

     total energy              =    -470.42434982 Ry
     Harris-Foulkes estimate   =    -470.42435009 Ry
     estimated scf accuracy    <       0.00000105 Ry

     iteration # 26     ecut=    50.00 Ry     beta= 0.60
     Davidson diagonalization with overlap
     ethr =  2.05E-09,  avg # of iterations =  5.2

     total cpu time spent up to now is      798.0 secs

     total energy              =    -470.42435081 Ry
     Harris-Foulkes estimate   =    -470.42435094 Ry
     estimated scf accuracy    <       0.00000190 Ry

     iteration # 27     ecut=    50.00 Ry     beta= 0.60
     Davidson diagonalization with overlap
     ethr =  2.05E-09,  avg # of iterations =  1.5

     total cpu time spent up to now is      808.1 secs

     total energy              =    -470.42435072 Ry
     Harris-Foulkes estimate   =    -470.42435085 Ry
     estimated scf accuracy    <       0.00000151 Ry

     iteration # 28     ecut=    50.00 Ry     beta= 0.60
     Davidson diagonalization with overlap
     ethr =  2.05E-09,  avg # of iterations =  1.0

     total cpu time spent up to now is      817.9 secs

     total energy              =    -470.42435065 Ry
     Harris-Foulkes estimate   =    -470.42435075 Ry
     estimated scf accuracy    <       0.00000065 Ry

     iteration # 29     ecut=    50.00 Ry     beta= 0.60
     Davidson diagonalization with overlap
     ethr =  1.28E-09,  avg # of iterations =  3.6

     total cpu time spent up to now is      834.2 secs

     total energy              =    -470.42435073 Ry
     Harris-Foulkes estimate   =    -470.42435073 Ry
     estimated scf accuracy    <       0.00000001 Ry

     iteration # 30     ecut=    50.00 Ry     beta= 0.60
     Davidson diagonalization with overlap
     ethr =  2.16E-11,  avg # of iterations =  3.8

     total cpu time spent up to now is      853.2 secs

     total energy              =    -470.42435073 Ry
     Harris-Foulkes estimate   =    -470.42435073 Ry
     estimated scf accuracy    <          8.9E-09 Ry

     iteration # 31     ecut=    50.00 Ry     beta= 0.60
     Davidson diagonalization with overlap
     ethr =  1.74E-11,  avg # of iterations =  3.8

     total cpu time spent up to now is      872.6 secs

     total energy              =    -470.42435073 Ry
     Harris-Foulkes estimate   =    -470.42435073 Ry
     estimated scf accuracy    <          8.6E-09 Ry

     iteration # 32     ecut=    50.00 Ry     beta= 0.60
     Davidson diagonalization with overlap
     ethr =  1.68E-11,  avg # of iterations =  1.2

     total cpu time spent up to now is      885.8 secs

     total energy              =    -470.42435073 Ry
     Harris-Foulkes estimate   =    -470.42435073 Ry
     estimated scf accuracy    <          2.1E-09 Ry

     iteration # 33     ecut=    50.00 Ry     beta= 0.60
     Davidson diagonalization with overlap
     ethr =  4.02E-12,  avg # of iterations =  3.9

     total cpu time spent up to now is      904.9 secs

     total energy              =    -470.42435073 Ry
     Harris-Foulkes estimate   =    -470.42435073 Ry
     estimated scf accuracy    <          2.1E-10 Ry

     iteration # 34     ecut=    50.00 Ry     beta= 0.60
     Davidson diagonalization with overlap
     ethr =  4.13E-13,  avg # of iterations =  3.7

     total cpu time spent up to now is      922.7 secs

     End of self-consistent calculation

     Number of k-points >= 100: set verbosity='high' to print the bands.

     the Fermi energy is    15.1797 ev

!    total energy              =    -470.42435073 Ry
     Harris-Foulkes estimate   =    -470.42435073 Ry
     estimated scf accuracy    <          9.3E-12 Ry

     The total energy is the sum of the following terms:

     one-electron contribution =    -105.11210926 Ry
     hartree contribution      =      73.73254365 Ry
     xc contribution           =     -69.51012096 Ry
     ewald contribution        =    -369.53430957 Ry
     smearing contrib. (-TS)   =      -0.00035459 Ry

     convergence has been achieved in  34 iterations

     Forces acting on atoms (cartesian axes, Ry/au):

     atom    1 type  2   force =     0.00000000   -0.00000000   -0.00000000
     atom    2 type  1   force =     0.00000000    0.01318897    0.00000000
     atom    3 type  1   force =     0.00000000    0.00000000    0.00000000
     atom    4 type  1   force =     0.00000000   -0.01318897    0.00000000

     Total force =     0.018652     Total SCF correction =     0.000011


     Computing stress (Cartesian axis) and pressure

          total   stress  (Ry/bohr**3)                   (kbar)     P= -115.84
  -0.00077738   0.00000000   0.00000000       -114.36      0.00      0.00
   0.00000000  -0.00080755   0.00000000          0.00   -118.79      0.00
   0.00000000   0.00000000  -0.00077738          0.00      0.00   -114.36


     number of scf cycles    =   2
     number of bfgs steps    =   1

     enthalpy old            =    -470.3534250930 Ry
     enthalpy new            =    -470.4243507324 Ry

     CASE: enthalpy_new < enthalpy_old

     new trust radius        =       0.1818938360 bohr
     new conv_thr            =            1.0E-10 Ry

     new unit-cell volume =    466.91950 a.u.^3 (    69.19033 Ang^3 )
     density =      7.83793 g/cm^3

CELL_PARAMETERS (alat=  1.88972599)
  -3.261104834   0.000000000   0.000000000
   0.000000000   0.000000000   3.261104834
   0.000000000   6.506028894   0.000000000

ATOMIC_POSITIONS (angstrom)
Ti      -1.630552417   1.626507223   1.630552417
Nb      -3.261104834   3.275930702   3.261104834
Nb      -1.630552417   4.879521670   1.630552417
Nb      -3.261104834   6.483112639   3.261104834


     NEW-OLD atomic charge density approx. for the potential
     extrapolated charge   44.72634, renormalised to   51.00000

     total cpu time spent up to now is      934.1 secs

     Self-consistent Calculation

     iteration #  1     ecut=    50.00 Ry     beta= 0.60
     Davidson diagonalization with overlap
     c_bands:  1 eigenvalues not converged
     c_bands:  1 eigenvalues not converged
     c_bands:  1 eigenvalues not converged
     c_bands:  1 eigenvalues not converged
     c_bands:  1 eigenvalues not converged
     c_bands:  1 eigenvalues not converged
     c_bands:  1 eigenvalues not converged
     c_bands:  1 eigenvalues not converged
     c_bands:  1 eigenvalues not converged
     c_bands:  2 eigenvalues not converged
     c_bands:  1 eigenvalues not converged
     c_bands:  1 eigenvalues not converged
     c_bands:  1 eigenvalues not converged
     c_bands:  1 eigenvalues not converged
     c_bands:  1 eigenvalues not converged
     c_bands:  1 eigenvalues not converged
     c_bands:  1 eigenvalues not converged
     c_bands:  1 eigenvalues not converged
     c_bands:  1 eigenvalues not converged
     c_bands:  1 eigenvalues not converged
     c_bands:  1 eigenvalues not converged
     c_bands:  1 eigenvalues not converged
     c_bands:  1 eigenvalues not converged
     ethr =  1.00E-06,  avg # of iterations = 13.7

     total cpu time spent up to now is      989.1 secs

     total energy              =    -455.24087071 Ry
     Harris-Foulkes estimate   =    -478.79524541 Ry
     estimated scf accuracy    <      16.54183962 Ry

     iteration #  2     ecut=    50.00 Ry     beta= 0.60
     Davidson diagonalization with overlap
     ethr =  1.00E-02,  avg # of iterations =  5.8

     total cpu time spent up to now is     1019.5 secs

     total energy              =    -460.01024678 Ry
     Harris-Foulkes estimate   =    -490.47478368 Ry
     estimated scf accuracy    <     105.72430886 Ry

     iteration #  3     ecut=    50.00 Ry     beta= 0.60
     Davidson diagonalization with overlap
     ethr =  1.00E-02,  avg # of iterations =  4.6

     total cpu time spent up to now is     1043.9 secs

     total energy              =    -470.73710702 Ry
     Harris-Foulkes estimate   =    -473.66646594 Ry
     estimated scf accuracy    <      11.13156179 Ry

     iteration #  4     ecut=    50.00 Ry     beta= 0.60
     Davidson diagonalization with overlap
     ethr =  1.00E-02,  avg # of iterations =  3.4

     total cpu time spent up to now is     1061.5 secs

     total energy              =    -471.16506143 Ry
     Harris-Foulkes estimate   =    -472.17354486 Ry
     estimated scf accuracy    <       6.88240325 Ry

     iteration #  5     ecut=    50.00 Ry     beta= 0.60
     Davidson diagonalization with overlap
     ethr =  1.00E-02,  avg # of iterations =  1.0

     total cpu time spent up to now is     1074.5 secs

     total energy              =    -470.69388304 Ry
     Harris-Foulkes estimate   =    -471.33854420 Ry
     estimated scf accuracy    <       3.61795333 Ry

     iteration #  6     ecut=    50.00 Ry     beta= 0.60
     Davidson diagonalization with overlap
     ethr =  7.09E-03,  avg # of iterations =  1.3

     total cpu time spent up to now is     1087.5 secs

     total energy              =    -470.50459204 Ry
     Harris-Foulkes estimate   =    -470.77592457 Ry
     estimated scf accuracy    <       1.78827608 Ry

     iteration #  7     ecut=    50.00 Ry     beta= 0.60
     Davidson diagonalization with overlap
     ethr =  3.51E-03,  avg # of iterations =  2.2

     total cpu time spent up to now is     1101.5 secs

     total energy              =    -470.52891885 Ry
     Harris-Foulkes estimate   =    -470.55309133 Ry
     estimated scf accuracy    <       0.86138893 Ry

     iteration #  8     ecut=    50.00 Ry     beta= 0.60
     Davidson diagonalization with overlap
     ethr =  1.69E-03,  avg # of iterations =  2.1

     total cpu time spent up to now is     1115.3 secs

     total energy              =    -470.45904797 Ry
     Harris-Foulkes estimate   =    -470.54615066 Ry
     estimated scf accuracy    <       0.74285730 Ry

     iteration #  9     ecut=    50.00 Ry     beta= 0.60
     Davidson diagonalization with overlap
     ethr =  1.46E-03,  avg # of iterations =  1.4

     total cpu time spent up to now is     1128.6 secs

     total energy              =    -470.35446009 Ry
     Harris-Foulkes estimate   =    -470.47242384 Ry
     estimated scf accuracy    <       0.46889411 Ry

     iteration # 10     ecut=    50.00 Ry     beta= 0.60
     Davidson diagonalization with overlap
     ethr =  9.19E-04,  avg # of iterations =  4.5

     total cpu time spent up to now is     1149.1 secs

     total energy              =    -470.48548967 Ry
     Harris-Foulkes estimate   =    -470.44933036 Ry
     estimated scf accuracy    <       0.12131557 Ry

     iteration # 11     ecut=    50.00 Ry     beta= 0.60
     Davidson diagonalization with overlap
     ethr =  2.38E-04,  avg # of iterations =  4.5

     total cpu time spent up to now is     1169.6 secs

     total energy              =    -470.50523690 Ry
     Harris-Foulkes estimate   =    -470.53431453 Ry
     estimated scf accuracy    <       1.62493777 Ry

     iteration # 12     ecut=    50.00 Ry     beta= 0.60
     Davidson diagonalization with overlap
     ethr =  2.38E-04,  avg # of iterations =  1.0

     total cpu time spent up to now is     1182.6 secs

     total energy              =    -470.50418194 Ry
     Harris-Foulkes estimate   =    -470.50768676 Ry
     estimated scf accuracy    <       1.13167483 Ry

     iteration # 13     ecut=    50.00 Ry     beta= 0.60
     Davidson diagonalization with overlap
     ethr =  2.38E-04,  avg # of iterations =  1.0

     total cpu time spent up to now is     1195.6 secs

     total energy              =    -470.50422583 Ry
     Harris-Foulkes estimate   =    -470.50469220 Ry
     estimated scf accuracy    <       1.05931928 Ry

     iteration # 14     ecut=    50.00 Ry     beta= 0.60
     Davidson diagonalization with overlap
     ethr =  2.38E-04,  avg # of iterations =  1.0

     total cpu time spent up to now is     1208.6 secs

     total energy              =    -470.49667425 Ry
     Harris-Foulkes estimate   =    -470.50433907 Ry
     estimated scf accuracy    <       1.04605819 Ry

     iteration # 15     ecut=    50.00 Ry     beta= 0.60
     Davidson diagonalization with overlap
     ethr =  2.38E-04,  avg # of iterations =  1.0

     total cpu time spent up to now is     1221.6 secs

     total energy              =    -470.45153339 Ry
     Harris-Foulkes estimate   =    -470.49707296 Ry
     estimated scf accuracy    <       0.89411431 Ry

     iteration # 16     ecut=    50.00 Ry     beta= 0.60
     Davidson diagonalization with overlap
     ethr =  2.38E-04,  avg # of iterations =  2.1

     total cpu time spent up to now is     1235.6 secs

     total energy              =    -470.44109008 Ry
     Harris-Foulkes estimate   =    -470.45948973 Ry
     estimated scf accuracy    <       0.37466539 Ry

     iteration # 17     ecut=    50.00 Ry     beta= 0.60
     Davidson diagonalization with overlap
     ethr =  2.38E-04,  avg # of iterations =  2.9

     total cpu time spent up to now is     1251.4 secs

     total energy              =    -470.41965605 Ry
     Harris-Foulkes estimate   =    -470.44895256 Ry
     estimated scf accuracy    <       0.14250505 Ry

     iteration # 18     ecut=    50.00 Ry     beta= 0.60
     Davidson diagonalization with overlap
     ethr =  2.38E-04,  avg # of iterations =  5.1

     total cpu time spent up to now is     1271.1 secs

     total energy              =    -470.44167558 Ry
     Harris-Foulkes estimate   =    -470.45154864 Ry
     estimated scf accuracy    <       0.07711595 Ry

     iteration # 19     ecut=    50.00 Ry     beta= 0.60
     Davidson diagonalization with overlap
     ethr =  1.51E-04,  avg # of iterations =  1.2

     total cpu time spent up to now is     1284.2 secs

     total energy              =    -470.43744215 Ry
     Harris-Foulkes estimate   =    -470.44416060 Ry
     estimated scf accuracy    <       0.02586781 Ry

     iteration # 20     ecut=    50.00 Ry     beta= 0.60
     Davidson diagonalization with overlap
     ethr =  5.07E-05,  avg # of iterations =  4.3

     total cpu time spent up to now is     1303.7 secs

     total energy              =    -470.44322471 Ry
     Harris-Foulkes estimate   =    -470.44261875 Ry
     estimated scf accuracy    <       0.02078952 Ry

     iteration # 21     ecut=    50.00 Ry     beta= 0.60
     Davidson diagonalization with overlap
     ethr =  4.08E-05,  avg # of iterations =  1.0

     total cpu time spent up to now is     1316.6 secs

     total energy              =    -470.44406699 Ry
     Harris-Foulkes estimate   =    -470.44352844 Ry
     estimated scf accuracy    <       0.03540848 Ry

     iteration # 22     ecut=    50.00 Ry     beta= 0.60
     Davidson diagonalization with overlap
     ethr =  4.08E-05,  avg # of iterations =  2.1

     total cpu time spent up to now is     1330.6 secs

     total energy              =    -470.44488753 Ry
     Harris-Foulkes estimate   =    -470.44463706 Ry
     estimated scf accuracy    <       0.05305247 Ry

     iteration # 23     ecut=    50.00 Ry     beta= 0.60
     Davidson diagonalization with overlap
     ethr =  4.08E-05,  avg # of iterations =  2.1

     total cpu time spent up to now is     1344.9 secs

     total energy              =    -470.43981308 Ry
     Harris-Foulkes estimate   =    -470.44613209 Ry
     estimated scf accuracy    <       0.05147934 Ry

     iteration # 24     ecut=    50.00 Ry     beta= 0.60
     Davidson diagonalization with overlap
     ethr =  4.08E-05,  avg # of iterations =  1.9

     total cpu time spent up to now is     1358.6 secs

     total energy              =    -470.43951935 Ry
     Harris-Foulkes estimate   =    -470.44134498 Ry
     estimated scf accuracy    <       0.01100171 Ry

     iteration # 25     ecut=    50.00 Ry     beta= 0.60
     Davidson diagonalization with overlap
     ethr =  2.16E-05,  avg # of iterations =  3.9

     total cpu time spent up to now is     1376.5 secs

     total energy              =    -470.44090145 Ry
     Harris-Foulkes estimate   =    -470.44092841 Ry
     estimated scf accuracy    <       0.00056488 Ry

     iteration # 26     ecut=    50.00 Ry     beta= 0.60
     Davidson diagonalization with overlap
     ethr =  1.11E-06,  avg # of iterations =  4.3

     total cpu time spent up to now is     1394.7 secs

     total energy              =    -470.44090968 Ry
     Harris-Foulkes estimate   =    -470.44094723 Ry
     estimated scf accuracy    <       0.00052708 Ry

     iteration # 27     ecut=    50.00 Ry     beta= 0.60
     Davidson diagonalization with overlap
     ethr =  1.03E-06,  avg # of iterations =  1.4

     total cpu time spent up to now is     1407.9 secs

     total energy              =    -470.44089703 Ry
     Harris-Foulkes estimate   =    -470.44092372 Ry
     estimated scf accuracy    <       0.00025538 Ry

     iteration # 28     ecut=    50.00 Ry     beta= 0.60
     Davidson diagonalization with overlap
     ethr =  5.01E-07,  avg # of iterations =  1.8

     total cpu time spent up to now is     1421.7 secs

     total energy              =    -470.44089643 Ry
     Harris-Foulkes estimate   =    -470.44090672 Ry
     estimated scf accuracy    <       0.00007695 Ry

     iteration # 29     ecut=    50.00 Ry     beta= 0.60
     Davidson diagonalization with overlap
     ethr =  1.51E-07,  avg # of iterations =  3.1

     total cpu time spent up to now is     1437.6 secs

     total energy              =    -470.44090124 Ry
     Harris-Foulkes estimate   =    -470.44090258 Ry
     estimated scf accuracy    <       0.00000808 Ry

     iteration # 30     ecut=    50.00 Ry     beta= 0.60
     Davidson diagonalization with overlap
     ethr =  1.58E-08,  avg # of iterations =  3.1

     total cpu time spent up to now is     1454.5 secs

     total energy              =    -470.44090170 Ry
     Harris-Foulkes estimate   =    -470.44090210 Ry
     estimated scf accuracy    <       0.00000212 Ry

     iteration # 31     ecut=    50.00 Ry     beta= 0.60
     Davidson diagonalization with overlap
     ethr =  4.17E-09,  avg # of iterations =  3.6

     total cpu time spent up to now is     1472.3 secs

     total energy              =    -470.44090196 Ry
     Harris-Foulkes estimate   =    -470.44090200 Ry
     estimated scf accuracy    <       0.00000033 Ry

     iteration # 32     ecut=    50.00 Ry     beta= 0.60
     Davidson diagonalization with overlap
     ethr =  6.44E-10,  avg # of iterations =  2.5

     total cpu time spent up to now is     1487.4 secs

     total energy              =    -470.44090196 Ry
     Harris-Foulkes estimate   =    -470.44090199 Ry
     estimated scf accuracy    <       0.00000006 Ry

     iteration # 33     ecut=    50.00 Ry     beta= 0.60
     Davidson diagonalization with overlap
     ethr =  1.19E-10,  avg # of iterations =  3.8

     total cpu time spent up to now is     1506.4 secs

     total energy              =    -470.44090198 Ry
     Harris-Foulkes estimate   =    -470.44090199 Ry
     estimated scf accuracy    <       0.00000007 Ry

     iteration # 34     ecut=    50.00 Ry     beta= 0.60
     Davidson diagonalization with overlap
     ethr =  1.19E-10,  avg # of iterations =  1.0

     total cpu time spent up to now is     1519.1 secs

     total energy              =    -470.44090198 Ry
     Harris-Foulkes estimate   =    -470.44090198 Ry
     estimated scf accuracy    <       0.00000002 Ry

     iteration # 35     ecut=    50.00 Ry     beta= 0.60
     Davidson diagonalization with overlap
     ethr =  4.58E-11,  avg # of iterations =  3.0

     total cpu time spent up to now is     1535.7 secs

     total energy              =    -470.44090198 Ry
     Harris-Foulkes estimate   =    -470.44090198 Ry
     estimated scf accuracy    <          2.0E-09 Ry

     iteration # 36     ecut=    50.00 Ry     beta= 0.60
     Davidson diagonalization with overlap
     ethr =  3.96E-12,  avg # of iterations =  2.3

     total cpu time spent up to now is     1550.7 secs

     total energy              =    -470.44090198 Ry
     Harris-Foulkes estimate   =    -470.44090198 Ry
     estimated scf accuracy    <          5.8E-10 Ry

     iteration # 37     ecut=    50.00 Ry     beta= 0.60
     Davidson diagonalization with overlap
     ethr =  1.14E-12,  avg # of iterations =  3.5

     total cpu time spent up to now is     1567.9 secs

     End of self-consistent calculation

     Number of k-points >= 100: set verbosity='high' to print the bands.

     the Fermi energy is    17.4324 ev

!    total energy              =    -470.44090198 Ry
     Harris-Foulkes estimate   =    -470.44090198 Ry
     estimated scf accuracy    <          3.4E-11 Ry

     The total energy is the sum of the following terms:

     one-electron contribution =     -84.07862781 Ry
     hartree contribution      =      67.90340551 Ry
     xc contribution           =     -69.99322604 Ry
     ewald contribution        =    -384.27200712 Ry
     smearing contrib. (-TS)   =      -0.00044652 Ry

     convergence has been achieved in  37 iterations

     Forces acting on atoms (cartesian axes, Ry/au):

     atom    1 type  2   force =     0.00000000   -0.00000000    0.00000000
     atom    2 type  1   force =     0.00000000   -0.00208152    0.00000000
     atom    3 type  1   force =     0.00000000    0.00000000    0.00000000
     atom    4 type  1   force =     0.00000000    0.00208152    0.00000000

     Total force =     0.002944     Total SCF correction =     0.000020


     Computing stress (Cartesian axis) and pressure

          total   stress  (Ry/bohr**3)                   (kbar)     P=   49.87
   0.00034736   0.00000000   0.00000000         51.10      0.00      0.00
   0.00000000   0.00032223   0.00000000          0.00     47.40      0.00
   0.00000000   0.00000000   0.00034736          0.00      0.00     51.10


     number of scf cycles    =   3
     number of bfgs steps    =   2

     enthalpy old            =    -470.4243507324 Ry
     enthalpy new            =    -470.4409019827 Ry

     CASE: enthalpy_new < enthalpy_old

     new trust radius        =       0.0494953119 bohr
     new conv_thr            =            1.0E-10 Ry

     new unit-cell volume =    483.07520 a.u.^3 (    71.58436 Ang^3 )
     density =      7.57580 g/cm^3

CELL_PARAMETERS (alat=  1.88972599)
  -3.298453735   0.000000000   0.000000000
   0.000000000   0.000000000   3.298453735
   0.000000000   6.579568928   0.000000000

ATOMIC_POSITIONS (angstrom)
Ti      -1.649226867   1.644892232   1.649226867
Nb      -3.298453735   3.310436557   3.298453735
Nb      -1.649226867   4.934676696   1.649226867
Nb      -3.298453735   6.558916835   3.298453735


     NEW-OLD atomic charge density approx. for the potential
     extrapolated charge   52.67190, renormalised to   51.00000

     total cpu time spent up to now is     1579.2 secs

     Self-consistent Calculation

     iteration #  1     ecut=    50.00 Ry     beta= 0.60
     Davidson diagonalization with overlap
     ethr =  1.00E-06,  avg # of iterations = 11.3

     total cpu time spent up to now is     1623.2 secs

     total energy              =    -470.25560041 Ry
     Harris-Foulkes estimate   =    -468.37228638 Ry
     estimated scf accuracy    <       0.14533183 Ry

     iteration #  2     ecut=    50.00 Ry     beta= 0.60
     Davidson diagonalization with overlap
     ethr =  2.85E-04,  avg # of iterations =  5.4

     total cpu time spent up to now is     1653.0 secs

     total energy              =    -470.33582814 Ry
     Harris-Foulkes estimate   =    -470.59560274 Ry
     estimated scf accuracy    <       1.02660029 Ry

     iteration #  3     ecut=    50.00 Ry     beta= 0.60
     Davidson diagonalization with overlap
     ethr =  2.85E-04,  avg # of iterations =  4.6

     total cpu time spent up to now is     1676.6 secs

     total energy              =    -470.41568648 Ry
     Harris-Foulkes estimate   =    -470.48584183 Ry
     estimated scf accuracy    <       0.28842353 Ry

     iteration #  4     ecut=    50.00 Ry     beta= 0.60
     Davidson diagonalization with overlap
     ethr =  2.85E-04,  avg # of iterations =  4.8

     total cpu time spent up to now is     1697.9 secs

     total energy              =    -470.43769187 Ry
     Harris-Foulkes estimate   =    -470.47212135 Ry
     estimated scf accuracy    <       0.35912392 Ry

     iteration #  5     ecut=    50.00 Ry     beta= 0.60
     Davidson diagonalization with overlap
     ethr =  2.85E-04,  avg # of iterations =  1.7

     total cpu time spent up to now is     1711.8 secs

     total energy              =    -470.44316717 Ry
     Harris-Foulkes estimate   =    -470.44957145 Ry
     estimated scf accuracy    <       0.04539840 Ry

     iteration #  6     ecut=    50.00 Ry     beta= 0.60
     Davidson diagonalization with overlap
     ethr =  8.90E-05,  avg # of iterations =  3.8

     total cpu time spent up to now is     1729.0 secs

     total energy              =    -470.44558590 Ry
     Harris-Foulkes estimate   =    -470.44625638 Ry
     estimated scf accuracy    <       0.01164859 Ry

     iteration #  7     ecut=    50.00 Ry     beta= 0.60
     Davidson diagonalization with overlap
     ethr =  2.28E-05,  avg # of iterations =  3.4

     total cpu time spent up to now is     1744.9 secs

     total energy              =    -470.44437735 Ry
     Harris-Foulkes estimate   =    -470.44589488 Ry
     estimated scf accuracy    <       0.01099081 Ry

     iteration #  8     ecut=    50.00 Ry     beta= 0.60
     Davidson diagonalization with overlap
     ethr =  2.16E-05,  avg # of iterations =  1.1

     total cpu time spent up to now is     1757.8 secs

     total energy              =    -470.44293185 Ry
     Harris-Foulkes estimate   =    -470.44456466 Ry
     estimated scf accuracy    <       0.00712906 Ry

     iteration #  9     ecut=    50.00 Ry     beta= 0.60
     Davidson diagonalization with overlap
     ethr =  1.40E-05,  avg # of iterations =  3.1

     total cpu time spent up to now is     1774.1 secs

     total energy              =    -470.44307704 Ry
     Harris-Foulkes estimate   =    -470.44340533 Ry
     estimated scf accuracy    <       0.00151288 Ry

     iteration # 10     ecut=    50.00 Ry     beta= 0.60
     Davidson diagonalization with overlap
     ethr =  2.97E-06,  avg # of iterations =  5.3

     total cpu time spent up to now is     1795.4 secs

     total energy              =    -470.44325385 Ry
     Harris-Foulkes estimate   =    -470.44326758 Ry
     estimated scf accuracy    <       0.00008280 Ry

     iteration # 11     ecut=    50.00 Ry     beta= 0.60
     Davidson diagonalization with overlap
     ethr =  1.62E-07,  avg # of iterations =  3.2

     total cpu time spent up to now is     1812.4 secs

     total energy              =    -470.44326063 Ry
     Harris-Foulkes estimate   =    -470.44326463 Ry
     estimated scf accuracy    <       0.00002371 Ry

     iteration # 12     ecut=    50.00 Ry     beta= 0.60
     Davidson diagonalization with overlap
     ethr =  4.65E-08,  avg # of iterations =  3.5

     total cpu time spent up to now is     1830.4 secs

     total energy              =    -470.44326360 Ry
     Harris-Foulkes estimate   =    -470.44326637 Ry
     estimated scf accuracy    <       0.00001570 Ry

     iteration # 13     ecut=    50.00 Ry     beta= 0.60
     Davidson diagonalization with overlap
     ethr =  3.08E-08,  avg # of iterations =  2.2

     total cpu time spent up to now is     1844.9 secs

     total energy              =    -470.44326385 Ry
     Harris-Foulkes estimate   =    -470.44326447 Ry
     estimated scf accuracy    <       0.00000224 Ry

     iteration # 14     ecut=    50.00 Ry     beta= 0.60
     Davidson diagonalization with overlap
     ethr =  4.39E-09,  avg # of iterations =  3.9

     total cpu time spent up to now is     1864.4 secs

     total energy              =    -470.44326447 Ry
     Harris-Foulkes estimate   =    -470.44326460 Ry
     estimated scf accuracy    <       0.00000081 Ry

     iteration # 15     ecut=    50.00 Ry     beta= 0.60
     Davidson diagonalization with overlap
     ethr =  1.58E-09,  avg # of iterations =  1.1

     total cpu time spent up to now is     1877.2 secs

     total energy              =    -470.44326444 Ry
     Harris-Foulkes estimate   =    -470.44326450 Ry
     estimated scf accuracy    <       0.00000022 Ry

     iteration # 16     ecut=    50.00 Ry     beta= 0.60
     Davidson diagonalization with overlap
     ethr =  4.27E-10,  avg # of iterations =  3.7

     total cpu time spent up to now is     1896.0 secs

     total energy              =    -470.44326451 Ry
     Harris-Foulkes estimate   =    -470.44326451 Ry
     estimated scf accuracy    <       0.00000008 Ry

     iteration # 17     ecut=    50.00 Ry     beta= 0.60
     Davidson diagonalization with overlap
     ethr =  1.55E-10,  avg # of iterations =  1.0

     total cpu time spent up to now is     1908.9 secs

     total energy              =    -470.44326450 Ry
     Harris-Foulkes estimate   =    -470.44326451 Ry
     estimated scf accuracy    <       0.00000005 Ry

     iteration # 18     ecut=    50.00 Ry     beta= 0.60
     Davidson diagonalization with overlap
     ethr =  9.10E-11,  avg # of iterations =  3.0

     total cpu time spent up to now is     1925.7 secs

     total energy              =    -470.44326451 Ry
     Harris-Foulkes estimate   =    -470.44326451 Ry
     estimated scf accuracy    <          2.0E-09 Ry

     iteration # 19     ecut=    50.00 Ry     beta= 0.60
     Davidson diagonalization with overlap
     ethr =  3.86E-12,  avg # of iterations =  3.8

     total cpu time spent up to now is     1944.3 secs

     End of self-consistent calculation

     Number of k-points >= 100: set verbosity='high' to print the bands.

     the Fermi energy is    16.7588 ev

!    total energy              =    -470.44326451 Ry
     Harris-Foulkes estimate   =    -470.44326451 Ry
     estimated scf accuracy    <          7.9E-11 Ry

     The total energy is the sum of the following terms:

     one-electron contribution =     -90.19949157 Ry
     hartree contribution      =      69.56877619 Ry
     xc contribution           =     -69.84760263 Ry
     ewald contribution        =    -379.96454132 Ry
     smearing contrib. (-TS)   =      -0.00040518 Ry

     convergence has been achieved in  19 iterations

     Forces acting on atoms (cartesian axes, Ry/au):

     atom    1 type  2   force =     0.00000000    0.00000000    0.00000000
     atom    2 type  1   force =     0.00000000    0.00269031   -0.00000000
     atom    3 type  1   force =     0.00000000    0.00000000    0.00000000
     atom    4 type  1   force =     0.00000000   -0.00269031    0.00000000

     Total force =     0.003805     Total SCF correction =     0.000004


     Computing stress (Cartesian axis) and pressure

          total   stress  (Ry/bohr**3)                   (kbar)     P=   -5.36
  -0.00002904   0.00000000   0.00000000         -4.27      0.00      0.00
   0.00000000  -0.00005121   0.00000000          0.00     -7.53      0.00
   0.00000000   0.00000000  -0.00002904          0.00      0.00     -4.27


     number of scf cycles    =   4
     number of bfgs steps    =   3

     enthalpy old            =    -470.4409019827 Ry
     enthalpy new            =    -470.4432645061 Ry

     CASE: enthalpy_new < enthalpy_old

     new trust radius        =       0.0064277778 bohr
     new conv_thr            =            1.0E-10 Ry

     new unit-cell volume =    481.45314 a.u.^3 (    71.34399 Ang^3 )
     density =      7.60133 g/cm^3

CELL_PARAMETERS (alat=  1.88972599)
  -3.295321526   0.000000000   0.000000000
   0.000000000   0.000000000   3.295321526
   0.000000000   6.569947913   0.000000000

ATOMIC_POSITIONS (angstrom)
Ti      -1.647660763   1.642486978   1.647660763
Nb      -3.295321526   3.306874730   3.295321526
Nb      -1.647660763   4.927460934   1.647660763
Nb      -3.295321526   6.548047139   3.295321526


     NEW-OLD atomic charge density approx. for the potential
     extrapolated charge   50.83157, renormalised to   51.00000

     total cpu time spent up to now is     1955.6 secs

     Self-consistent Calculation

     iteration #  1     ecut=    50.00 Ry     beta= 0.60
     Davidson diagonalization with overlap
     ethr =  1.00E-06,  avg # of iterations =  4.2

     total cpu time spent up to now is     1981.2 secs

     total energy              =    -470.44100090 Ry
     Harris-Foulkes estimate   =    -470.65373932 Ry
     estimated scf accuracy    <       0.00189730 Ry

     iteration #  2     ecut=    50.00 Ry     beta= 0.60
     Davidson diagonalization with overlap
     c_bands:  1 eigenvalues not converged
     ethr =  3.72E-06,  avg # of iterations =  5.3

     total cpu time spent up to now is     2010.2 secs

     total energy              =    -470.44228845 Ry
     Harris-Foulkes estimate   =    -470.44523782 Ry
     estimated scf accuracy    <       0.01056834 Ry

     iteration #  3     ecut=    50.00 Ry     beta= 0.60
     Davidson diagonalization with overlap
     ethr =  3.72E-06,  avg # of iterations =  4.5

     total cpu time spent up to now is     2033.1 secs

     total energy              =    -470.44312012 Ry
     Harris-Foulkes estimate   =    -470.44371860 Ry
     estimated scf accuracy    <       0.00211544 Ry

     iteration #  4     ecut=    50.00 Ry     beta= 0.60
     Davidson diagonalization with overlap
     ethr =  3.72E-06,  avg # of iterations =  4.2

     total cpu time spent up to now is     2051.4 secs

     total energy              =    -470.44330596 Ry
     Harris-Foulkes estimate   =    -470.44363285 Ry
     estimated scf accuracy    <       0.00345979 Ry

     iteration #  5     ecut=    50.00 Ry     beta= 0.60
     Davidson diagonalization with overlap
     ethr =  3.72E-06,  avg # of iterations =  1.0

     total cpu time spent up to now is     2064.2 secs

     total energy              =    -470.44328072 Ry
     Harris-Foulkes estimate   =    -470.44340612 Ry
     estimated scf accuracy    <       0.00074117 Ry

     iteration #  6     ecut=    50.00 Ry     beta= 0.60
     Davidson diagonalization with overlap
     ethr =  1.45E-06,  avg # of iterations =  3.6

     total cpu time spent up to now is     2080.9 secs

     total energy              =    -470.44332801 Ry
     Harris-Foulkes estimate   =    -470.44333298 Ry
     estimated scf accuracy    <       0.00009992 Ry

     iteration #  7     ecut=    50.00 Ry     beta= 0.60
     Davidson diagonalization with overlap
     ethr =  1.96E-07,  avg # of iterations =  2.5

     total cpu time spent up to now is     2095.9 secs

     total energy              =    -470.44331657 Ry
     Harris-Foulkes estimate   =    -470.44333327 Ry
     estimated scf accuracy    <       0.00010258 Ry

     iteration #  8     ecut=    50.00 Ry     beta= 0.60
     Davidson diagonalization with overlap
     ethr =  1.96E-07,  avg # of iterations =  1.0

     total cpu time spent up to now is     2108.6 secs

     total energy              =    -470.44330492 Ry
     Harris-Foulkes estimate   =    -470.44331883 Ry
     estimated scf accuracy    <       0.00005682 Ry

     iteration #  9     ecut=    50.00 Ry     beta= 0.60
     Davidson diagonalization with overlap
     ethr =  1.11E-07,  avg # of iterations =  2.9

     total cpu time spent up to now is     2124.9 secs

     total energy              =    -470.44330830 Ry
     Harris-Foulkes estimate   =    -470.44330984 Ry
     estimated scf accuracy    <       0.00000868 Ry

     iteration # 10     ecut=    50.00 Ry     beta= 0.60
     Davidson diagonalization with overlap
     ethr =  1.70E-08,  avg # of iterations =  3.6

     total cpu time spent up to now is     2142.0 secs

     total energy              =    -470.44330845 Ry
     Harris-Foulkes estimate   =    -470.44330911 Ry
     estimated scf accuracy    <       0.00000170 Ry

     iteration # 11     ecut=    50.00 Ry     beta= 0.60
     Davidson diagonalization with overlap
     ethr =  3.32E-09,  avg # of iterations =  3.9

     total cpu time spent up to now is     2161.7 secs

     total energy              =    -470.44330886 Ry
     Harris-Foulkes estimate   =    -470.44330891 Ry
     estimated scf accuracy    <       0.00000016 Ry

     iteration # 12     ecut=    50.00 Ry     beta= 0.60
     Davidson diagonalization with overlap
     ethr =  3.12E-10,  avg # of iterations =  3.4

     total cpu time spent up to now is     2179.4 secs

     total energy              =    -470.44330889 Ry
     Harris-Foulkes estimate   =    -470.44330889 Ry
     estimated scf accuracy    <          7.0E-09 Ry

     iteration # 13     ecut=    50.00 Ry     beta= 0.60
     Davidson diagonalization with overlap
     ethr =  1.36E-11,  avg # of iterations =  4.0

     total cpu time spent up to now is     2198.8 secs

     total energy              =    -470.44330889 Ry
     Harris-Foulkes estimate   =    -470.44330889 Ry
     estimated scf accuracy    <          5.6E-10 Ry

     iteration # 14     ecut=    50.00 Ry     beta= 0.60
     Davidson diagonalization with overlap
     ethr =  1.10E-12,  avg # of iterations =  2.8

     total cpu time spent up to now is     2210.4 secs

     total energy              =    -470.44330889 Ry
     Harris-Foulkes estimate   =    -470.44330889 Ry
     estimated scf accuracy    <          2.9E-10 Ry

     iteration # 15     ecut=    50.00 Ry     beta= 0.60
     Davidson diagonalization with overlap
     ethr =  5.61E-13,  avg # of iterations =  3.1

     total cpu time spent up to now is     2223.0 secs

     End of self-consistent calculation

     Number of k-points >= 100: set verbosity='high' to print the bands.

     the Fermi energy is    16.8245 ev

!    total energy              =    -470.44330889 Ry
     Harris-Foulkes estimate   =    -470.44330889 Ry
     estimated scf accuracy    <          6.3E-11 Ry

     The total energy is the sum of the following terms:

     one-electron contribution =     -89.61489354 Ry
     hartree contribution      =      69.41252577 Ry
     xc contribution           =     -69.86199295 Ry
     ewald contribution        =    -380.37854625 Ry
     smearing contrib. (-TS)   =      -0.00040192 Ry

     convergence has been achieved in  15 iterations

     Forces acting on atoms (cartesian axes, Ry/au):

     atom    1 type  2   force =     0.00000000   -0.00000000    0.00000000
     atom    2 type  1   force =     0.00000000    0.00182568    0.00000000
     atom    3 type  1   force =     0.00000000   -0.00000000    0.00000000
     atom    4 type  1   force =     0.00000000   -0.00182568    0.00000000

     Total force =     0.002582     Total SCF correction =     0.000011


     Computing stress (Cartesian axis) and pressure

          total   stress  (Ry/bohr**3)                   (kbar)     P=   -0.06
   0.00000580   0.00000000   0.00000000          0.85      0.00      0.00
   0.00000000  -0.00001289   0.00000000          0.00     -1.90      0.00
   0.00000000   0.00000000   0.00000580          0.00      0.00      0.85


     number of scf cycles    =   5
     number of bfgs steps    =   4

     enthalpy old            =    -470.4432645061 Ry
     enthalpy new            =    -470.4433088879 Ry

     CASE: enthalpy_new < enthalpy_old

     new trust radius        =       0.0024061773 bohr
     new conv_thr            =            1.0E-10 Ry

     new unit-cell volume =    481.22854 a.u.^3 (    71.31071 Ang^3 )
     density =      7.60487 g/cm^3

CELL_PARAMETERS (alat=  1.88972599)
  -3.295456358   0.000000000   0.000000000
   0.000000000   0.000000000   3.295456358
   0.000000000   6.566345590   0.000000000

ATOMIC_POSITIONS (angstrom)
Ti      -1.647728179   1.641586398   1.647728179
Nb      -3.295456358   3.306230024   3.295456358
Nb      -1.647728179   4.924759193   1.647728179
Nb      -3.295456358   6.543288361   3.295456358


     NEW-OLD atomic charge density approx. for the potential
     extrapolated charge   50.97667, renormalised to   51.00000

     total cpu time spent up to now is     2232.5 secs

     Self-consistent Calculation

     iteration #  1     ecut=    50.00 Ry     beta= 0.60
     Davidson diagonalization with overlap
     ethr =  1.00E-06,  avg # of iterations =  3.0

     total cpu time spent up to now is     2247.6 secs

     total energy              =    -470.44326009 Ry
     Harris-Foulkes estimate   =    -470.47241947 Ry
     estimated scf accuracy    <       0.00005963 Ry

     iteration #  2     ecut=    50.00 Ry     beta= 0.60
     Davidson diagonalization with overlap
     ethr =  1.17E-07,  avg # of iterations =  4.8

     total cpu time spent up to now is     2265.8 secs

     total energy              =    -470.44317678 Ry
     Harris-Foulkes estimate   =    -470.44344445 Ry
     estimated scf accuracy    <       0.00176264 Ry

     iteration #  3     ecut=    50.00 Ry     beta= 0.60
     Davidson diagonalization with overlap
     ethr =  1.17E-07,  avg # of iterations =  4.8

     total cpu time spent up to now is     2281.5 secs

     total energy              =    -470.44330871 Ry
     Harris-Foulkes estimate   =    -470.44334150 Ry
     estimated scf accuracy    <       0.00022536 Ry

     iteration #  4     ecut=    50.00 Ry     beta= 0.60
     Davidson diagonalization with overlap
     ethr =  1.17E-07,  avg # of iterations =  3.9

     total cpu time spent up to now is     2294.0 secs

     total energy              =    -470.44331854 Ry
     Harris-Foulkes estimate   =    -470.44332200 Ry
     estimated scf accuracy    <       0.00001530 Ry

     iteration #  5     ecut=    50.00 Ry     beta= 0.60
     Davidson diagonalization with overlap
     ethr =  3.00E-08,  avg # of iterations =  2.9

     total cpu time spent up to now is     2305.6 secs

     total energy              =    -470.44331878 Ry
     Harris-Foulkes estimate   =    -470.44332003 Ry
     estimated scf accuracy    <       0.00000790 Ry

     iteration #  6     ecut=    50.00 Ry     beta= 0.60
     Davidson diagonalization with overlap
     ethr =  1.55E-08,  avg # of iterations =  1.3

     total cpu time spent up to now is     2315.6 secs

     total energy              =    -470.44331773 Ry
     Harris-Foulkes estimate   =    -470.44331901 Ry
     estimated scf accuracy    <       0.00000376 Ry

     iteration #  7     ecut=    50.00 Ry     beta= 0.60
     Davidson diagonalization with overlap
     ethr =  7.37E-09,  avg # of iterations =  3.5

     total cpu time spent up to now is     2328.6 secs

     total energy              =    -470.44331836 Ry
     Harris-Foulkes estimate   =    -470.44331840 Ry
     estimated scf accuracy    <       0.00000017 Ry

     iteration #  8     ecut=    50.00 Ry     beta= 0.60
     Davidson diagonalization with overlap
     ethr =  3.33E-10,  avg # of iterations =  4.0

     total cpu time spent up to now is     2342.0 secs

     total energy              =    -470.44331839 Ry
     Harris-Foulkes estimate   =    -470.44331840 Ry
     estimated scf accuracy    <       0.00000008 Ry

     iteration #  9     ecut=    50.00 Ry     beta= 0.60
     Davidson diagonalization with overlap
     ethr =  1.49E-10,  avg # of iterations =  1.2

     total cpu time spent up to now is     2352.0 secs

     total energy              =    -470.44331839 Ry
     Harris-Foulkes estimate   =    -470.44331839 Ry
     estimated scf accuracy    <       0.00000001 Ry

     iteration # 10     ecut=    50.00 Ry     beta= 0.60
     Davidson diagonalization with overlap
     ethr =  2.30E-11,  avg # of iterations =  4.0

     total cpu time spent up to now is     2365.3 secs

     total energy              =    -470.44331839 Ry
     Harris-Foulkes estimate   =    -470.44331839 Ry
     estimated scf accuracy    <          4.3E-09 Ry

     iteration # 11     ecut=    50.00 Ry     beta= 0.60
     Davidson diagonalization with overlap
     ethr =  8.41E-12,  avg # of iterations =  1.7

     total cpu time spent up to now is     2375.5 secs

     total energy              =    -470.44331839 Ry
     Harris-Foulkes estimate   =    -470.44331839 Ry
     estimated scf accuracy    <          2.0E-09 Ry

     iteration # 12     ecut=    50.00 Ry     beta= 0.60
     Davidson diagonalization with overlap
     ethr =  4.02E-12,  avg # of iterations =  3.0

     total cpu time spent up to now is     2387.4 secs

     total energy              =    -470.44331839 Ry
     Harris-Foulkes estimate   =    -470.44331839 Ry
     estimated scf accuracy    <          1.5E-10 Ry

     iteration # 13     ecut=    50.00 Ry     beta= 0.60
     Davidson diagonalization with overlap
     ethr =  3.03E-13,  avg # of iterations =  3.5

     total cpu time spent up to now is     2399.8 secs

     End of self-consistent calculation

     Number of k-points >= 100: set verbosity='high' to print the bands.

     the Fermi energy is    16.8338 ev

!    total energy              =    -470.44331839 Ry
     Harris-Foulkes estimate   =    -470.44331839 Ry
     estimated scf accuracy    <          4.4E-11 Ry

     The total energy is the sum of the following terms:

     one-electron contribution =     -89.55217698 Ry
     hartree contribution      =      69.39983821 Ry
     xc contribution           =     -69.86422057 Ry
     ewald contribution        =    -380.42636459 Ry
     smearing contrib. (-TS)   =      -0.00039446 Ry

     convergence has been achieved in  13 iterations

     Forces acting on atoms (cartesian axes, Ry/au):

     atom    1 type  2   force =     0.00000000    0.00000000    0.00000000
     atom    2 type  1   force =     0.00000000    0.00129503    0.00000000
     atom    3 type  1   force =     0.00000000   -0.00000000   -0.00000000
     atom    4 type  1   force =     0.00000000   -0.00129503    0.00000000

     Total force =     0.001831     Total SCF correction =     0.000004


     Computing stress (Cartesian axis) and pressure

          total   stress  (Ry/bohr**3)                   (kbar)     P=    0.79
   0.00001021   0.00000000   0.00000000          1.50      0.00      0.00
   0.00000000  -0.00000435   0.00000000          0.00     -0.64      0.00
   0.00000000   0.00000000   0.00001021          0.00      0.00      1.50


     number of scf cycles    =   6
     number of bfgs steps    =   5

     enthalpy old            =    -470.4433088879 Ry
     enthalpy new            =    -470.4433183891 Ry

     CASE: enthalpy_new < enthalpy_old

     new trust radius        =       0.0026476293 bohr
     new conv_thr            =            1.0E-10 Ry

     new unit-cell volume =    481.24845 a.u.^3 (    71.31366 Ang^3 )
     density =      7.60456 g/cm^3

CELL_PARAMETERS (alat=  1.88972599)
  -3.296324201   0.000000000   0.000000000
   0.000000000   0.000000000   3.296324201
   0.000000000   6.563160152   0.000000000

ATOMIC_POSITIONS (angstrom)
Ti      -1.648162100   1.640790038   1.648162100
Nb      -3.296324201   3.306026505   3.296324201
Nb      -1.648162100   4.922370114   1.648162100
Nb      -3.296324201   6.538713723   3.296324201


     NEW-OLD atomic charge density approx. for the potential
     extrapolated charge   51.00207, renormalised to   51.00000

     total cpu time spent up to now is     2409.2 secs

     Self-consistent Calculation

     iteration #  1     ecut=    50.00 Ry     beta= 0.60
     Davidson diagonalization with overlap
     ethr =  1.00E-06,  avg # of iterations =  3.0

     Threshold (ethr) on eigenvalues was too large:
     Diagonalizing with lowered threshold

     Davidson diagonalization with overlap
     ethr =  8.33E-08,  avg # of iterations =  1.8

     total cpu time spent up to now is     2434.7 secs

     total energy              =    -470.44329237 Ry
     Harris-Foulkes estimate   =    -470.44074863 Ry
     estimated scf accuracy    <       0.00004647 Ry

     iteration #  2     ecut=    50.00 Ry     beta= 0.60
     Davidson diagonalization with overlap
     ethr =  9.11E-08,  avg # of iterations =  4.9

     total cpu time spent up to now is     2451.2 secs

     total energy              =    -470.44313193 Ry
     Harris-Foulkes estimate   =    -470.44352949 Ry
     estimated scf accuracy    <       0.00343109 Ry

     iteration #  3     ecut=    50.00 Ry     beta= 0.60
     Davidson diagonalization with overlap
     ethr =  9.11E-08,  avg # of iterations =  5.0

     total cpu time spent up to now is     2467.7 secs

     total energy              =    -470.44332658 Ry
     Harris-Foulkes estimate   =    -470.44332669 Ry
     estimated scf accuracy    <       0.00000048 Ry

     iteration #  4     ecut=    50.00 Ry     beta= 0.60
     Davidson diagonalization with overlap
     ethr =  9.46E-10,  avg # of iterations =  3.2

     total cpu time spent up to now is     2480.7 secs

     total energy              =    -470.44332669 Ry
     Harris-Foulkes estimate   =    -470.44332669 Ry
     estimated scf accuracy    <       0.00000005 Ry

     iteration #  5     ecut=    50.00 Ry     beta= 0.60
     Davidson diagonalization with overlap
     ethr =  9.25E-11,  avg # of iterations =  4.1

     total cpu time spent up to now is     2494.8 secs

     total energy              =    -470.44332669 Ry
     Harris-Foulkes estimate   =    -470.44332670 Ry
     estimated scf accuracy    <       0.00000003 Ry

     iteration #  6     ecut=    50.00 Ry     beta= 0.60
     Davidson diagonalization with overlap
     ethr =  5.65E-11,  avg # of iterations =  3.9

     total cpu time spent up to now is     2508.6 secs

     total energy              =    -470.44332669 Ry
     Harris-Foulkes estimate   =    -470.44332670 Ry
     estimated scf accuracy    <       0.00000002 Ry

     iteration #  7     ecut=    50.00 Ry     beta= 0.60
     Davidson diagonalization with overlap
     ethr =  4.75E-11,  avg # of iterations =  2.9

     total cpu time spent up to now is     2520.1 secs

     total energy              =    -470.44332670 Ry
     Harris-Foulkes estimate   =    -470.44332670 Ry
     estimated scf accuracy    <          9.7E-10 Ry

[...]
     --------------------
     sticks:   dense  smooth     PW     G-vecs:    dense   smooth      PW
     Min         387     152     46                22741     5736     970
     Max         388     154     47                22746     5738     975
     Sum        1549     613    185                90973    22947    3887
 


     bravais-lattice index     =            0
     lattice parameter (alat)  =       1.8897  a.u.
     unit-cell volume          =     481.6058 (a.u.)^3
     number of atoms/cell      =            4
     number of atomic types    =            2
     number of electrons       =        51.00
     number of Kohn-Sham states=           31
     kinetic-energy cutoff     =      50.0000  Ry
     charge density cutoff     =     500.0000  Ry
     convergence threshold     =      3.5E-12
     mixing beta               =       0.6000
     number of iterations used =            8  plain     mixing
     Exchange-correlation      = SLA PW PBE PBE ( 1  4  3  4 0 0)

     celldm(1)=   1.889726  celldm(2)=   0.000000  celldm(3)=   0.000000
     celldm(4)=   0.000000  celldm(5)=   0.000000  celldm(6)=   0.000000

     crystal axes: (cart. coord. in units of alat)
               a(1) = (  -3.298539   0.000000   0.000000 )  
               a(2) = (   0.000000   0.000000   3.298539 )  
               a(3) = (   0.000000   6.559219   0.000000 )  

     reciprocal axes: (cart. coord. in units 2 pi/alat)
               b(1) = ( -0.303165  0.000000  0.000000 )  
               b(2) = (  0.000000  0.000000  0.303165 )  
               b(3) = (  0.000000  0.152457  0.000000 )  


     PseudoPot. # 1 for Nb read from file:
     ./Nb.pbe-nsp-van.UPF
     MD5 check sum: 0a22fc7fb0ba19a08ca5db297a5d2854
     Pseudo is Ultrasoft + core correction, Zval = 13.0
     Generated by new atomic code, or converted to UPF format
     Using radial grid of  887 points,  6 beta functions with: 
                l(1) =   0
                l(2) =   0
                l(3) =   1
                l(4) =   1
                l(5) =   2
                l(6) =   2
     Q(r) pseudized with  6 coefficients,  rinner =    1.000   1.000   1.000
                                                       1.000   1.000

     PseudoPot. # 2 for Ti read from file:
     ./Ti.pbe-sp-van_ak.UPF
     MD5 check sum: f98fea3e8887528921fefa5636a534ca
     Pseudo is Ultrasoft, Zval = 12.0
     Generated by new atomic code, or converted to UPF format
     Using radial grid of  851 points,  6 beta functions with: 
                l(1) =   0
                l(2) =   0
                l(3) =   1
                l(4) =   1
                l(5) =   2
                l(6) =   2
     Q(r) pseudized with  8 coefficients,  rinner =    1.000   1.000   1.000
                                                       1.000   1.000

     atomic species   valence    mass     pseudopotential
        Nb            13.00    92.90638     Nb( 1.00)
        Ti            12.00    47.86700     Ti( 1.00)

     16 Sym. Ops., with inversion, found ( 8 have fractional translation)



   Cartesian axes

     site n.     atom                  positions (alat units)
         1           Ti  tau(   1) = (  -1.6492694   1.6398049   1.6492694  )
         2           Nb  tau(   2) = (  -3.2985388   3.3059948   3.2985388  )
         3           Nb  tau(   3) = (  -1.6492694   4.9194146   1.6492694  )
         4           Nb  tau(   4) = (  -3.2985388   6.5328344   3.2985388  )

     number of k points=   225  Marzari-Vanderbilt smearing, width (Ry)=  0.0200

     Number of k-points >= 100: set verbosity='high' to print them.

     Dense  grid:    90973 G-vectors     FFT dimensions: (  45,  45,  90)

     Smooth grid:    22947 G-vectors     FFT dimensions: (  30,  30,  60)

     Estimated max dynamical RAM per process >     163.11 MB

     Estimated total dynamical RAM >     652.46 MB

     Initial potential from superposition of free atoms

     starting charge   49.99176, renormalised to   51.00000
     Starting wfcs are   49 randomized atomic wfcs

     total cpu time spent up to now is     3394.3 secs

     Self-consistent Calculation

     iteration #  1     ecut=    50.00 Ry     beta= 0.60
     Davidson diagonalization with overlap
     ethr =  1.00E-06,  avg # of iterations = 11.2

     total cpu time spent up to now is     3426.0 secs

     total energy              =    -442.48401819 Ry
     Harris-Foulkes estimate   =    -473.10632907 Ry
     estimated scf accuracy    <      37.88745588 Ry

     iteration #  2     ecut=    50.00 Ry     beta= 0.60
     Davidson diagonalization with overlap
     ethr =  1.00E-02,  avg # of iterations =  6.9

     total cpu time spent up to now is     3446.7 secs

     total energy              =    -448.65004086 Ry
     Harris-Foulkes estimate   =    -528.13221960 Ry
     estimated scf accuracy    <     281.53872590 Ry

     iteration #  3     ecut=    50.00 Ry     beta= 0.60
     Davidson diagonalization with overlap
     ethr =  1.00E-02,  avg # of iterations =  6.2

     total cpu time spent up to now is     3465.6 secs

     total energy              =    -471.30008895 Ry
     Harris-Foulkes estimate   =    -474.57654115 Ry
     estimated scf accuracy    <      15.30488768 Ry

     iteration #  4     ecut=    50.00 Ry     beta= 0.60
     Davidson diagonalization with overlap
     ethr =  1.00E-02,  avg # of iterations =  3.0

     total cpu time spent up to now is     3476.3 secs

     total energy              =    -471.13390154 Ry
     Harris-Foulkes estimate   =    -472.37894150 Ry
     estimated scf accuracy    <      10.67189831 Ry

     iteration #  5     ecut=    50.00 Ry     beta= 0.60
     Davidson diagonalization with overlap
     ethr =  1.00E-02,  avg # of iterations =  1.5

     total cpu time spent up to now is     3485.3 secs

     total energy              =    -470.93222836 Ry
     Harris-Foulkes estimate   =    -471.30352525 Ry
     estimated scf accuracy    <       5.37603989 Ry

     iteration #  6     ecut=    50.00 Ry     beta= 0.60
     Davidson diagonalization with overlap
     ethr =  1.00E-02,  avg # of iterations =  1.0

     total cpu time spent up to now is     3493.9 secs

     total energy              =    -469.95977751 Ry
     Harris-Foulkes estimate   =    -470.97254432 Ry
     estimated scf accuracy    <       4.17764612 Ry

     iteration #  7     ecut=    50.00 Ry     beta= 0.60
     Davidson diagonalization with overlap
     ethr =  8.19E-03,  avg # of iterations =  3.8

     total cpu time spent up to now is     3505.3 secs

     total energy              =    -470.34552802 Ry
     Harris-Foulkes estimate   =    -470.43236697 Ry
     estimated scf accuracy    <       0.18230160 Ry

     iteration #  8     ecut=    50.00 Ry     beta= 0.60
     Davidson diagonalization with overlap
     ethr =  3.57E-04,  avg # of iterations =  5.9

     total cpu time spent up to now is     3520.9 secs

     total energy              =    -470.34134436 Ry
     Harris-Foulkes estimate   =    -470.57616930 Ry
     estimated scf accuracy    <       1.41214192 Ry

     iteration #  9     ecut=    50.00 Ry     beta= 0.60
     Davidson diagonalization with overlap
     ethr =  3.57E-04,  avg # of iterations =  4.9

     total cpu time spent up to now is     3535.9 secs

     total energy              =    -470.44304228 Ry
     Harris-Foulkes estimate   =    -470.44381636 Ry
     estimated scf accuracy    <       0.00533728 Ry

     iteration # 10     ecut=    50.00 Ry     beta= 0.60
     Davidson diagonalization with overlap
     ethr =  1.05E-05,  avg # of iterations =  3.1

     total cpu time spent up to now is     3546.5 secs

     total energy              =    -470.44056094 Ry
     Harris-Foulkes estimate   =    -470.44358727 Ry
     estimated scf accuracy    <       0.01055647 Ry

     iteration # 11     ecut=    50.00 Ry     beta= 0.60
     Davidson diagonalization with overlap
     ethr =  1.05E-05,  avg # of iterations =  5.2

     total cpu time spent up to now is     3561.3 secs

     total energy              =    -470.44201937 Ry
     Harris-Foulkes estimate   =    -470.44396583 Ry
     estimated scf accuracy    <       0.01503749 Ry

     iteration # 12     ecut=    50.00 Ry     beta= 0.60
     Davidson diagonalization with overlap
     ethr =  1.05E-05,  avg # of iterations =  3.9

     total cpu time spent up to now is     3572.2 secs

     total energy              =    -470.44264739 Ry
     Harris-Foulkes estimate   =    -470.44279957 Ry
     estimated scf accuracy    <       0.00079196 Ry

     iteration # 13     ecut=    50.00 Ry     beta= 0.60
     Davidson diagonalization with overlap
     ethr =  1.55E-06,  avg # of iterations =  5.4

     total cpu time spent up to now is     3586.5 secs

     total energy              =    -470.44283900 Ry
     Harris-Foulkes estimate   =    -470.44289027 Ry
     estimated scf accuracy    <       0.00063106 Ry

     iteration # 14     ecut=    50.00 Ry     beta= 0.60
     Davidson diagonalization with overlap
     ethr =  1.24E-06,  avg # of iterations =  1.0

     total cpu time spent up to now is     3595.1 secs

     total energy              =    -470.44280229 Ry
     Harris-Foulkes estimate   =    -470.44284727 Ry
     estimated scf accuracy    <       0.00027202 Ry

     iteration # 15     ecut=    50.00 Ry     beta= 0.60
     Davidson diagonalization with overlap
     ethr =  5.33E-07,  avg # of iterations =  3.5

     total cpu time spent up to now is     3606.0 secs

     total energy              =    -470.44283694 Ry
     Harris-Foulkes estimate   =    -470.44283718 Ry
     estimated scf accuracy    <       0.00001319 Ry

     iteration # 16     ecut=    50.00 Ry     beta= 0.60
     Davidson diagonalization with overlap
     ethr =  2.59E-08,  avg # of iterations =  2.7

     total cpu time spent up to now is     3616.0 secs

     total energy              =    -470.44283703 Ry
     Harris-Foulkes estimate   =    -470.44283775 Ry
     estimated scf accuracy    <       0.00001622 Ry

     iteration # 17     ecut=    50.00 Ry     beta= 0.60
     Davidson diagonalization with overlap
     ethr =  2.59E-08,  avg # of iterations =  1.0

     total cpu time spent up to now is     3624.7 secs

     total energy              =    -470.44283528 Ry
     Harris-Foulkes estimate   =    -470.44283714 Ry
     estimated scf accuracy    <       0.00001174 Ry

     iteration # 18     ecut=    50.00 Ry     beta= 0.60
     Davidson diagonalization with overlap
     ethr =  2.30E-08,  avg # of iterations =  2.8

     total cpu time spent up to now is     3634.5 secs

     total energy              =    -470.44283599 Ry
     Harris-Foulkes estimate   =    -470.44283602 Ry
     estimated scf accuracy    <       0.00000041 Ry

     iteration # 19     ecut=    50.00 Ry     beta= 0.60
     Davidson diagonalization with overlap
     ethr =  8.12E-10,  avg # of iterations =  4.4

     total cpu time spent up to now is     3647.2 secs

     total energy              =    -470.44283616 Ry
     Harris-Foulkes estimate   =    -470.44283616 Ry
     estimated scf accuracy    <       0.00000004 Ry

     iteration # 20     ecut=    50.00 Ry     beta= 0.60
     Davidson diagonalization with overlap
     ethr =  8.15E-11,  avg # of iterations =  2.3

     total cpu time spent up to now is     3656.8 secs

     total energy              =    -470.44283616 Ry
     Harris-Foulkes estimate   =    -470.44283616 Ry
     estimated scf accuracy    <       0.00000003 Ry

     iteration # 21     ecut=    50.00 Ry     beta= 0.60
     Davidson diagonalization with overlap
     ethr =  6.54E-11,  avg # of iterations =  1.1

     total cpu time spent up to now is     3665.5 secs

     total energy              =    -470.44283616 Ry
     Harris-Foulkes estimate   =    -470.44283616 Ry
     estimated scf accuracy    <       0.00000004 Ry

     iteration # 22     ecut=    50.00 Ry     beta= 0.60
     Davidson diagonalization with overlap
     ethr =  6.54E-11,  avg # of iterations =  1.3

     total cpu time spent up to now is     3674.3 secs

     total energy              =    -470.44283619 Ry
     Harris-Foulkes estimate   =    -470.44283616 Ry
     estimated scf accuracy    <       0.00000004 Ry

     iteration # 23     ecut=    50.00 Ry     beta= 0.60
     Davidson diagonalization with overlap
     ethr =  6.54E-11,  avg # of iterations =  4.1

     total cpu time spent up to now is     3687.3 secs

     total energy              =    -470.44283625 Ry
     Harris-Foulkes estimate   =    -470.44283623 Ry
     estimated scf accuracy    <       0.00000061 Ry

     iteration # 24     ecut=    50.00 Ry     beta= 0.60
     Davidson diagonalization with overlap
     ethr =  6.54E-11,  avg # of iterations =  1.0

     total cpu time spent up to now is     3695.9 secs

     total energy              =    -470.44283624 Ry
     Harris-Foulkes estimate   =    -470.44283625 Ry
     estimated scf accuracy    <       0.00000073 Ry

     iteration # 25     ecut=    50.00 Ry     beta= 0.60
     Davidson diagonalization with overlap
     ethr =  6.54E-11,  avg # of iterations =  1.0

     total cpu time spent up to now is     3704.6 secs

     total energy              =    -470.44283623 Ry
     Harris-Foulkes estimate   =    -470.44283624 Ry
     estimated scf accuracy    <       0.00000069 Ry

     iteration # 26     ecut=    50.00 Ry     beta= 0.60
     Davidson diagonalization with overlap
     ethr =  6.54E-11,  avg # of iterations =  1.0

     total cpu time spent up to now is     3713.2 secs

     total energy              =    -470.44283624 Ry
     Harris-Foulkes estimate   =    -470.44283623 Ry
     estimated scf accuracy    <       0.00000063 Ry

     iteration # 27     ecut=    50.00 Ry     beta= 0.60
     Davidson diagonalization with overlap
     ethr =  6.54E-11,  avg # of iterations =  1.0

     total cpu time spent up to now is     3721.8 secs

     total energy              =    -470.44283616 Ry
     Harris-Foulkes estimate   =    -470.44283624 Ry
     estimated scf accuracy    <       0.00000068 Ry

     iteration # 28     ecut=    50.00 Ry     beta= 0.60
     Davidson diagonalization with overlap
     ethr =  6.54E-11,  avg # of iterations =  3.9

     total cpu time spent up to now is     3734.3 secs

     total energy              =    -470.44283616 Ry
     Harris-Foulkes estimate   =    -470.44283618 Ry
     estimated scf accuracy    <       0.00000018 Ry

     iteration # 29     ecut=    50.00 Ry     beta= 0.60
     Davidson diagonalization with overlap
     ethr =  6.54E-11,  avg # of iterations =  3.4

     total cpu time spent up to now is     3745.3 secs

     total energy              =    -470.44283615 Ry
     Harris-Foulkes estimate   =    -470.44283616 Ry
     estimated scf accuracy    <       0.00000005 Ry

     iteration # 30     ecut=    50.00 Ry     beta= 0.60
     Davidson diagonalization with overlap
     ethr =  6.54E-11,  avg # of iterations =  2.3

     total cpu time spent up to now is     3754.8 secs

     total energy              =    -470.44283616 Ry
     Harris-Foulkes estimate   =    -470.44283616 Ry
     estimated scf accuracy    <          8.7E-09 Ry

     iteration # 31     ecut=    50.00 Ry     beta= 0.60
     Davidson diagonalization with overlap
     ethr =  1.71E-11,  avg # of iterations =  3.8

     total cpu time spent up to now is     3766.5 secs

     total energy              =    -470.44283616 Ry
     Harris-Foulkes estimate   =    -470.44283616 Ry
     estimated scf accuracy    <          1.3E-10 Ry

     iteration # 32     ecut=    50.00 Ry     beta= 0.60
     Davidson diagonalization with overlap
     ethr =  2.47E-13,  avg # of iterations =  4.1

     total cpu time spent up to now is     3778.9 secs

     End of self-consistent calculation

     Number of k-points >= 100: set verbosity='high' to print the bands.

     the Fermi energy is    16.8192 ev

!    total energy              =    -470.44283616 Ry
     Harris-Foulkes estimate   =    -470.44283616 Ry
     estimated scf accuracy    <          8.0E-13 Ry

     The total energy is the sum of the following terms:

     one-electron contribution =     -89.75798009 Ry
     hartree contribution      =      69.47039936 Ry
     xc contribution           =     -69.86153863 Ry
     ewald contribution        =    -380.29334967 Ry
     smearing contrib. (-TS)   =      -0.00036712 Ry

     convergence has been achieved in  32 iterations

     Forces acting on atoms (cartesian axes, Ry/au):

     atom    1 type  2   force =     0.00000000    0.00000000    0.00000000
     atom    2 type  1   force =     0.00000000   -0.00000786    0.00000000
     atom    3 type  1   force =     0.00000000    0.00000000    0.00000000
     atom    4 type  1   force =     0.00000000    0.00000786    0.00000000

     Total force =     0.000011     Total SCF correction =     0.000004
     SCF correction compared to forces is large: reduce conv_thr to get better values


     Computing stress (Cartesian axis) and pressure

          total   stress  (Ry/bohr**3)                   (kbar)     P=   -1.34
  -0.00000887   0.00000000   0.00000000         -1.30      0.00      0.00
   0.00000000  -0.00000952   0.00000000          0.00     -1.40      0.00
   0.00000000   0.00000000  -0.00000887          0.00      0.00     -1.30

 
     init_run     :     11.87s CPU     12.32s WALL (       2 calls)
     electrons    :   3534.22s CPU   3648.77s WALL (      13 calls)
     update_pot   :     16.17s CPU     16.20s WALL (      11 calls)
     forces       :     27.45s CPU     28.92s WALL (      13 calls)
     stress       :     68.62s CPU     72.90s WALL (      13 calls)

     Called by init_run:
     wfcinit      :      9.89s CPU     10.13s WALL (       2 calls)
     potinit      :      0.56s CPU      0.57s WALL (       2 calls)
     hinit0       :      1.14s CPU      1.25s WALL (       2 calls)

     Called by electrons:
     c_bands      :   3019.23s CPU   3073.82s WALL (     255 calls)
     sum_band     :    464.26s CPU    497.92s WALL (     255 calls)
     v_of_rho     :      8.91s CPU      8.98s WALL (     263 calls)
     newd         :     42.31s CPU     69.50s WALL (     263 calls)
     mix_rho      :      1.26s CPU      1.28s WALL (     255 calls)

     Called by c_bands:
     init_us_2    :     72.42s CPU     72.83s WALL (  121050 calls)
     cegterg      :   2672.14s CPU   2722.42s WALL (   57375 calls)

     Called by sum_band:
     sum_band:bec :      1.59s CPU      1.73s WALL (   57375 calls)
     addusdens    :     48.21s CPU     72.44s WALL (     255 calls)

     Called by *egterg:
     h_psi        :   1631.77s CPU   1675.75s WALL (  241484 calls)
     s_psi        :    105.09s CPU    105.09s WALL (  241484 calls)
     g_psi        :     19.34s CPU     19.43s WALL (  183659 calls)
     cdiaghg      :    467.02s CPU    468.30s WALL (  237434 calls)

     Called by h_psi:
     h_psi:pot    :   1619.52s CPU   1663.12s WALL (  241484 calls)
     h_psi:calbec :    113.31s CPU    113.98s WALL (  241484 calls)
     vloc_psi     :   1394.90s CPU   1436.02s WALL (  241484 calls)
     add_vuspsi   :    110.17s CPU    111.64s WALL (  241484 calls)

     General routines
     calbec       :    161.06s CPU    161.84s WALL (  313484 calls)
     fft          :      5.86s CPU      6.08s WALL (    3747 calls)
     ffts         :      0.16s CPU      0.17s WALL (     518 calls)
     fftw         :   1515.89s CPU   1554.58s WALL (10798757 calls)
     interpolate  :      0.53s CPU      0.54s WALL (     263 calls)
 
     Parallel routines
     fft_scatt_xy :    308.80s CPU    316.06s WALL (10803022 calls)
     fft_scatt_yz :    394.97s CPU    404.85s WALL (10803022 calls)
 
     PWSCF        :     1h 1m CPU        1h 1m WALL

       3h
 
   This run was terminated on:  14:52:53  28Jan2020            

=------------------------------------------------------------------------------=
   JOB DONE.
=------------------------------------------------------------------------------=
