
     Program PWSCF v.6.0 (svn rev. 13079) starts on 26Apr2018 at 18:12:10 

     This program is part of the open-source Quantum ESPRESSO suite
     for quantum simulation of materials; please cite
         "P. Giannozzi et al., J. Phys.:Condens. Matter 21 395502 (2009);
          URL http://www.quantum-espresso.org", 
     in publications or presentations arising from this work. More details at
     http://www.quantum-espresso.org/quote

     Parallel version (MPI), running on     4 processors
     R & G space division:  proc/nbgrp/npool/nimage =       4
     Waiting for input...
     Reading input from standard input

     Current dimensions of program PWSCF are:
     Max number of different atomic species (ntypx) = 10
     Max number of k-points (npk) =  40000
     Max angular momentum in pseudopotentials (lmaxx) =  3

     Subspace diagonalization in iterative solution of the eigenvalue problem:
     a serial algorithm will be used


     Parallelization info
     --------------------
     sticks:   dense  smooth     PW     G-vecs:    dense   smooth      PW
     Min         431     171     53                18199     4595     779
     Max         432     172     54                18202     4596     782
     Sum        1727     687    213                72801    18383    3123



     bravais-lattice index     =            0
     lattice parameter (alat)  =       1.8897  a.u.
     unit-cell volume          =     538.8952 (a.u.)^3
     number of atoms/cell      =            4
     number of atomic types    =            2
     number of electrons       =        51.00
     number of Kohn-Sham states=           31
     kinetic-energy cutoff     =      40.0000  Ry
     charge density cutoff     =     400.0000  Ry
     convergence threshold     =      1.0E-10
     mixing beta               =       0.6000
     number of iterations used =            8  plain     mixing
     Exchange-correlation      = SLA  PW   PBE  PBE ( 1  4  3  4 0 0)
     nstep                     =           50


     celldm(1)=   1.889726  celldm(2)=   0.000000  celldm(3)=   0.000000
     celldm(4)=   0.000000  celldm(5)=   0.000000  celldm(6)=   0.000000

     crystal axes: (cart. coord. in units of alat)
               a(1) = (   1.522502  -2.637051   0.000000 )  
               a(2) = (   0.000000   0.000000  -4.972461 )  
               a(3) = (   4.567506   2.637051   0.000000 )  

     reciprocal axes: (cart. coord. in units 2 pi/alat)
               b(1) = (  0.164203 -0.284409  0.000000 )  
               b(2) = (  0.000000  0.000000 -0.201108 )  
               b(3) = (  0.164203  0.094803  0.000000 )  


     PseudoPot. # 1 for Nb read from file:
     ./Nb.pbe-nsp-van.UPF
     MD5 check sum: 0a22fc7fb0ba19a08ca5db297a5d2854
     Pseudo is Ultrasoft + core correction, Zval = 13.0
     Generated by new atomic code, or converted to UPF format
     Using radial grid of  887 points,  6 beta functions with: 
                l(1) =   0
                l(2) =   0
                l(3) =   1
                l(4) =   1
                l(5) =   2
                l(6) =   2
     Q(r) pseudized with  6 coefficients,  rinner =    1.000   1.000   1.000
                                                       1.000   1.000

     PseudoPot. # 2 for Ti read from file:
     ./Ti.pbe-sp-van_ak.UPF
     MD5 check sum: f98fea3e8887528921fefa5636a534ca
     Pseudo is Ultrasoft, Zval = 12.0
     Generated by new atomic code, or converted to UPF format
     Using radial grid of  851 points,  6 beta functions with: 
                l(1) =   0
                l(2) =   0
                l(3) =   1
                l(4) =   1
                l(5) =   2
                l(6) =   2
     Q(r) pseudized with  8 coefficients,  rinner =    1.000   1.000   1.000
                                                       1.000   1.000

     atomic species   valence    mass     pseudopotential
        Nb            13.00    92.90638     Nb( 1.00)
        Ti            12.00    47.86700     Ti( 1.00)

      4 Sym. Ops. (no inversion) found



   Cartesian axes

     site n.     atom                  positions (alat units)
         1           Ti  tau(   1) = (   3.0450042   0.0000000  -4.9724614  )
         2           Nb  tau(   2) = (   3.0450058  -1.7580350  -2.4862307  )
         3           Nb  tau(   3) = (   6.0900085   0.0000000  -4.9724614  )
         4           Nb  tau(   4) = (   4.5675079   0.8790162  -2.4862307  )

     number of k points=   360  Marzari-Vanderbilt smearing, width (Ry)=  0.0200

     Number of k-points >= 100: set verbosity='high' to print them.

     Dense  grid:    72801 G-vectors     FFT dimensions: (  40,  60,  64)

     Smooth grid:    18383 G-vectors     FFT dimensions: (  24,  40,  45)

     Estimated max dynamical RAM per process >     111.60Mb

     Estimated total allocated dynamical RAM >     446.40Mb

     Check: negative/imaginary core charge=   -0.000001    0.000000

     Initial potential from superposition of free atoms

     starting charge   49.99176, renormalised to   51.00000
     Starting wfc are   49 randomized atomic wfcs

     total cpu time spent up to now is       18.2 secs

     per-process dynamical memory:   182.9 Mb

     Self-consistent Calculation

     iteration #  1     ecut=    40.00 Ry     beta=0.60
     Davidson diagonalization with overlap
     ethr =  1.00E-02,  avg # of iterations =  2.2

     total cpu time spent up to now is       51.1 secs

     total energy              =    -450.63721922 Ry
     Harris-Foulkes estimate   =    -472.44989629 Ry
     estimated scf accuracy    <      27.23915033 Ry

     iteration #  2     ecut=    40.00 Ry     beta=0.60
     Davidson diagonalization with overlap
     ethr =  1.00E-02,  avg # of iterations =  6.5

     total cpu time spent up to now is      116.8 secs

     total energy              =    -459.16680185 Ry
     Harris-Foulkes estimate   =    -501.87840731 Ry
     estimated scf accuracy    <     131.84483809 Ry

     iteration #  3     ecut=    40.00 Ry     beta=0.60
     Davidson diagonalization with overlap
     ethr =  1.00E-02,  avg # of iterations =  5.2

     total cpu time spent up to now is      175.3 secs

     total energy              =    -471.42483697 Ry
     Harris-Foulkes estimate   =    -473.51313539 Ry
     estimated scf accuracy    <      13.99317753 Ry

     iteration #  4     ecut=    40.00 Ry     beta=0.60
     Davidson diagonalization with overlap
     ethr =  1.00E-02,  avg # of iterations =  2.2

     total cpu time spent up to now is      208.0 secs

     total energy              =    -471.71830373 Ry
     Harris-Foulkes estimate   =    -472.23897776 Ry
     estimated scf accuracy    <       7.28855776 Ry

     iteration #  5     ecut=    40.00 Ry     beta=0.60
     Davidson diagonalization with overlap
     ethr =  1.00E-02,  avg # of iterations =  1.0

     total cpu time spent up to now is      238.9 secs

     total energy              =    -471.57224584 Ry
     Harris-Foulkes estimate   =    -471.84894530 Ry
     estimated scf accuracy    <       5.74626030 Ry

     iteration #  6     ecut=    40.00 Ry     beta=0.60
     Davidson diagonalization with overlap
     ethr =  1.00E-02,  avg # of iterations =  1.0

     total cpu time spent up to now is      266.0 secs

     total energy              =    -470.64577016 Ry
     Harris-Foulkes estimate   =    -471.59689159 Ry
     estimated scf accuracy    <       4.99849181 Ry

     iteration #  7     ecut=    40.00 Ry     beta=0.60
     Davidson diagonalization with overlap
     ethr =  9.80E-03,  avg # of iterations =  1.0

     total cpu time spent up to now is      293.1 secs

     total energy              =    -470.40882571 Ry
     Harris-Foulkes estimate   =    -470.72727040 Ry
     estimated scf accuracy    <       2.64449278 Ry

     iteration #  8     ecut=    40.00 Ry     beta=0.60
     Davidson diagonalization with overlap
     ethr =  5.19E-03,  avg # of iterations =  1.3

     total cpu time spent up to now is      320.6 secs

     total energy              =    -469.60155856 Ry
     Harris-Foulkes estimate   =    -470.45384090 Ry
     estimated scf accuracy    <       1.68147276 Ry

     iteration #  9     ecut=    40.00 Ry     beta=0.60
     Davidson diagonalization with overlap
     ethr =  3.30E-03,  avg # of iterations =  4.4

     total cpu time spent up to now is      371.4 secs

     total energy              =    -469.60407571 Ry
     Harris-Foulkes estimate   =    -472.30104922 Ry
     estimated scf accuracy    <      30.83051847 Ry

     iteration # 10     ecut=    40.00 Ry     beta=0.60
     Davidson diagonalization with overlap
     ethr =  3.30E-03,  avg # of iterations =  3.9

     total cpu time spent up to now is      406.7 secs

     total energy              =    -470.16796944 Ry
     Harris-Foulkes estimate   =    -470.43818973 Ry
     estimated scf accuracy    <       1.86311808 Ry

     iteration # 11     ecut=    40.00 Ry     beta=0.60
     Davidson diagonalization with overlap
     ethr =  3.30E-03,  avg # of iterations =  2.6

     total cpu time spent up to now is      436.6 secs

     total energy              =    -470.34267394 Ry
     Harris-Foulkes estimate   =    -470.37295301 Ry
     estimated scf accuracy    <       0.22077778 Ry

     iteration # 12     ecut=    40.00 Ry     beta=0.60
     Davidson diagonalization with overlap
     ethr =  4.33E-04,  avg # of iterations =  5.0

     total cpu time spent up to now is      477.0 secs

     total energy              =    -470.36672466 Ry
     Harris-Foulkes estimate   =    -470.36822656 Ry
     estimated scf accuracy    <       0.05414473 Ry

     iteration # 13     ecut=    40.00 Ry     beta=0.60
     Davidson diagonalization with overlap
     ethr =  1.06E-04,  avg # of iterations =  3.1

     total cpu time spent up to now is      508.2 secs

     total energy              =    -470.35260136 Ry
     Harris-Foulkes estimate   =    -470.37166999 Ry
     estimated scf accuracy    <       0.12932590 Ry

     iteration # 14     ecut=    40.00 Ry     beta=0.60
     Davidson diagonalization with overlap
     ethr =  1.06E-04,  avg # of iterations =  2.7

     total cpu time spent up to now is      538.6 secs

     total energy              =    -470.35796912 Ry
     Harris-Foulkes estimate   =    -470.35917759 Ry
     estimated scf accuracy    <       0.01397689 Ry

     iteration # 15     ecut=    40.00 Ry     beta=0.60
     Davidson diagonalization with overlap
     ethr =  2.74E-05,  avg # of iterations =  4.6

     total cpu time spent up to now is      575.6 secs

     total energy              =    -470.35960568 Ry
     Harris-Foulkes estimate   =    -470.35932448 Ry
     estimated scf accuracy    <       0.01407549 Ry

     iteration # 16     ecut=    40.00 Ry     beta=0.60
     Davidson diagonalization with overlap
     ethr =  2.74E-05,  avg # of iterations =  2.5

     total cpu time spent up to now is      605.6 secs

     total energy              =    -470.35538992 Ry
     Harris-Foulkes estimate   =    -470.36034477 Ry
     estimated scf accuracy    <       0.03673721 Ry

     iteration # 17     ecut=    40.00 Ry     beta=0.60
     Davidson diagonalization with overlap
     ethr =  2.74E-05,  avg # of iterations =  2.4

     total cpu time spent up to now is      635.7 secs

     total energy              =    -470.35688221 Ry
     Harris-Foulkes estimate   =    -470.35791422 Ry
     estimated scf accuracy    <       0.00603797 Ry

     iteration # 18     ecut=    40.00 Ry     beta=0.60
     Davidson diagonalization with overlap
     ethr =  1.18E-05,  avg # of iterations =  1.3

     total cpu time spent up to now is      663.3 secs

     total energy              =    -470.35541761 Ry
     Harris-Foulkes estimate   =    -470.35703859 Ry
     estimated scf accuracy    <       0.00325427 Ry

     iteration # 19     ecut=    40.00 Ry     beta=0.60
     Davidson diagonalization with overlap
     ethr =  6.38E-06,  avg # of iterations =  3.8

     total cpu time spent up to now is      706.9 secs

     total energy              =    -470.35612893 Ry
     Harris-Foulkes estimate   =    -470.35624182 Ry
     estimated scf accuracy    <       0.00039133 Ry

     iteration # 20     ecut=    40.00 Ry     beta=0.60
     Davidson diagonalization with overlap
     ethr =  7.67E-07,  avg # of iterations =  3.6

     total cpu time spent up to now is      745.5 secs

     total energy              =    -470.35615418 Ry
     Harris-Foulkes estimate   =    -470.35618078 Ry
     estimated scf accuracy    <       0.00009786 Ry

     iteration # 21     ecut=    40.00 Ry     beta=0.60
     Davidson diagonalization with overlap
     ethr =  1.92E-07,  avg # of iterations =  4.2

     total cpu time spent up to now is      784.7 secs

     total energy              =    -470.35616725 Ry
     Harris-Foulkes estimate   =    -470.35618354 Ry
     estimated scf accuracy    <       0.00011905 Ry

     iteration # 22     ecut=    40.00 Ry     beta=0.60
     Davidson diagonalization with overlap
     ethr =  1.92E-07,  avg # of iterations =  1.1

     total cpu time spent up to now is      812.3 secs

     total energy              =    -470.35617350 Ry
     Harris-Foulkes estimate   =    -470.35617396 Ry
     estimated scf accuracy    <       0.00000419 Ry

     iteration # 23     ecut=    40.00 Ry     beta=0.60
     Davidson diagonalization with overlap
     ethr =  8.21E-09,  avg # of iterations =  4.9

     total cpu time spent up to now is      858.2 secs

     total energy              =    -470.35617587 Ry
     Harris-Foulkes estimate   =    -470.35617609 Ry
     estimated scf accuracy    <       0.00000378 Ry

     iteration # 24     ecut=    40.00 Ry     beta=0.60
     Davidson diagonalization with overlap
     ethr =  7.41E-09,  avg # of iterations =  1.0

     total cpu time spent up to now is      885.5 secs

     total energy              =    -470.35617572 Ry
     Harris-Foulkes estimate   =    -470.35617594 Ry
     estimated scf accuracy    <       0.00000187 Ry

     iteration # 25     ecut=    40.00 Ry     beta=0.60
     Davidson diagonalization with overlap
     ethr =  3.67E-09,  avg # of iterations =  2.5

     total cpu time spent up to now is      915.6 secs

     total energy              =    -470.35617582 Ry
     Harris-Foulkes estimate   =    -470.35617582 Ry
     estimated scf accuracy    <       0.00000004 Ry

     iteration # 26     ecut=    40.00 Ry     beta=0.60
     Davidson diagonalization with overlap
     ethr =  8.14E-11,  avg # of iterations =  5.2

     total cpu time spent up to now is      961.1 secs

     total energy              =    -470.35617584 Ry
     Harris-Foulkes estimate   =    -470.35617584 Ry
     estimated scf accuracy    <       0.00000005 Ry

     iteration # 27     ecut=    40.00 Ry     beta=0.60
     Davidson diagonalization with overlap
     ethr =  8.14E-11,  avg # of iterations =  1.0

     total cpu time spent up to now is      987.9 secs

     total energy              =    -470.35617584 Ry
     Harris-Foulkes estimate   =    -470.35617584 Ry
     estimated scf accuracy    <       0.00000002 Ry

     iteration # 28     ecut=    40.00 Ry     beta=0.60
     Davidson diagonalization with overlap
     ethr =  3.75E-11,  avg # of iterations =  3.0

     total cpu time spent up to now is     1019.3 secs

     total energy              =    -470.35617584 Ry
     Harris-Foulkes estimate   =    -470.35617584 Ry
     estimated scf accuracy    <          5.6E-10 Ry

     iteration # 29     ecut=    40.00 Ry     beta=0.60
     Davidson diagonalization with overlap
     ethr =  1.10E-12,  avg # of iterations =  4.8

     total cpu time spent up to now is     1062.7 secs

     total energy              =    -470.35617584 Ry
     Harris-Foulkes estimate   =    -470.35617584 Ry
     estimated scf accuracy    <          8.4E-10 Ry

     iteration # 30     ecut=    40.00 Ry     beta=0.60
     Davidson diagonalization with overlap
     ethr =  1.10E-12,  avg # of iterations =  1.0

     total cpu time spent up to now is     1089.6 secs

     total energy              =    -470.35617584 Ry
     Harris-Foulkes estimate   =    -470.35617584 Ry
     estimated scf accuracy    <          2.9E-10 Ry

     iteration # 31     ecut=    40.00 Ry     beta=0.60
     Davidson diagonalization with overlap
     ethr =  5.60E-13,  avg # of iterations =  2.9

     total cpu time spent up to now is     1120.8 secs

     End of self-consistent calculation

     Number of k-points >= 100: set verbosity='high' to print the bands.

     the Fermi energy is    15.0751 ev

!    total energy              =    -470.35617584 Ry
     Harris-Foulkes estimate   =    -470.35617584 Ry
     estimated scf accuracy    <          9.9E-12 Ry

     The total energy is the sum of the following terms:

     one-electron contribution =    -109.40904741 Ry
     hartree contribution      =      74.98630738 Ry
     xc contribution           =     -69.41445856 Ry
     ewald contribution        =    -366.51692832 Ry
     smearing contrib. (-TS)   =      -0.00204894 Ry

     convergence has been achieved in  31 iterations

     Forces acting on atoms (Ry/au):

     atom    1 type  2   force =    -0.00192884   -0.00111361    0.00000000
     atom    2 type  1   force =     0.00143744    0.00082991    0.00000000
     atom    3 type  1   force =     0.00218660    0.00126243    0.00000000
     atom    4 type  1   force =    -0.00169520   -0.00097873    0.00000000

     Total force =     0.004233     Total SCF correction =     0.000006


     entering subroutine stress ...

          total   stress  (Ry/bohr**3)                   (kbar)     P= -115.25
  -0.00089385   0.00001566   0.00000000       -131.49      2.30      0.00
   0.00001566  -0.00091194   0.00000000          2.30   -134.15      0.00
   0.00000000   0.00000000  -0.00054453          0.00      0.00    -80.10


     BFGS Geometry Optimization

     number of scf cycles    =   1
     number of bfgs steps    =   0

     enthalpy new            =    -470.3561758404 Ry

     new trust radius        =       0.1058646916 bohr
     new conv_thr            =            1.0E-10 Ry

     new unit-cell volume =    507.83267 a.u.^3 (    75.25304 Ang^3 )

CELL_PARAMETERS (alat=  1.88972599)
   1.487447170  -2.576334257   0.000000000
   0.000000000   0.000000000  -4.904769589
   4.466471527   2.578718724   0.000000000

ATOMIC_POSITIONS (angstrom)
Ti       2.975961230   0.000615970  -4.904769589
Nb       2.977016335  -1.716332755  -2.452384794
Nb       5.955050200   0.003037740  -4.904769589
Nb       4.464907460   0.860257820  -2.452384794


     NEW-OLD atomic charge density approx. for the potential

     Check: negative/imaginary core charge=   -0.000001    0.000000
     extrapolated charge   47.94216, renormalised to   51.00000

     total cpu time spent up to now is     1137.3 secs

     per-process dynamical memory:   190.0 Mb

     Self-consistent Calculation

     iteration #  1     ecut=    40.00 Ry     beta=0.60
     Davidson diagonalization with overlap
     c_bands:  1 eigenvalues not converged
     c_bands:  1 eigenvalues not converged
     c_bands:  1 eigenvalues not converged
     c_bands:  1 eigenvalues not converged
     c_bands:  1 eigenvalues not converged
     c_bands:  1 eigenvalues not converged
     c_bands:  1 eigenvalues not converged
     c_bands:  1 eigenvalues not converged
     c_bands:  1 eigenvalues not converged
     c_bands:  1 eigenvalues not converged
     c_bands:  1 eigenvalues not converged
     c_bands:  1 eigenvalues not converged
     c_bands:  1 eigenvalues not converged
     c_bands:  1 eigenvalues not converged
     c_bands:  1 eigenvalues not converged
     c_bands:  1 eigenvalues not converged
     c_bands:  1 eigenvalues not converged
     c_bands:  1 eigenvalues not converged
     c_bands:  1 eigenvalues not converged
     c_bands:  1 eigenvalues not converged
     c_bands:  1 eigenvalues not converged
     c_bands:  1 eigenvalues not converged
     c_bands:  1 eigenvalues not converged
     c_bands:  1 eigenvalues not converged
     c_bands:  1 eigenvalues not converged
     c_bands:  1 eigenvalues not converged
     c_bands:  1 eigenvalues not converged
     c_bands:  1 eigenvalues not converged
     c_bands:  1 eigenvalues not converged
     c_bands:  1 eigenvalues not converged
     c_bands:  1 eigenvalues not converged
     c_bands:  1 eigenvalues not converged
     c_bands:  1 eigenvalues not converged
     c_bands:  1 eigenvalues not converged
     c_bands:  1 eigenvalues not converged
     c_bands:  1 eigenvalues not converged
     c_bands:  1 eigenvalues not converged
     c_bands:  1 eigenvalues not converged
     c_bands:  1 eigenvalues not converged
     c_bands:  1 eigenvalues not converged
     c_bands:  1 eigenvalues not converged
     c_bands:  1 eigenvalues not converged
     c_bands:  1 eigenvalues not converged
     c_bands:  1 eigenvalues not converged
     ethr =  1.00E-06,  avg # of iterations = 14.7

     total cpu time spent up to now is     1256.6 secs

     total energy              =    -466.75538645 Ry
     Harris-Foulkes estimate   =    -474.72073566 Ry
     estimated scf accuracy    <       3.89780678 Ry

     iteration #  2     ecut=    40.00 Ry     beta=0.60
     Davidson diagonalization with overlap
     ethr =  7.64E-03,  avg # of iterations =  5.4

     total cpu time spent up to now is     1308.5 secs

     total energy              =    -470.38089937 Ry
     Harris-Foulkes estimate   =    -475.39768465 Ry
     estimated scf accuracy    <      14.76565263 Ry

     iteration #  3     ecut=    40.00 Ry     beta=0.60
     Davidson diagonalization with overlap
     ethr =  7.64E-03,  avg # of iterations =  2.6

     total cpu time spent up to now is     1343.0 secs

     total energy              =    -470.67962855 Ry
     Harris-Foulkes estimate   =    -471.47094824 Ry
     estimated scf accuracy    <       4.77386960 Ry

     iteration #  4     ecut=    40.00 Ry     beta=0.60
     Davidson diagonalization with overlap
     ethr =  7.64E-03,  avg # of iterations =  1.5

     total cpu time spent up to now is     1370.6 secs

     total energy              =    -470.40749388 Ry
     Harris-Foulkes estimate   =    -470.97922800 Ry
     estimated scf accuracy    <       3.31953845 Ry

     iteration #  5     ecut=    40.00 Ry     beta=0.60
     Davidson diagonalization with overlap
     ethr =  6.51E-03,  avg # of iterations =  1.4

     total cpu time spent up to now is     1397.7 secs

     total energy              =    -470.34823001 Ry
     Harris-Foulkes estimate   =    -470.54575753 Ry
     estimated scf accuracy    <       1.92388522 Ry

     iteration #  6     ecut=    40.00 Ry     beta=0.60
     Davidson diagonalization with overlap
     ethr =  3.77E-03,  avg # of iterations =  1.9

     total cpu time spent up to now is     1426.4 secs

     total energy              =    -470.29414434 Ry
     Harris-Foulkes estimate   =    -470.42283490 Ry
     estimated scf accuracy    <       0.98607247 Ry

     iteration #  7     ecut=    40.00 Ry     beta=0.60
     Davidson diagonalization with overlap
     ethr =  1.93E-03,  avg # of iterations =  4.2

     total cpu time spent up to now is     1463.7 secs

     total energy              =    -470.41130037 Ry
     Harris-Foulkes estimate   =    -470.39879147 Ry
     estimated scf accuracy    <       0.07721174 Ry

     iteration #  8     ecut=    40.00 Ry     beta=0.60
     Davidson diagonalization with overlap
     ethr =  1.51E-04,  avg # of iterations =  5.1

     total cpu time spent up to now is     1508.9 secs

     total energy              =    -470.40514892 Ry
     Harris-Foulkes estimate   =    -470.45389484 Ry
     estimated scf accuracy    <       0.57431868 Ry

     iteration #  9     ecut=    40.00 Ry     beta=0.60
     Davidson diagonalization with overlap
     ethr =  1.51E-04,  avg # of iterations =  1.4

     total cpu time spent up to now is     1536.4 secs

     total energy              =    -470.39869031 Ry
     Harris-Foulkes estimate   =    -470.40862761 Ry
     estimated scf accuracy    <       0.35833320 Ry

     iteration # 10     ecut=    40.00 Ry     beta=0.60
     Davidson diagonalization with overlap
     ethr =  1.51E-04,  avg # of iterations =  2.1

     total cpu time spent up to now is     1564.9 secs

     total energy              =    -470.29633561 Ry
     Harris-Foulkes estimate   =    -470.40051922 Ry
     estimated scf accuracy    <       0.27638530 Ry

     iteration # 11     ecut=    40.00 Ry     beta=0.60
     Davidson diagonalization with overlap
     ethr =  1.51E-04,  avg # of iterations =  5.5

     total cpu time spent up to now is     1623.6 secs

     total energy              =    -470.34337822 Ry
     Harris-Foulkes estimate   =    -470.44038739 Ry
     estimated scf accuracy    <       1.34882880 Ry

     iteration # 12     ecut=    40.00 Ry     beta=0.60
     Davidson diagonalization with overlap
     ethr =  1.51E-04,  avg # of iterations =  4.6

     total cpu time spent up to now is     1661.6 secs

     total energy              =    -470.37345036 Ry
     Harris-Foulkes estimate   =    -470.37954503 Ry
     estimated scf accuracy    <       0.08739960 Ry

     iteration # 13     ecut=    40.00 Ry     beta=0.60
     Davidson diagonalization with overlap
     ethr =  1.51E-04,  avg # of iterations =  1.5

     total cpu time spent up to now is     1689.2 secs

     total energy              =    -470.37327586 Ry
     Harris-Foulkes estimate   =    -470.37495834 Ry
     estimated scf accuracy    <       0.02502749 Ry

     iteration # 14     ecut=    40.00 Ry     beta=0.60
     Davidson diagonalization with overlap
     ethr =  4.91E-05,  avg # of iterations =  3.7

     total cpu time spent up to now is     1722.0 secs

     total energy              =    -470.37428973 Ry
     Harris-Foulkes estimate   =    -470.37457541 Ry
     estimated scf accuracy    <       0.00205128 Ry

     iteration # 15     ecut=    40.00 Ry     beta=0.60
     Davidson diagonalization with overlap
     ethr =  4.02E-06,  avg # of iterations =  5.9

     total cpu time spent up to now is     1766.6 secs

     total energy              =    -470.37466750 Ry
     Harris-Foulkes estimate   =    -470.37464190 Ry
     estimated scf accuracy    <       0.00040170 Ry

     iteration # 16     ecut=    40.00 Ry     beta=0.60
     Davidson diagonalization with overlap
     ethr =  7.88E-07,  avg # of iterations =  1.5

     total cpu time spent up to now is     1794.1 secs

     total energy              =    -470.37471554 Ry
     Harris-Foulkes estimate   =    -470.37467956 Ry
     estimated scf accuracy    <       0.00082939 Ry

     iteration # 17     ecut=    40.00 Ry     beta=0.60
     Davidson diagonalization with overlap
     ethr =  7.88E-07,  avg # of iterations =  2.1

     total cpu time spent up to now is     1822.6 secs

     total energy              =    -470.37471657 Ry
     Harris-Foulkes estimate   =    -470.37473030 Ry
     estimated scf accuracy    <       0.00159438 Ry

     iteration # 18     ecut=    40.00 Ry     beta=0.60
     Davidson diagonalization with overlap
     ethr =  7.88E-07,  avg # of iterations =  1.0

     total cpu time spent up to now is     1849.3 secs

     total energy              =    -470.37453004 Ry
     Harris-Foulkes estimate   =    -470.37471858 Ry
     estimated scf accuracy    <       0.00145431 Ry

     iteration # 19     ecut=    40.00 Ry     beta=0.60
     Davidson diagonalization with overlap
     ethr =  7.88E-07,  avg # of iterations =  3.4

     total cpu time spent up to now is     1880.6 secs

     total energy              =    -470.37458102 Ry
     Harris-Foulkes estimate   =    -470.37459782 Ry
     estimated scf accuracy    <       0.00008217 Ry

     iteration # 20     ecut=    40.00 Ry     beta=0.60
     Davidson diagonalization with overlap
     ethr =  1.61E-07,  avg # of iterations =  4.1

     total cpu time spent up to now is     1919.4 secs

     total energy              =    -470.37459812 Ry
     Harris-Foulkes estimate   =    -470.37460163 Ry
     estimated scf accuracy    <       0.00007507 Ry

     iteration # 21     ecut=    40.00 Ry     beta=0.60
     Davidson diagonalization with overlap
     ethr =  1.47E-07,  avg # of iterations =  1.2

     total cpu time spent up to now is     1946.3 secs

     total energy              =    -470.37459537 Ry
     Harris-Foulkes estimate   =    -470.37460138 Ry
     estimated scf accuracy    <       0.00009736 Ry

     iteration # 22     ecut=    40.00 Ry     beta=0.60
     Davidson diagonalization with overlap
     ethr =  1.47E-07,  avg # of iterations =  1.0

     total cpu time spent up to now is     1973.2 secs

     total energy              =    -470.37459053 Ry
     Harris-Foulkes estimate   =    -470.37459666 Ry
     estimated scf accuracy    <       0.00004417 Ry

     iteration # 23     ecut=    40.00 Ry     beta=0.60
     Davidson diagonalization with overlap
     ethr =  8.66E-08,  avg # of iterations =  2.3

     total cpu time spent up to now is     2001.9 secs

     total energy              =    -470.37459301 Ry
     Harris-Foulkes estimate   =    -470.37459329 Ry
     estimated scf accuracy    <       0.00000147 Ry

     iteration # 24     ecut=    40.00 Ry     beta=0.60
     Davidson diagonalization with overlap
     ethr =  2.88E-09,  avg # of iterations =  4.8

     total cpu time spent up to now is     2045.8 secs

     total energy              =    -470.37459386 Ry
     Harris-Foulkes estimate   =    -470.37459410 Ry
     estimated scf accuracy    <       0.00000226 Ry

     iteration # 25     ecut=    40.00 Ry     beta=0.60
     Davidson diagonalization with overlap
     ethr =  2.88E-09,  avg # of iterations =  1.1

     total cpu time spent up to now is     2072.4 secs

     total energy              =    -470.37459384 Ry
     Harris-Foulkes estimate   =    -470.37459393 Ry
     estimated scf accuracy    <       0.00000071 Ry

     iteration # 26     ecut=    40.00 Ry     beta=0.60
     Davidson diagonalization with overlap
     ethr =  1.39E-09,  avg # of iterations =  3.0

     total cpu time spent up to now is     2104.9 secs

     total energy              =    -470.37459392 Ry
     Harris-Foulkes estimate   =    -470.37459392 Ry
     estimated scf accuracy    <       0.00000001 Ry

     iteration # 27     ecut=    40.00 Ry     beta=0.60
     Davidson diagonalization with overlap
     ethr =  2.57E-11,  avg # of iterations =  4.0

     total cpu time spent up to now is     2142.9 secs

     total energy              =    -470.37459392 Ry
     Harris-Foulkes estimate   =    -470.37459392 Ry
     estimated scf accuracy    <          9.0E-09 Ry

     iteration # 28     ecut=    40.00 Ry     beta=0.60
     Davidson diagonalization with overlap
     ethr =  1.77E-11,  avg # of iterations =  2.3

     total cpu time spent up to now is     2171.9 secs

     total energy              =    -470.37459392 Ry
     Harris-Foulkes estimate   =    -470.37459392 Ry
     estimated scf accuracy    <          2.3E-10 Ry

     iteration # 29     ecut=    40.00 Ry     beta=0.60
     Davidson diagonalization with overlap
     ethr =  4.49E-13,  avg # of iterations =  4.8

     total cpu time spent up to now is     2217.0 secs

     total energy              =    -470.37459392 Ry
     Harris-Foulkes estimate   =    -470.37459392 Ry
     estimated scf accuracy    <          1.9E-09 Ry

     iteration # 30     ecut=    40.00 Ry     beta=0.60
     Davidson diagonalization with overlap
     ethr =  4.49E-13,  avg # of iterations =  3.8

     total cpu time spent up to now is     2255.4 secs

     End of self-consistent calculation

     Number of k-points >= 100: set verbosity='high' to print the bands.

     the Fermi energy is    16.1568 ev

!    total energy              =    -470.37459392 Ry
     Harris-Foulkes estimate   =    -470.37459392 Ry
     estimated scf accuracy    <          7.6E-11 Ry

     The total energy is the sum of the following terms:

     one-electron contribution =     -98.85955192 Ry
     hartree contribution      =      71.96875355 Ry
     xc contribution           =     -69.64184783 Ry
     ewald contribution        =    -373.84060030 Ry
     smearing contrib. (-TS)   =      -0.00134743 Ry

     convergence has been achieved in  30 iterations

     Forces acting on atoms (Ry/au):

     atom    1 type  2   force =    -0.00145637   -0.00084083    0.00000000
     atom    2 type  1   force =     0.00320553    0.00185071    0.00000000
     atom    3 type  1   force =     0.00197021    0.00113750    0.00000000
     atom    4 type  1   force =    -0.00371938   -0.00214738    0.00000000

     Total force =     0.006336     Total SCF correction =     0.000023


     entering subroutine stress ...

          total   stress  (Ry/bohr**3)                   (kbar)     P=  -44.15
  -0.00042004   0.00002027   0.00000000        -61.79      2.98      0.00
   0.00002027  -0.00044344   0.00000000          2.98    -65.23      0.00
   0.00000000   0.00000000  -0.00003690          0.00      0.00     -5.43


     number of scf cycles    =   2
     number of bfgs steps    =   1

     enthalpy old            =    -470.3561758404 Ry
     enthalpy new            =    -470.3745939185 Ry

     CASE: enthalpy_new < enthalpy_old

     new trust radius        =       0.0887134712 bohr
     new conv_thr            =            1.0E-10 Ry

     new unit-cell volume =    487.42515 a.u.^3 (    72.22895 Ang^3 )

CELL_PARAMETERS (alat=  1.88972599)
   1.457448214  -2.524374546   0.000000000
   0.000000000   0.000000000  -4.893391256
   4.385397402   2.531910559   0.000000000

ATOMIC_POSITIONS (angstrom)
Ti       2.919176071   0.002470852  -4.893391256
Nb       2.922681649  -1.678423249  -2.446695628
Nb       5.845657364   0.009159376  -4.893391256
Nb       4.379225551   0.845429192  -2.446695628


     NEW-OLD atomic charge density approx. for the potential

     Check: negative/imaginary core charge=   -0.000001    0.000000
     extrapolated charge   48.90695, renormalised to   51.00000

     total cpu time spent up to now is     2272.5 secs

     per-process dynamical memory:   190.0 Mb

     Self-consistent Calculation

     iteration #  1     ecut=    40.00 Ry     beta=0.60
     Davidson diagonalization with overlap
     c_bands:  1 eigenvalues not converged
     c_bands:  1 eigenvalues not converged
     c_bands:  1 eigenvalues not converged
     c_bands:  1 eigenvalues not converged
     c_bands:  1 eigenvalues not converged
     c_bands:  1 eigenvalues not converged
     c_bands:  1 eigenvalues not converged
     c_bands:  1 eigenvalues not converged
     c_bands:  1 eigenvalues not converged
     c_bands:  1 eigenvalues not converged
     c_bands:  1 eigenvalues not converged
     c_bands:  1 eigenvalues not converged
     c_bands:  1 eigenvalues not converged
     c_bands:  1 eigenvalues not converged
     c_bands:  1 eigenvalues not converged
     c_bands:  1 eigenvalues not converged
     c_bands:  1 eigenvalues not converged
     c_bands:  1 eigenvalues not converged
     c_bands:  1 eigenvalues not converged
     c_bands:  1 eigenvalues not converged
     c_bands:  1 eigenvalues not converged
     c_bands:  1 eigenvalues not converged
     c_bands:  1 eigenvalues not converged
     c_bands:  1 eigenvalues not converged
     c_bands:  1 eigenvalues not converged
     c_bands:  1 eigenvalues not converged
     c_bands:  1 eigenvalues not converged
     c_bands:  1 eigenvalues not converged
     ethr =  1.00E-06,  avg # of iterations = 12.7

     total cpu time spent up to now is     2385.8 secs

     total energy              =    -469.39472854 Ry
     Harris-Foulkes estimate   =    -473.10876354 Ry
     estimated scf accuracy    <       1.00144545 Ry

     iteration #  2     ecut=    40.00 Ry     beta=0.60
     Davidson diagonalization with overlap
     ethr =  1.96E-03,  avg # of iterations =  6.0

     total cpu time spent up to now is     2444.8 secs

     total energy              =    -470.22588590 Ry
     Harris-Foulkes estimate   =    -472.04557908 Ry
     estimated scf accuracy    <       6.45055085 Ry

     iteration #  3     ecut=    40.00 Ry     beta=0.60
     Davidson diagonalization with overlap
     ethr =  1.96E-03,  avg # of iterations =  4.3

     total cpu time spent up to now is     2488.2 secs

     total energy              =    -470.40107302 Ry
     Harris-Foulkes estimate   =    -470.65465931 Ry
     estimated scf accuracy    <       1.46497300 Ry

     iteration #  4     ecut=    40.00 Ry     beta=0.60
     Davidson diagonalization with overlap
     ethr =  1.96E-03,  avg # of iterations =  2.4

     total cpu time spent up to now is     2518.5 secs

     total energy              =    -470.36445970 Ry
     Harris-Foulkes estimate   =    -470.51042274 Ry
     estimated scf accuracy    <       1.03830068 Ry

     iteration #  5     ecut=    40.00 Ry     beta=0.60
     Davidson diagonalization with overlap
     ethr =  1.96E-03,  avg # of iterations =  1.6

     total cpu time spent up to now is     2546.5 secs

     total energy              =    -470.37937389 Ry
     Harris-Foulkes estimate   =    -470.41223844 Ry
     estimated scf accuracy    <       0.38874465 Ry

     iteration #  6     ecut=    40.00 Ry     beta=0.60
     Davidson diagonalization with overlap
     ethr =  7.62E-04,  avg # of iterations =  2.2

     total cpu time spent up to now is     2575.5 secs

     total energy              =    -470.37936053 Ry
     Harris-Foulkes estimate   =    -470.39453101 Ry
     estimated scf accuracy    <       0.17360787 Ry

     iteration #  7     ecut=    40.00 Ry     beta=0.60
     Davidson diagonalization with overlap
     ethr =  3.40E-04,  avg # of iterations =  3.2

     total cpu time spent up to now is     2606.2 secs

     total energy              =    -470.38136868 Ry
     Harris-Foulkes estimate   =    -470.38597218 Ry
     estimated scf accuracy    <       0.07397237 Ry

     iteration #  8     ecut=    40.00 Ry     beta=0.60
     Davidson diagonalization with overlap
     ethr =  1.45E-04,  avg # of iterations =  3.3

     total cpu time spent up to now is     2637.3 secs

     total energy              =    -470.37621243 Ry
     Harris-Foulkes estimate   =    -470.38383036 Ry
     estimated scf accuracy    <       0.04969673 Ry

     iteration #  9     ecut=    40.00 Ry     beta=0.60
     Davidson diagonalization with overlap
     ethr =  9.74E-05,  avg # of iterations =  3.8

     total cpu time spent up to now is     2670.3 secs

     total energy              =    -470.37962960 Ry
     Harris-Foulkes estimate   =    -470.37931620 Ry
     estimated scf accuracy    <       0.00414073 Ry

     iteration # 10     ecut=    40.00 Ry     beta=0.60
     Davidson diagonalization with overlap
     ethr =  8.12E-06,  avg # of iterations =  5.7

     total cpu time spent up to now is     2712.8 secs

     total energy              =    -470.37799168 Ry
     Harris-Foulkes estimate   =    -470.38033546 Ry
     estimated scf accuracy    <       0.01062135 Ry

     iteration # 11     ecut=    40.00 Ry     beta=0.60
     Davidson diagonalization with overlap
     ethr =  8.12E-06,  avg # of iterations =  4.6

     total cpu time spent up to now is     2752.8 secs

     total energy              =    -470.37905219 Ry
     Harris-Foulkes estimate   =    -470.37907148 Ry
     estimated scf accuracy    <       0.00013151 Ry

     iteration # 12     ecut=    40.00 Ry     beta=0.60
     Davidson diagonalization with overlap
     ethr =  2.58E-07,  avg # of iterations =  4.1

     total cpu time spent up to now is     2789.1 secs

     total energy              =    -470.37907202 Ry
     Harris-Foulkes estimate   =    -470.37907373 Ry
     estimated scf accuracy    <       0.00001065 Ry

     iteration # 13     ecut=    40.00 Ry     beta=0.60
     Davidson diagonalization with overlap
     ethr =  2.09E-08,  avg # of iterations =  3.8

     total cpu time spent up to now is     2825.7 secs

     total energy              =    -470.37907402 Ry
     Harris-Foulkes estimate   =    -470.37907414 Ry
     estimated scf accuracy    <       0.00000071 Ry

     iteration # 14     ecut=    40.00 Ry     beta=0.60
     Davidson diagonalization with overlap
     ethr =  1.38E-09,  avg # of iterations =  3.2

     total cpu time spent up to now is     2860.0 secs

     total energy              =    -470.37907410 Ry
     Harris-Foulkes estimate   =    -470.37907414 Ry
     estimated scf accuracy    <       0.00000020 Ry

     iteration # 15     ecut=    40.00 Ry     beta=0.60
     Davidson diagonalization with overlap
     ethr =  3.85E-10,  avg # of iterations =  2.9

     total cpu time spent up to now is     2893.1 secs

     total energy              =    -470.37907412 Ry
     Harris-Foulkes estimate   =    -470.37907413 Ry
     estimated scf accuracy    <       0.00000005 Ry

     iteration # 16     ecut=    40.00 Ry     beta=0.60
     Davidson diagonalization with overlap
     ethr =  1.01E-10,  avg # of iterations =  2.9

     total cpu time spent up to now is     2924.5 secs

     total energy              =    -470.37907412 Ry
     Harris-Foulkes estimate   =    -470.37907413 Ry
     estimated scf accuracy    <       0.00000001 Ry

     iteration # 17     ecut=    40.00 Ry     beta=0.60
     Davidson diagonalization with overlap
     ethr =  2.78E-11,  avg # of iterations =  3.2

     total cpu time spent up to now is     2958.1 secs

     total energy              =    -470.37907413 Ry
     Harris-Foulkes estimate   =    -470.37907413 Ry
     estimated scf accuracy    <          8.8E-09 Ry

     iteration # 18     ecut=    40.00 Ry     beta=0.60
     Davidson diagonalization with overlap
     ethr =  1.73E-11,  avg # of iterations =  1.4

     total cpu time spent up to now is     2985.5 secs

     total energy              =    -470.37907413 Ry
     Harris-Foulkes estimate   =    -470.37907413 Ry
     estimated scf accuracy    <          5.1E-10 Ry

     iteration # 19     ecut=    40.00 Ry     beta=0.60
     Davidson diagonalization with overlap
     ethr =  9.93E-13,  avg # of iterations =  4.2

     total cpu time spent up to now is     3025.4 secs

     total energy              =    -470.37907413 Ry
     Harris-Foulkes estimate   =    -470.37907413 Ry
     estimated scf accuracy    <          1.9E-10 Ry

     iteration # 20     ecut=    40.00 Ry     beta=0.60
     Davidson diagonalization with overlap
     ethr =  3.68E-13,  avg # of iterations =  1.1

     total cpu time spent up to now is     3052.3 secs

     End of self-consistent calculation

     Number of k-points >= 100: set verbosity='high' to print the bands.

     the Fermi energy is    16.9321 ev

!    total energy              =    -470.37907413 Ry
     Harris-Foulkes estimate   =    -470.37907413 Ry
     estimated scf accuracy    <          4.5E-11 Ry

     The total energy is the sum of the following terms:

     one-electron contribution =     -91.54556597 Ry
     hartree contribution      =      69.93761728 Ry
     xc contribution           =     -69.81018495 Ry
     ewald contribution        =    -378.95996600 Ry
     smearing contrib. (-TS)   =      -0.00097450 Ry

     convergence has been achieved in  20 iterations

     Forces acting on atoms (Ry/au):

     atom    1 type  2   force =    -0.00060208   -0.00034761    0.00000000
     atom    2 type  1   force =     0.00330405    0.00190759    0.00000000
     atom    3 type  1   force =     0.00184064    0.00106270    0.00000000
     atom    4 type  1   force =    -0.00454261   -0.00262268    0.00000000

     Total force =     0.006861     Total SCF correction =     0.000007


     entering subroutine stress ...

          total   stress  (Ry/bohr**3)                   (kbar)     P=   14.64
  -0.00001190   0.00002784   0.00000000         -1.75      4.10      0.00
   0.00002784  -0.00004405   0.00000000          4.10     -6.48      0.00
   0.00000000   0.00000000   0.00035448          0.00      0.00     52.15


     number of scf cycles    =   3
     number of bfgs steps    =   2

     enthalpy old            =    -470.3745939185 Ry
     enthalpy new            =    -470.3790741262 Ry

     CASE: enthalpy_new < enthalpy_old

     new trust radius        =       0.0329109462 bohr
     new conv_thr            =            1.0E-10 Ry

     new unit-cell volume =    486.99194 a.u.^3 (    72.16476 Ang^3 )

CELL_PARAMETERS (alat=  1.88972599)
   1.450009769  -2.511490783   0.000000000
   0.000000000   0.000000000  -4.929863825
   4.371394668   2.523826078   0.000000000

ATOMIC_POSITIONS (angstrom)
Ti       2.907971339   0.004590974  -4.929863825
Nb       2.912543004  -1.667098437  -2.464931912
Nb       5.825370911   0.014625340  -4.929863825
Nb       4.361199411   0.843610981  -2.464931912


     NEW-OLD atomic charge density approx. for the potential

     Check: negative/imaginary core charge=   -0.000001    0.000000
     extrapolated charge   50.95553, renormalised to   51.00000

     total cpu time spent up to now is     3069.0 secs

     per-process dynamical memory:   190.0 Mb

     Self-consistent Calculation

     iteration #  1     ecut=    40.00 Ry     beta=0.60
     Davidson diagonalization with overlap
     ethr =  1.00E-06,  avg # of iterations =  5.1

     total cpu time spent up to now is     3138.9 secs

     total energy              =    -470.37993387 Ry
     Harris-Foulkes estimate   =    -470.43696810 Ry
     estimated scf accuracy    <       0.00067042 Ry

     iteration #  2     ecut=    40.00 Ry     beta=0.60
     Davidson diagonalization with overlap
     ethr =  1.31E-06,  avg # of iterations =  5.6

     total cpu time spent up to now is     3199.1 secs

     total energy              =    -470.37865859 Ry
     Harris-Foulkes estimate   =    -470.38260494 Ry
     estimated scf accuracy    <       0.03104066 Ry

     iteration #  3     ecut=    40.00 Ry     beta=0.60
     Davidson diagonalization with overlap
     ethr =  1.31E-06,  avg # of iterations =  5.1

     total cpu time spent up to now is     3251.4 secs

     total energy              =    -470.38041807 Ry
     Harris-Foulkes estimate   =    -470.38051063 Ry
     estimated scf accuracy    <       0.00024041 Ry

     iteration #  4     ecut=    40.00 Ry     beta=0.60
     Davidson diagonalization with overlap
     ethr =  4.71E-07,  avg # of iterations =  3.4

     total cpu time spent up to now is     3287.2 secs

     total energy              =    -470.38042512 Ry
     Harris-Foulkes estimate   =    -470.38051317 Ry
     estimated scf accuracy    <       0.00057123 Ry

     iteration #  5     ecut=    40.00 Ry     beta=0.60
     Davidson diagonalization with overlap
     ethr =  4.71E-07,  avg # of iterations =  2.9

     total cpu time spent up to now is     3318.9 secs

     total energy              =    -470.38045622 Ry
     Harris-Foulkes estimate   =    -470.38046385 Ry
     estimated scf accuracy    <       0.00003881 Ry

     iteration #  6     ecut=    40.00 Ry     beta=0.60
     Davidson diagonalization with overlap
     ethr =  7.61E-08,  avg # of iterations =  3.5

     total cpu time spent up to now is     3355.0 secs

     total energy              =    -470.38045595 Ry
     Harris-Foulkes estimate   =    -470.38046766 Ry
     estimated scf accuracy    <       0.00005468 Ry

     iteration #  7     ecut=    40.00 Ry     beta=0.60
     Davidson diagonalization with overlap
     ethr =  7.61E-08,  avg # of iterations =  3.0

     total cpu time spent up to now is     3388.3 secs

     total energy              =    -470.38046165 Ry
     Harris-Foulkes estimate   =    -470.38046223 Ry
     estimated scf accuracy    <       0.00000465 Ry

     iteration #  8     ecut=    40.00 Ry     beta=0.60
     Davidson diagonalization with overlap
     ethr =  9.11E-09,  avg # of iterations =  2.5

     total cpu time spent up to now is     3419.4 secs

     total energy              =    -470.38046181 Ry
     Harris-Foulkes estimate   =    -470.38046207 Ry
     estimated scf accuracy    <       0.00000150 Ry

     iteration #  9     ecut=    40.00 Ry     beta=0.60
     Davidson diagonalization with overlap
     ethr =  2.95E-09,  avg # of iterations =  3.0

     total cpu time spent up to now is     3450.7 secs

     total energy              =    -470.38046198 Ry
     Harris-Foulkes estimate   =    -470.38046198 Ry
     estimated scf accuracy    <       0.00000005 Ry

     iteration # 10     ecut=    40.00 Ry     beta=0.60
     Davidson diagonalization with overlap
     ethr =  1.07E-10,  avg # of iterations =  3.9

     total cpu time spent up to now is     3488.0 secs

     total energy              =    -470.38046199 Ry
     Harris-Foulkes estimate   =    -470.38046199 Ry
     estimated scf accuracy    <       0.00000003 Ry

     iteration # 11     ecut=    40.00 Ry     beta=0.60
     Davidson diagonalization with overlap
     ethr =  4.92E-11,  avg # of iterations =  1.8

     total cpu time spent up to now is     3515.7 secs

     total energy              =    -470.38046199 Ry
     Harris-Foulkes estimate   =    -470.38046199 Ry
     estimated scf accuracy    <          3.1E-09 Ry

     iteration # 12     ecut=    40.00 Ry     beta=0.60
     Davidson diagonalization with overlap
     ethr =  6.03E-12,  avg # of iterations =  3.9

     total cpu time spent up to now is     3553.6 secs

     total energy              =    -470.38046199 Ry
     Harris-Foulkes estimate   =    -470.38046199 Ry
     estimated scf accuracy    <          1.4E-09 Ry

     iteration # 13     ecut=    40.00 Ry     beta=0.60
     Davidson diagonalization with overlap
     ethr =  2.83E-12,  avg # of iterations =  1.4

     total cpu time spent up to now is     3580.6 secs

     End of self-consistent calculation

     Number of k-points >= 100: set verbosity='high' to print the bands.

     the Fermi energy is    16.9420 ev

!    total energy              =    -470.38046199 Ry
     Harris-Foulkes estimate   =    -470.38046199 Ry
     estimated scf accuracy    <          6.8E-11 Ry

     The total energy is the sum of the following terms:

     one-electron contribution =     -91.46348022 Ry
     hartree contribution      =      69.93381175 Ry
     xc contribution           =     -69.81631434 Ry
     ewald contribution        =    -379.03348475 Ry
     smearing contrib. (-TS)   =      -0.00099443 Ry

     convergence has been achieved in  13 iterations

     Forces acting on atoms (Ry/au):

     atom    1 type  2   force =    -0.00003161   -0.00001825    0.00000000
     atom    2 type  1   force =     0.00199130    0.00114968    0.00000000
     atom    3 type  1   force =     0.00193780    0.00111879    0.00000000
     atom    4 type  1   force =    -0.00389748   -0.00225021    0.00000000

     Total force =     0.005527     Total SCF correction =     0.000015


     entering subroutine stress ...

          total   stress  (Ry/bohr**3)                   (kbar)     P=   15.39
   0.00001079   0.00003080   0.00000000          1.59      4.53      0.00
   0.00003080  -0.00002477   0.00000000          4.53     -3.64      0.00
   0.00000000   0.00000000   0.00032784          0.00      0.00     48.23


     number of scf cycles    =   4
     number of bfgs steps    =   3

     enthalpy old            =    -470.3790741262 Ry
     enthalpy new            =    -470.3804619878 Ry

     CASE: enthalpy_new < enthalpy_old


     WARNING: bfgs curvature condition failed, Theta= 0.924
     new trust radius        =       0.0489794119 bohr
     new conv_thr            =            1.0E-10 Ry

     new unit-cell volume =    487.47247 a.u.^3 (    72.23597 Ang^3 )

CELL_PARAMETERS (alat=  1.88972599)
   1.440392603  -2.494833363   0.000000000
   0.000000000   0.000000000  -4.984572678
   4.356576777   2.515270965   0.000000000

ATOMIC_POSITIONS (angstrom)
Ti       2.895426631   0.008453230  -4.984572678
Nb       2.900113653  -1.652064622  -2.492286339
Nb       5.802772056   0.023787779  -4.984572678
Nb       4.340406433   0.842711108  -2.492286339


     NEW-OLD atomic charge density approx. for the potential

     Check: negative/imaginary core charge=   -0.000001    0.000000
     extrapolated charge   51.04928, renormalised to   51.00000

     total cpu time spent up to now is     3597.3 secs

     per-process dynamical memory:   190.0 Mb

     Self-consistent Calculation

     iteration #  1     ecut=    40.00 Ry     beta=0.60
     Davidson diagonalization with overlap
     ethr =  1.00E-06,  avg # of iterations =  6.3

     total cpu time spent up to now is     3670.1 secs

     total energy              =    -470.38182698 Ry
     Harris-Foulkes estimate   =    -470.31942493 Ry
     estimated scf accuracy    <       0.00048546 Ry

     iteration #  2     ecut=    40.00 Ry     beta=0.60
     Davidson diagonalization with overlap
     ethr =  9.52E-07,  avg # of iterations =  4.8

     total cpu time spent up to now is     3726.7 secs

     total energy              =    -470.38133177 Ry
     Harris-Foulkes estimate   =    -470.38290565 Ry
     estimated scf accuracy    <       0.00885267 Ry

     iteration #  3     ecut=    40.00 Ry     beta=0.60
     Davidson diagonalization with overlap
     ethr =  9.52E-07,  avg # of iterations =  4.7

     total cpu time spent up to now is     3772.7 secs

     total energy              =    -470.38207884 Ry
     Harris-Foulkes estimate   =    -470.38221756 Ry
     estimated scf accuracy    <       0.00065758 Ry

     iteration #  4     ecut=    40.00 Ry     beta=0.60
     Davidson diagonalization with overlap
     ethr =  9.52E-07,  avg # of iterations =  3.8

     total cpu time spent up to now is     3805.6 secs

     total energy              =    -470.38207709 Ry
     Harris-Foulkes estimate   =    -470.38219869 Ry
     estimated scf accuracy    <       0.00062576 Ry

     iteration #  5     ecut=    40.00 Ry     beta=0.60
     Davidson diagonalization with overlap
     ethr =  9.52E-07,  avg # of iterations =  2.8

     total cpu time spent up to now is     3836.9 secs

     total energy              =    -470.38213294 Ry
     Harris-Foulkes estimate   =    -470.38214921 Ry
     estimated scf accuracy    <       0.00007043 Ry

     iteration #  6     ecut=    40.00 Ry     beta=0.60
     Davidson diagonalization with overlap
     ethr =  1.38E-07,  avg # of iterations =  3.6

     total cpu time spent up to now is     3874.0 secs

     total energy              =    -470.38213560 Ry
     Harris-Foulkes estimate   =    -470.38215769 Ry
     estimated scf accuracy    <       0.00010692 Ry

     iteration #  7     ecut=    40.00 Ry     beta=0.60
     Davidson diagonalization with overlap
     ethr =  1.38E-07,  avg # of iterations =  2.8

     total cpu time spent up to now is     3906.3 secs

     total energy              =    -470.38214589 Ry
     Harris-Foulkes estimate   =    -470.38214689 Ry
     estimated scf accuracy    <       0.00000509 Ry

     iteration #  8     ecut=    40.00 Ry     beta=0.60
     Davidson diagonalization with overlap
     ethr =  9.99E-09,  avg # of iterations =  3.3

     total cpu time spent up to now is     3941.4 secs

     total energy              =    -470.38214669 Ry
     Harris-Foulkes estimate   =    -470.38214680 Ry
     estimated scf accuracy    <       0.00000053 Ry

     iteration #  9     ecut=    40.00 Ry     beta=0.60
     Davidson diagonalization with overlap
     ethr =  1.04E-09,  avg # of iterations =  3.4

     total cpu time spent up to now is     3976.2 secs

     total energy              =    -470.38214677 Ry
     Harris-Foulkes estimate   =    -470.38214679 Ry
     estimated scf accuracy    <       0.00000015 Ry

     iteration # 10     ecut=    40.00 Ry     beta=0.60
     Davidson diagonalization with overlap
     ethr =  2.86E-10,  avg # of iterations =  2.0

     total cpu time spent up to now is     4005.6 secs

     total energy              =    -470.38214678 Ry
     Harris-Foulkes estimate   =    -470.38214678 Ry
     estimated scf accuracy    <       0.00000005 Ry

     iteration # 11     ecut=    40.00 Ry     beta=0.60
     Davidson diagonalization with overlap
     ethr =  9.51E-11,  avg # of iterations =  2.6

     total cpu time spent up to now is     4035.9 secs

     total energy              =    -470.38214678 Ry
     Harris-Foulkes estimate   =    -470.38214678 Ry
     estimated scf accuracy    <          5.9E-09 Ry

     iteration # 12     ecut=    40.00 Ry     beta=0.60
     Davidson diagonalization with overlap
     ethr =  1.16E-11,  avg # of iterations =  3.9

     total cpu time spent up to now is     4073.3 secs

     total energy              =    -470.38214678 Ry
     Harris-Foulkes estimate   =    -470.38214678 Ry
     estimated scf accuracy    <          6.5E-10 Ry

     iteration # 13     ecut=    40.00 Ry     beta=0.60
     Davidson diagonalization with overlap
     ethr =  1.27E-12,  avg # of iterations =  2.2

     total cpu time spent up to now is     4103.4 secs

     End of self-consistent calculation

     Number of k-points >= 100: set verbosity='high' to print the bands.

     the Fermi energy is    16.9124 ev

!    total energy              =    -470.38214678 Ry
     Harris-Foulkes estimate   =    -470.38214678 Ry
     estimated scf accuracy    <          3.1E-11 Ry

     The total energy is the sum of the following terms:

     one-electron contribution =     -91.80839827 Ry
     hartree contribution      =      70.06937200 Ry
     xc contribution           =     -69.81712949 Ry
     ewald contribution        =    -378.82490496 Ry
     smearing contrib. (-TS)   =      -0.00108606 Ry

     convergence has been achieved in  13 iterations

     Forces acting on atoms (Ry/au):

     atom    1 type  2   force =     0.00088160    0.00050899    0.00000000
     atom    2 type  1   force =    -0.00012148   -0.00007014    0.00000000
     atom    3 type  1   force =     0.00207704    0.00119918    0.00000000
     atom    4 type  1   force =    -0.00283716   -0.00163804    0.00000000

     Total force =     0.004188     Total SCF correction =     0.000012


     entering subroutine stress ...

          total   stress  (Ry/bohr**3)                   (kbar)     P=   13.23
   0.00002501   0.00003196   0.00000000          3.68      4.70      0.00
   0.00003196  -0.00001189   0.00000000          4.70     -1.75      0.00
   0.00000000   0.00000000   0.00025663          0.00      0.00     37.75


     number of scf cycles    =   5
     number of bfgs steps    =   4

     enthalpy old            =    -470.3804619878 Ry
     enthalpy new            =    -470.3821467815 Ry

     CASE: enthalpy_new < enthalpy_old

     new trust radius        =       0.0726985878 bohr
     new conv_thr            =            1.0E-10 Ry

     new unit-cell volume =    489.04055 a.u.^3 (    72.46833 Ang^3 )

CELL_PARAMETERS (alat=  1.88972599)
   1.426848402  -2.471374121   0.000000000
   0.000000000   0.000000000  -5.066635958
   4.340616632   2.506056372   0.000000000

ATOMIC_POSITIONS (angstrom)
Ti       2.881038421   0.015785689  -5.066635958
Nb       2.882838738  -1.630759293  -2.533317979
Nb       5.776484511   0.039889649  -5.066635958
Nb       4.315164095   0.843776949  -2.533317979


     NEW-OLD atomic charge density approx. for the potential

     Check: negative/imaginary core charge=   -0.000001    0.000000
     extrapolated charge   51.16030, renormalised to   51.00000

     total cpu time spent up to now is     4120.1 secs

     per-process dynamical memory:   190.0 Mb

     Self-consistent Calculation

     iteration #  1     ecut=    40.00 Ry     beta=0.60
     Davidson diagonalization with overlap
     c_bands:  1 eigenvalues not converged
     c_bands:  1 eigenvalues not converged
     ethr =  1.00E-06,  avg # of iterations =  8.6

     total cpu time spent up to now is     4202.4 secs

     total energy              =    -470.38168223 Ry
     Harris-Foulkes estimate   =    -470.17761587 Ry
     estimated scf accuracy    <       0.00194169 Ry

     iteration #  2     ecut=    40.00 Ry     beta=0.60
     Davidson diagonalization with overlap
     ethr =  3.81E-06,  avg # of iterations =  5.5

     total cpu time spent up to now is     4266.7 secs

     total energy              =    -470.38108831 Ry
     Harris-Foulkes estimate   =    -470.38692558 Ry
     estimated scf accuracy    <       0.03405810 Ry

     iteration #  3     ecut=    40.00 Ry     beta=0.60
     Davidson diagonalization with overlap
     ethr =  3.81E-06,  avg # of iterations =  4.9

     total cpu time spent up to now is     4316.7 secs

     total energy              =    -470.38332981 Ry
     Harris-Foulkes estimate   =    -470.38423243 Ry
     estimated scf accuracy    <       0.00324966 Ry

     iteration #  4     ecut=    40.00 Ry     beta=0.60
     Davidson diagonalization with overlap
     ethr =  3.81E-06,  avg # of iterations =  4.3

     total cpu time spent up to now is     4355.3 secs

     total energy              =    -470.38362026 Ry
     Harris-Foulkes estimate   =    -470.38411880 Ry
     estimated scf accuracy    <       0.00485320 Ry

     iteration #  5     ecut=    40.00 Ry     beta=0.60
     Davidson diagonalization with overlap
     ethr =  3.81E-06,  avg # of iterations =  1.1

     total cpu time spent up to now is     4382.4 secs

     total energy              =    -470.38368919 Ry
     Harris-Foulkes estimate   =    -470.38378507 Ry
     estimated scf accuracy    <       0.00086102 Ry

     iteration #  6     ecut=    40.00 Ry     beta=0.60
     Davidson diagonalization with overlap
     ethr =  1.69E-06,  avg # of iterations =  3.1

     total cpu time spent up to now is     4415.3 secs

     total energy              =    -470.38364781 Ry
     Harris-Foulkes estimate   =    -470.38377729 Ry
     estimated scf accuracy    <       0.00055500 Ry

     iteration #  7     ecut=    40.00 Ry     beta=0.60
     Davidson diagonalization with overlap
     ethr =  1.09E-06,  avg # of iterations =  3.2

     total cpu time spent up to now is     4447.2 secs

     total energy              =    -470.38370550 Ry
     Harris-Foulkes estimate   =    -470.38371306 Ry
     estimated scf accuracy    <       0.00006690 Ry

     iteration #  8     ecut=    40.00 Ry     beta=0.60
     Davidson diagonalization with overlap
     ethr =  1.31E-07,  avg # of iterations =  3.5

     total cpu time spent up to now is     4482.2 secs

     total energy              =    -470.38371252 Ry
     Harris-Foulkes estimate   =    -470.38371545 Ry
     estimated scf accuracy    <       0.00003548 Ry

     iteration #  9     ecut=    40.00 Ry     beta=0.60
     Davidson diagonalization with overlap
     ethr =  6.96E-08,  avg # of iterations =  1.0

     total cpu time spent up to now is     4509.7 secs

     total energy              =    -470.38371154 Ry
     Harris-Foulkes estimate   =    -470.38371334 Ry
     estimated scf accuracy    <       0.00001109 Ry

     iteration # 10     ecut=    40.00 Ry     beta=0.60
     Davidson diagonalization with overlap
     ethr =  2.17E-08,  avg # of iterations =  3.0

     total cpu time spent up to now is     4542.4 secs

     total energy              =    -470.38371275 Ry
     Harris-Foulkes estimate   =    -470.38371302 Ry
     estimated scf accuracy    <       0.00000145 Ry

     iteration # 11     ecut=    40.00 Ry     beta=0.60
     Davidson diagonalization with overlap
     ethr =  2.84E-09,  avg # of iterations =  2.7

     total cpu time spent up to now is     4573.5 secs

     total energy              =    -470.38371291 Ry
     Harris-Foulkes estimate   =    -470.38371291 Ry
     estimated scf accuracy    <          9.1E-09 Ry

     iteration # 12     ecut=    40.00 Ry     beta=0.60
     Davidson diagonalization with overlap
     ethr =  1.78E-11,  avg # of iterations =  5.0

     total cpu time spent up to now is     4628.8 secs

     total energy              =    -470.38371292 Ry
     Harris-Foulkes estimate   =    -470.38371293 Ry
     estimated scf accuracy    <       0.00000006 Ry

     iteration # 13     ecut=    40.00 Ry     beta=0.60
     Davidson diagonalization with overlap
     ethr =  1.78E-11,  avg # of iterations =  4.0

     total cpu time spent up to now is     4668.3 secs

     End of self-consistent calculation

     Number of k-points >= 100: set verbosity='high' to print the bands.

     the Fermi energy is    16.8366 ev

!    total energy              =    -470.38371293 Ry
     Harris-Foulkes estimate   =    -470.38371293 Ry
     estimated scf accuracy    <          6.6E-11 Ry

     The total energy is the sum of the following terms:

     one-electron contribution =     -92.74560176 Ry
     hartree contribution      =      70.41438634 Ry
     xc contribution           =     -69.81386500 Ry
     ewald contribution        =    -378.23726476 Ry
     smearing contrib. (-TS)   =      -0.00136774 Ry

     convergence has been achieved in  13 iterations

     Forces acting on atoms (Ry/au):

     atom    1 type  2   force =     0.00236028    0.00136271    0.00000000
     atom    2 type  1   force =    -0.00345378   -0.00199404    0.00000000
     atom    3 type  1   force =     0.00221054    0.00127626    0.00000000
     atom    4 type  1   force =    -0.00111705   -0.00064493    0.00000000

     Total force =     0.005614     Total SCF correction =     0.000039


     entering subroutine stress ...

          total   stress  (Ry/bohr**3)                   (kbar)     P=    8.05
   0.00003936   0.00002945   0.00000000          5.79      4.33      0.00
   0.00002945   0.00000535   0.00000000          4.33      0.79      0.00
   0.00000000   0.00000000   0.00011946          0.00      0.00     17.57


     number of scf cycles    =   6
     number of bfgs steps    =   5

     enthalpy old            =    -470.3821467815 Ry
     enthalpy new            =    -470.3837129251 Ry

     CASE: enthalpy_new < enthalpy_old

     new trust radius        =       0.0554756946 bohr
     new conv_thr            =            1.0E-10 Ry

     new unit-cell volume =    491.60838 a.u.^3 (    72.84884 Ang^3 )

CELL_PARAMETERS (alat=  1.88972599)
   1.417528184  -2.455231031   0.000000000
   0.000000000   0.000000000  -5.130186612
   4.337689912   2.504366630   0.000000000

ATOMIC_POSITIONS (angstrom)
Ti       2.876819099   0.024111722  -5.130186612
Nb       2.870934976  -1.616107802  -2.565093306
Nb       5.767688309   0.056335279  -5.130186612
Nb       4.304318133   0.848277101  -2.565093306


     NEW-OLD atomic charge density approx. for the potential

     Check: negative/imaginary core charge=   -0.000001    0.000000
     extrapolated charge   51.26112, renormalised to   51.00000

     total cpu time spent up to now is     4685.1 secs

     per-process dynamical memory:   190.0 Mb

     Self-consistent Calculation

     iteration #  1     ecut=    40.00 Ry     beta=0.60
     Davidson diagonalization with overlap
     c_bands:  1 eigenvalues not converged
     c_bands:  1 eigenvalues not converged
     c_bands:  1 eigenvalues not converged
     c_bands:  1 eigenvalues not converged
     ethr =  1.00E-06,  avg # of iterations =  7.5

     total cpu time spent up to now is     4766.0 secs

     total energy              =    -470.37849061 Ry
     Harris-Foulkes estimate   =    -470.04398830 Ry
     estimated scf accuracy    <       0.00461256 Ry

     iteration #  2     ecut=    40.00 Ry     beta=0.60
     Davidson diagonalization with overlap
     c_bands:  1 eigenvalues not converged
     ethr =  9.04E-06,  avg # of iterations =  6.2

     total cpu time spent up to now is     4834.9 secs

     total energy              =    -470.37493869 Ry
     Harris-Foulkes estimate   =    -470.39576555 Ry
     estimated scf accuracy    <       0.16554276 Ry

     iteration #  3     ecut=    40.00 Ry     beta=0.60
     Davidson diagonalization with overlap
     ethr =  9.04E-06,  avg # of iterations =  5.2

     total cpu time spent up to now is     4889.5 secs

     total energy              =    -470.38320527 Ry
     Harris-Foulkes estimate   =    -470.38569722 Ry
     estimated scf accuracy    <       0.00854361 Ry

     iteration #  4     ecut=    40.00 Ry     beta=0.60
     Davidson diagonalization with overlap
     ethr =  9.04E-06,  avg # of iterations =  3.9

     total cpu time spent up to now is     4928.4 secs

     total energy              =    -470.38396535 Ry
     Harris-Foulkes estimate   =    -470.38519956 Ry
     estimated scf accuracy    <       0.01070762 Ry

     iteration #  5     ecut=    40.00 Ry     beta=0.60
     Davidson diagonalization with overlap
     ethr =  9.04E-06,  avg # of iterations =  1.8

     total cpu time spent up to now is     4958.1 secs

     total energy              =    -470.38426386 Ry
     Harris-Foulkes estimate   =    -470.38441161 Ry
     estimated scf accuracy    <       0.00240159 Ry

     iteration #  6     ecut=    40.00 Ry     beta=0.60
     Davidson diagonalization with overlap
     ethr =  4.71E-06,  avg # of iterations =  1.4

     total cpu time spent up to now is     4986.9 secs

     total energy              =    -470.38406803 Ry
     Harris-Foulkes estimate   =    -470.38433118 Ry
     estimated scf accuracy    <       0.00168503 Ry

     iteration #  7     ecut=    40.00 Ry     beta=0.60
     Davidson diagonalization with overlap
     ethr =  3.30E-06,  avg # of iterations =  1.9

     total cpu time spent up to now is     5016.3 secs

     total energy              =    -470.38406928 Ry
     Harris-Foulkes estimate   =    -470.38414548 Ry
     estimated scf accuracy    <       0.00040119 Ry

     iteration #  8     ecut=    40.00 Ry     beta=0.60
     Davidson diagonalization with overlap
     ethr =  7.87E-07,  avg # of iterations =  4.0

     total cpu time spent up to now is     5056.0 secs

     total energy              =    -470.38413694 Ry
     Harris-Foulkes estimate   =    -470.38413939 Ry
     estimated scf accuracy    <       0.00006611 Ry

     iteration #  9     ecut=    40.00 Ry     beta=0.60
     Davidson diagonalization with overlap
     ethr =  1.30E-07,  avg # of iterations =  1.7

     total cpu time spent up to now is     5085.3 secs

     total energy              =    -470.38413348 Ry
     Harris-Foulkes estimate   =    -470.38413843 Ry
     estimated scf accuracy    <       0.00004951 Ry

     iteration # 10     ecut=    40.00 Ry     beta=0.60
     Davidson diagonalization with overlap
     ethr =  9.71E-08,  avg # of iterations =  1.0

     total cpu time spent up to now is     5113.4 secs

     total energy              =    -470.38413169 Ry
     Harris-Foulkes estimate   =    -470.38413478 Ry
     estimated scf accuracy    <       0.00001463 Ry

     iteration # 11     ecut=    40.00 Ry     beta=0.60
     Davidson diagonalization with overlap
     ethr =  2.87E-08,  avg # of iterations =  3.3

     total cpu time spent up to now is     5150.1 secs

     total energy              =    -470.38413396 Ry
     Harris-Foulkes estimate   =    -470.38413425 Ry
     estimated scf accuracy    <       0.00000201 Ry

     iteration # 12     ecut=    40.00 Ry     beta=0.60
     Davidson diagonalization with overlap
     ethr =  3.93E-09,  avg # of iterations =  1.7

     total cpu time spent up to now is     5179.6 secs

     total energy              =    -470.38413403 Ry
     Harris-Foulkes estimate   =    -470.38413407 Ry
     estimated scf accuracy    <       0.00000022 Ry

     iteration # 13     ecut=    40.00 Ry     beta=0.60
     Davidson diagonalization with overlap
     ethr =  4.22E-10,  avg # of iterations =  3.6

     total cpu time spent up to now is     5218.5 secs

     total energy              =    -470.38413408 Ry
     Harris-Foulkes estimate   =    -470.38413408 Ry
     estimated scf accuracy    <       0.00000002 Ry

     iteration # 14     ecut=    40.00 Ry     beta=0.60
     Davidson diagonalization with overlap
     ethr =  3.27E-11,  avg # of iterations =  2.8

     total cpu time spent up to now is     5253.5 secs

     total energy              =    -470.38413408 Ry
     Harris-Foulkes estimate   =    -470.38413408 Ry
     estimated scf accuracy    <          2.8E-09 Ry

     iteration # 15     ecut=    40.00 Ry     beta=0.60
     Davidson diagonalization with overlap
     ethr =  5.49E-12,  avg # of iterations =  2.5

     total cpu time spent up to now is     5286.3 secs

     total energy              =    -470.38413408 Ry
     Harris-Foulkes estimate   =    -470.38413408 Ry
     estimated scf accuracy    <          3.0E-10 Ry

     iteration # 16     ecut=    40.00 Ry     beta=0.60
     Davidson diagonalization with overlap
     ethr =  5.87E-13,  avg # of iterations =  4.1

     total cpu time spent up to now is     5326.7 secs

     total energy              =    -470.38413408 Ry
     Harris-Foulkes estimate   =    -470.38413408 Ry
     estimated scf accuracy    <          2.2E-10 Ry

     iteration # 17     ecut=    40.00 Ry     beta=0.60
     Davidson diagonalization with overlap
     ethr =  4.29E-13,  avg # of iterations =  2.7

     total cpu time spent up to now is     5360.3 secs

     End of self-consistent calculation

     Number of k-points >= 100: set verbosity='high' to print the bands.

     the Fermi energy is    16.7263 ev

!    total energy              =    -470.38413408 Ry
     Harris-Foulkes estimate   =    -470.38413408 Ry
     estimated scf accuracy    <          4.7E-11 Ry

     The total energy is the sum of the following terms:

     one-electron contribution =     -94.02828282 Ry
     hartree contribution      =      70.85134914 Ry
     xc contribution           =     -69.80162824 Ry
     ewald contribution        =    -377.40394096 Ry
     smearing contrib. (-TS)   =      -0.00163120 Ry

     convergence has been achieved in  17 iterations

     Forces acting on atoms (Ry/au):

     atom    1 type  2   force =     0.00356606    0.00205886    0.00000000
     atom    2 type  1   force =    -0.00560343   -0.00323514    0.00000000
     atom    3 type  1   force =     0.00244089    0.00140925    0.00000000
     atom    4 type  1   force =    -0.00040352   -0.00023297    0.00000000

     Total force =     0.008184     Total SCF correction =     0.000008


     entering subroutine stress ...

          total   stress  (Ry/bohr**3)                   (kbar)     P=    0.42
   0.00002821   0.00002887   0.00000000          4.15      4.25      0.00
   0.00002887  -0.00000512   0.00000000          4.25     -0.75      0.00
   0.00000000   0.00000000  -0.00001447          0.00      0.00     -2.13


     number of scf cycles    =   7
     number of bfgs steps    =   6

     enthalpy old            =    -470.3837129251 Ry
     enthalpy new            =    -470.3841340804 Ry

     CASE: enthalpy_new < enthalpy_old

     new trust radius        =       0.0062901627 bohr
     new conv_thr            =            1.0E-10 Ry

     new unit-cell volume =    492.21792 a.u.^3 (    72.93917 Ang^3 )

CELL_PARAMETERS (alat=  1.88972599)
   1.416310193  -2.453121407   0.000000000
   0.000000000   0.000000000  -5.134105233
   4.343485389   2.507712650   0.000000000

ATOMIC_POSITIONS (angstrom)
Ti       2.881021258   0.027944255  -5.134105233
Nb       2.868772329  -1.614543574  -2.567052616
Nb       5.773742755   0.062643646  -5.134105233
Nb       4.308024805   0.851823566  -2.567052616


     NEW-OLD atomic charge density approx. for the potential

     Check: negative/imaginary core charge=   -0.000001    0.000000
     extrapolated charge   51.06191, renormalised to   51.00000

     total cpu time spent up to now is     5377.0 secs

     per-process dynamical memory:   190.0 Mb

     Self-consistent Calculation

     iteration #  1     ecut=    40.00 Ry     beta=0.60
     Davidson diagonalization with overlap
     ethr =  1.00E-06,  avg # of iterations =  4.0

     total cpu time spent up to now is     5435.4 secs

     total energy              =    -470.38382143 Ry
     Harris-Foulkes estimate   =    -470.30328490 Ry
     estimated scf accuracy    <       0.00036917 Ry

     iteration #  2     ecut=    40.00 Ry     beta=0.60
     Davidson diagonalization with overlap
     ethr =  7.24E-07,  avg # of iterations =  5.5

     total cpu time spent up to now is     5498.8 secs

     total energy              =    -470.38331371 Ry
     Harris-Foulkes estimate   =    -470.38539320 Ry
     estimated scf accuracy    <       0.01774497 Ry

     iteration #  3     ecut=    40.00 Ry     beta=0.60
     Davidson diagonalization with overlap
     ethr =  7.24E-07,  avg # of iterations =  4.8

     total cpu time spent up to now is     5548.5 secs

     total energy              =    -470.38420658 Ry
     Harris-Foulkes estimate   =    -470.38431837 Ry
     estimated scf accuracy    <       0.00032600 Ry

     iteration #  4     ecut=    40.00 Ry     beta=0.60
     Davidson diagonalization with overlap
     ethr =  6.39E-07,  avg # of iterations =  2.9

     total cpu time spent up to now is     5581.0 secs

     total energy              =    -470.38422593 Ry
     Harris-Foulkes estimate   =    -470.38428450 Ry
     estimated scf accuracy    <       0.00047227 Ry

     iteration #  5     ecut=    40.00 Ry     beta=0.60
     Davidson diagonalization with overlap
     ethr =  6.39E-07,  avg # of iterations =  1.3

     total cpu time spent up to now is     5608.0 secs

     total energy              =    -470.38424163 Ry
     Harris-Foulkes estimate   =    -470.38424911 Ry
     estimated scf accuracy    <       0.00012131 Ry

     iteration #  6     ecut=    40.00 Ry     beta=0.60
     Davidson diagonalization with overlap
     ethr =  2.38E-07,  avg # of iterations =  1.4

     total cpu time spent up to now is     5634.9 secs

     total energy              =    -470.38423433 Ry
     Harris-Foulkes estimate   =    -470.38424482 Ry
     estimated scf accuracy    <       0.00008497 Ry

     iteration #  7     ecut=    40.00 Ry     beta=0.60
     Davidson diagonalization with overlap
     ethr =  1.67E-07,  avg # of iterations =  1.2

     total cpu time spent up to now is     5661.5 secs

     total energy              =    -470.38422912 Ry
     Harris-Foulkes estimate   =    -470.38423685 Ry
     estimated scf accuracy    <       0.00003476 Ry

     iteration #  8     ecut=    40.00 Ry     beta=0.60
     Davidson diagonalization with overlap
     ethr =  6.82E-08,  avg # of iterations =  3.3

     total cpu time spent up to now is     5695.3 secs

     total energy              =    -470.38423398 Ry
     Harris-Foulkes estimate   =    -470.38423419 Ry
     estimated scf accuracy    <       0.00000331 Ry

     iteration #  9     ecut=    40.00 Ry     beta=0.60
     Davidson diagonalization with overlap
     ethr =  6.50E-09,  avg # of iterations =  2.6

     total cpu time spent up to now is     5726.1 secs

     total energy              =    -470.38423401 Ry
     Harris-Foulkes estimate   =    -470.38423420 Ry
     estimated scf accuracy    <       0.00000200 Ry

     iteration # 10     ecut=    40.00 Ry     beta=0.60
     Davidson diagonalization with overlap
     ethr =  3.93E-09,  avg # of iterations =  1.1

     total cpu time spent up to now is     5752.6 secs

     total energy              =    -470.38423393 Ry
     Harris-Foulkes estimate   =    -470.38423407 Ry
     estimated scf accuracy    <       0.00000065 Ry

     iteration # 11     ecut=    40.00 Ry     beta=0.60
     Davidson diagonalization with overlap
     ethr =  1.27E-09,  avg # of iterations =  3.4

     total cpu time spent up to now is     5787.5 secs

     total energy              =    -470.38423403 Ry
     Harris-Foulkes estimate   =    -470.38423405 Ry
     estimated scf accuracy    <       0.00000019 Ry

     iteration # 12     ecut=    40.00 Ry     beta=0.60
     Davidson diagonalization with overlap
     ethr =  3.74E-10,  avg # of iterations =  1.1

[...]
               a(3) = (   4.765858   2.751569   0.000000 )  

     reciprocal axes: (cart. coord. in units 2 pi/alat)
               b(1) = (  0.185188 -0.320755  0.000000 )  
               b(2) = (  0.000000  0.000000 -0.204746 )  
               b(3) = (  0.157369  0.090857  0.000000 )  


     PseudoPot. # 1 for Nb read from file:
     ./Nb.pbe-nsp-van.UPF
     MD5 check sum: 0a22fc7fb0ba19a08ca5db297a5d2854
     Pseudo is Ultrasoft + core correction, Zval = 13.0
     Generated by new atomic code, or converted to UPF format
     Using radial grid of  887 points,  6 beta functions with: 
                l(1) =   0
                l(2) =   0
                l(3) =   1
                l(4) =   1
                l(5) =   2
                l(6) =   2
     Q(r) pseudized with  6 coefficients,  rinner =    1.000   1.000   1.000
                                                       1.000   1.000

     PseudoPot. # 2 for Ti read from file:
     ./Ti.pbe-sp-van_ak.UPF
     MD5 check sum: f98fea3e8887528921fefa5636a534ca
     Pseudo is Ultrasoft, Zval = 12.0
     Generated by new atomic code, or converted to UPF format
     Using radial grid of  851 points,  6 beta functions with: 
                l(1) =   0
                l(2) =   0
                l(3) =   1
                l(4) =   1
                l(5) =   2
                l(6) =   2
     Q(r) pseudized with  8 coefficients,  rinner =    1.000   1.000   1.000
                                                       1.000   1.000

     atomic species   valence    mass     pseudopotential
        Nb            13.00    92.90638     Nb( 1.00)
        Ti            12.00    47.86700     Ti( 1.00)

      4 Sym. Ops. (no inversion) found



   Cartesian axes

     site n.     atom                  positions (alat units)
         1           Ti  tau(   1) = (   3.2018917   0.2897913  -4.8840972  )
         2           Nb  tau(   2) = (   2.8010537  -1.5004559  -2.4420486  )
         3           Nb  tau(   3) = (   6.2880156   0.5127440  -4.8840972  )
         4           Nb  tau(   4) = (   4.4679346   1.0207400  -2.4420486  )

     number of k points=   360  Marzari-Vanderbilt smearing, width (Ry)=  0.0200

     Number of k-points >= 100: set verbosity='high' to print them.

     Dense  grid:    65965 G-vectors     FFT dimensions: (  40,  60,  64)

     Smooth grid:    16745 G-vectors     FFT dimensions: (  24,  40,  45)

     Estimated max dynamical RAM per process >     101.76Mb

     Estimated total allocated dynamical RAM >     407.06Mb

     Check: negative/imaginary core charge=   -0.000001    0.000000

     Initial potential from superposition of free atoms

     starting charge   49.99176, renormalised to   51.00000
     Starting wfc are   49 randomized atomic wfcs

     total cpu time spent up to now is    24600.6 secs

     per-process dynamical memory:   181.4 Mb

     Self-consistent Calculation

     iteration #  1     ecut=    40.00 Ry     beta=0.60
     Davidson diagonalization with overlap
     ethr =  1.00E-06,  avg # of iterations = 10.4

     total cpu time spent up to now is    24699.3 secs

     total energy              =    -449.09304984 Ry
     Harris-Foulkes estimate   =    -472.57459613 Ry
     estimated scf accuracy    <      29.23504645 Ry

     iteration #  2     ecut=    40.00 Ry     beta=0.60
     Davidson diagonalization with overlap
     ethr =  1.00E-02,  avg # of iterations =  6.3

     total cpu time spent up to now is    24760.4 secs

     total energy              =    -453.51879174 Ry
     Harris-Foulkes estimate   =    -505.59071502 Ry
     estimated scf accuracy    <     169.46994247 Ry

     iteration #  3     ecut=    40.00 Ry     beta=0.60
     Davidson diagonalization with overlap
     ethr =  1.00E-02,  avg # of iterations =  5.1

     total cpu time spent up to now is    24814.1 secs

     total energy              =    -471.53972301 Ry
     Harris-Foulkes estimate   =    -472.95301046 Ry
     estimated scf accuracy    <      12.05648021 Ry

     iteration #  4     ecut=    40.00 Ry     beta=0.60
     Davidson diagonalization with overlap
     ethr =  1.00E-02,  avg # of iterations =  1.3

     total cpu time spent up to now is    24839.3 secs

     total energy              =    -471.41108795 Ry
     Harris-Foulkes estimate   =    -472.08469454 Ry
     estimated scf accuracy    <       6.62317634 Ry

     iteration #  5     ecut=    40.00 Ry     beta=0.60
     Davidson diagonalization with overlap
     ethr =  1.00E-02,  avg # of iterations =  1.0

     total cpu time spent up to now is    24864.1 secs

     total energy              =    -471.10862342 Ry
     Harris-Foulkes estimate   =    -471.48539669 Ry
     estimated scf accuracy    <       5.02863816 Ry

     iteration #  6     ecut=    40.00 Ry     beta=0.60
     Davidson diagonalization with overlap
     ethr =  9.86E-03,  avg # of iterations =  1.0

     total cpu time spent up to now is    24888.7 secs

     total energy              =    -470.37215402 Ry
     Harris-Foulkes estimate   =    -471.14226090 Ry
     estimated scf accuracy    <       4.07947015 Ry

     iteration #  7     ecut=    40.00 Ry     beta=0.60
     Davidson diagonalization with overlap
     ethr =  8.00E-03,  avg # of iterations =  1.9

     total cpu time spent up to now is    24914.8 secs

     total energy              =    -470.45627929 Ry
     Harris-Foulkes estimate   =    -470.49043826 Ry
     estimated scf accuracy    <       1.53888084 Ry

     iteration #  8     ecut=    40.00 Ry     beta=0.60
     Davidson diagonalization with overlap
     ethr =  3.02E-03,  avg # of iterations =  1.7

     total cpu time spent up to now is    24940.5 secs

     total energy              =    -469.77491183 Ry
     Harris-Foulkes estimate   =    -470.48327864 Ry
     estimated scf accuracy    <       1.32634865 Ry

     iteration #  9     ecut=    40.00 Ry     beta=0.60
     Davidson diagonalization with overlap
     ethr =  2.60E-03,  avg # of iterations =  4.3

     total cpu time spent up to now is    24987.1 secs

     total energy              =    -469.35823199 Ry
     Harris-Foulkes estimate   =    -472.33704672 Ry
     estimated scf accuracy    <      31.43304924 Ry

     iteration # 10     ecut=    40.00 Ry     beta=0.60
     Davidson diagonalization with overlap
     ethr =  2.60E-03,  avg # of iterations =  3.9

     total cpu time spent up to now is    25022.0 secs

     total energy              =    -470.33196269 Ry
     Harris-Foulkes estimate   =    -470.45421464 Ry
     estimated scf accuracy    <       0.86414961 Ry

     iteration # 11     ecut=    40.00 Ry     beta=0.60
     Davidson diagonalization with overlap
     ethr =  1.69E-03,  avg # of iterations =  2.1

     total cpu time spent up to now is    25048.3 secs

     total energy              =    -470.42578103 Ry
     Harris-Foulkes estimate   =    -470.40845983 Ry
     estimated scf accuracy    <       0.05033146 Ry

     iteration # 12     ecut=    40.00 Ry     beta=0.60
     Davidson diagonalization with overlap
     c_bands:  1 eigenvalues not converged
     ethr =  9.87E-05,  avg # of iterations =  6.5

     total cpu time spent up to now is    25099.7 secs

     total energy              =    -470.43140428 Ry
     Harris-Foulkes estimate   =    -470.45760081 Ry
     estimated scf accuracy    <       0.45811918 Ry

     iteration # 13     ecut=    40.00 Ry     beta=0.60
     Davidson diagonalization with overlap
     ethr =  9.87E-05,  avg # of iterations =  1.1

     total cpu time spent up to now is    25124.7 secs

     total energy              =    -470.41768545 Ry
     Harris-Foulkes estimate   =    -470.43290507 Ry
     estimated scf accuracy    <       0.33439376 Ry

     iteration # 14     ecut=    40.00 Ry     beta=0.60
     Davidson diagonalization with overlap
     ethr =  9.87E-05,  avg # of iterations =  2.7

     total cpu time spent up to now is    25153.2 secs

     total energy              =    -470.40519953 Ry
     Harris-Foulkes estimate   =    -470.42072997 Ry
     estimated scf accuracy    <       0.16783674 Ry

     iteration # 15     ecut=    40.00 Ry     beta=0.60
     Davidson diagonalization with overlap
     ethr =  9.87E-05,  avg # of iterations =  1.7

     total cpu time spent up to now is    25178.8 secs

     total energy              =    -470.40727927 Ry
     Harris-Foulkes estimate   =    -470.40848799 Ry
     estimated scf accuracy    <       0.04715286 Ry

     iteration # 16     ecut=    40.00 Ry     beta=0.60
     Davidson diagonalization with overlap
     ethr =  9.25E-05,  avg # of iterations =  1.6

     total cpu time spent up to now is    25204.4 secs

     total energy              =    -470.40627997 Ry
     Harris-Foulkes estimate   =    -470.40793725 Ry
     estimated scf accuracy    <       0.03463502 Ry

     iteration # 17     ecut=    40.00 Ry     beta=0.60
     Davidson diagonalization with overlap
     ethr =  6.79E-05,  avg # of iterations =  1.2

     total cpu time spent up to now is    25229.3 secs

     total energy              =    -470.40419831 Ry
     Harris-Foulkes estimate   =    -470.40669306 Ry
     estimated scf accuracy    <       0.02353293 Ry

     iteration # 18     ecut=    40.00 Ry     beta=0.60
     Davidson diagonalization with overlap
     ethr =  4.61E-05,  avg # of iterations =  5.5

     total cpu time spent up to now is    25264.9 secs

     total energy              =    -470.40362806 Ry
     Harris-Foulkes estimate   =    -470.40553578 Ry
     estimated scf accuracy    <       0.00481347 Ry

     iteration # 19     ecut=    40.00 Ry     beta=0.60
     Davidson diagonalization with overlap
     ethr =  9.44E-06,  avg # of iterations =  4.6

     total cpu time spent up to now is    25302.9 secs

     total energy              =    -470.40440410 Ry
     Harris-Foulkes estimate   =    -470.40451087 Ry
     estimated scf accuracy    <       0.00034095 Ry

     iteration # 20     ecut=    40.00 Ry     beta=0.60
     Davidson diagonalization with overlap
     ethr =  6.69E-07,  avg # of iterations =  4.2

     total cpu time spent up to now is    25342.0 secs

     total energy              =    -470.40440641 Ry
     Harris-Foulkes estimate   =    -470.40455225 Ry
     estimated scf accuracy    <       0.00084188 Ry

     iteration # 21     ecut=    40.00 Ry     beta=0.60
     Davidson diagonalization with overlap
     ethr =  6.69E-07,  avg # of iterations =  3.7

     total cpu time spent up to now is    25375.3 secs

     total energy              =    -470.40442475 Ry
     Harris-Foulkes estimate   =    -470.40450342 Ry
     estimated scf accuracy    <       0.00028128 Ry

     iteration # 22     ecut=    40.00 Ry     beta=0.60
     Davidson diagonalization with overlap
     ethr =  5.52E-07,  avg # of iterations =  3.4

     total cpu time spent up to now is    25407.1 secs

     total energy              =    -470.40446062 Ry
     Harris-Foulkes estimate   =    -470.40447905 Ry
     estimated scf accuracy    <       0.00018548 Ry

     iteration # 23     ecut=    40.00 Ry     beta=0.60
     Davidson diagonalization with overlap
     ethr =  3.64E-07,  avg # of iterations =  1.0

     total cpu time spent up to now is    25431.7 secs

     total energy              =    -470.40446515 Ry
     Harris-Foulkes estimate   =    -470.40446780 Ry
     estimated scf accuracy    <       0.00003291 Ry

     iteration # 24     ecut=    40.00 Ry     beta=0.60
     Davidson diagonalization with overlap
     ethr =  6.45E-08,  avg # of iterations =  2.8

     total cpu time spent up to now is    25460.3 secs

     total energy              =    -470.40446713 Ry
     Harris-Foulkes estimate   =    -470.40446732 Ry
     estimated scf accuracy    <       0.00000719 Ry

     iteration # 25     ecut=    40.00 Ry     beta=0.60
     Davidson diagonalization with overlap
     ethr =  1.41E-08,  avg # of iterations =  1.5

     total cpu time spent up to now is    25485.6 secs

     total energy              =    -470.40446687 Ry
     Harris-Foulkes estimate   =    -470.40446731 Ry
     estimated scf accuracy    <       0.00000588 Ry

     iteration # 26     ecut=    40.00 Ry     beta=0.60
     Davidson diagonalization with overlap
     ethr =  1.15E-08,  avg # of iterations =  1.1

     total cpu time spent up to now is    25510.2 secs

     total energy              =    -470.40446678 Ry
     Harris-Foulkes estimate   =    -470.40446701 Ry
     estimated scf accuracy    <       0.00000185 Ry

     iteration # 27     ecut=    40.00 Ry     beta=0.60
     Davidson diagonalization with overlap
     ethr =  3.63E-09,  avg # of iterations =  3.3

     total cpu time spent up to now is    25541.0 secs

     total energy              =    -470.40446698 Ry
     Harris-Foulkes estimate   =    -470.40446701 Ry
     estimated scf accuracy    <       0.00000017 Ry

     iteration # 28     ecut=    40.00 Ry     beta=0.60
     Davidson diagonalization with overlap
     ethr =  3.32E-10,  avg # of iterations =  2.6

     total cpu time spent up to now is    25569.7 secs

     total energy              =    -470.40446700 Ry
     Harris-Foulkes estimate   =    -470.40446700 Ry
     estimated scf accuracy    <          7.2E-09 Ry

     iteration # 29     ecut=    40.00 Ry     beta=0.60
     Davidson diagonalization with overlap
     ethr =  1.42E-11,  avg # of iterations =  4.1

     total cpu time spent up to now is    25606.6 secs

     total energy              =    -470.40446700 Ry
     Harris-Foulkes estimate   =    -470.40446700 Ry
     estimated scf accuracy    <       0.00000002 Ry

     iteration # 30     ecut=    40.00 Ry     beta=0.60
     Davidson diagonalization with overlap
     ethr =  1.42E-11,  avg # of iterations =  1.1

     total cpu time spent up to now is    25631.4 secs

     total energy              =    -470.40446700 Ry
     Harris-Foulkes estimate   =    -470.40446700 Ry
     estimated scf accuracy    <          5.3E-09 Ry

     iteration # 31     ecut=    40.00 Ry     beta=0.60
     Davidson diagonalization with overlap
     ethr =  1.05E-11,  avg # of iterations =  2.7

     total cpu time spent up to now is    25659.1 secs

     total energy              =    -470.40446700 Ry
     Harris-Foulkes estimate   =    -470.40446700 Ry
     estimated scf accuracy    <          3.6E-10 Ry

     iteration # 32     ecut=    40.00 Ry     beta=0.60
     Davidson diagonalization with overlap
     ethr =  7.05E-13,  avg # of iterations =  3.9

     total cpu time spent up to now is    25692.5 secs

     total energy              =    -470.40446700 Ry
     Harris-Foulkes estimate   =    -470.40446700 Ry
     estimated scf accuracy    <          2.2E-11 Ry

     iteration # 33     ecut=    40.00 Ry     beta=0.60
     Davidson diagonalization with overlap
     ethr =  1.00E-13,  avg # of iterations =  3.2

     total cpu time spent up to now is    25724.1 secs

     total energy              =    -470.40446700 Ry
     Harris-Foulkes estimate   =    -470.40446700 Ry
     estimated scf accuracy    <          2.9E-11 Ry

     iteration # 34     ecut=    40.00 Ry     beta=0.60
     Davidson diagonalization with overlap
     ethr =  1.00E-13,  avg # of iterations =  1.0

     total cpu time spent up to now is    25748.6 secs

     total energy              =    -470.40446700 Ry
     Harris-Foulkes estimate   =    -470.40446700 Ry
     estimated scf accuracy    <          5.5E-12 Ry

     iteration # 35     ecut=    40.00 Ry     beta=0.60
     Davidson diagonalization with overlap
     ethr =  1.00E-13,  avg # of iterations =  1.0

     total cpu time spent up to now is    25773.1 secs

     total energy              =    -470.40446700 Ry
     Harris-Foulkes estimate   =    -470.40446700 Ry
     estimated scf accuracy    <          1.0E-12 Ry

     iteration # 36     ecut=    40.00 Ry     beta=0.60
     Davidson diagonalization with overlap
     ethr =  1.00E-13,  avg # of iterations =  1.0

     total cpu time spent up to now is    25797.6 secs

     End of self-consistent calculation

     Number of k-points >= 100: set verbosity='high' to print the bands.

     the Fermi energy is    16.6941 ev

!    total energy              =    -470.40446700 Ry
     Harris-Foulkes estimate   =    -470.40446700 Ry
     estimated scf accuracy    <          1.0E-13 Ry

     The total energy is the sum of the following terms:

     one-electron contribution =     -93.50683206 Ry
     hartree contribution      =      70.66390606 Ry
     xc contribution           =     -69.81708155 Ry
     ewald contribution        =    -377.74352885 Ry
     smearing contrib. (-TS)   =      -0.00093061 Ry

     convergence has been achieved in  36 iterations

     Forces acting on atoms (Ry/au):

     atom    1 type  2   force =     0.00004026    0.00002324    0.00000000
     atom    2 type  1   force =    -0.00000996   -0.00000575    0.00000000
     atom    3 type  1   force =    -0.00001158   -0.00000669    0.00000000
     atom    4 type  1   force =    -0.00001872   -0.00001081    0.00000000

     Total force =     0.000054     Total SCF correction =     0.000000


     entering subroutine stress ...

          total   stress  (Ry/bohr**3)                   (kbar)     P=   -0.63
  -0.00000065   0.00000711   0.00000000         -0.10      1.05      0.00
   0.00000711  -0.00000886   0.00000000          1.05     -1.30      0.00
   0.00000000   0.00000000  -0.00000338          0.00      0.00     -0.50


     init_run     :     33.01s CPU     34.13s WALL (       2 calls)
     electrons    :  24377.20s CPU  25094.79s WALL (      41 calls)
     update_pot   :     71.45s CPU     71.90s WALL (      39 calls)
     forces       :    215.71s CPU    219.89s WALL (      41 calls)
     stress       :    372.48s CPU    379.70s WALL (      41 calls)

     Called by init_run:
     wfcinit      :     29.75s CPU     30.63s WALL (       2 calls)
     potinit      :      0.90s CPU      0.90s WALL (       2 calls)

     Called by electrons:
     c_bands      :  21046.17s CPU  21610.81s WALL (     666 calls)
     sum_band     :   3179.89s CPU   3310.05s WALL (     666 calls)
     v_of_rho     :     26.93s CPU     27.61s WALL (     699 calls)
     newd         :    126.26s CPU    149.44s WALL (     699 calls)
     mix_rho      :      3.80s CPU      3.91s WALL (     666 calls)

     Called by c_bands:
     init_us_2    :    294.22s CPU    301.11s WALL (  509760 calls)
     cegterg      :  20380.10s CPU  20931.72s WALL (  239760 calls)

     Called by sum_band:
     sum_band:bec :     19.41s CPU     20.01s WALL (  239760 calls)
     addusdens    :    125.52s CPU    154.95s WALL (     666 calls)

     Called by *egterg:
     h_psi        :  11367.87s CPU  11805.11s WALL ( 1008456 calls)
     s_psi        :   1333.00s CPU   1348.61s WALL ( 1008456 calls)
     g_psi        :     51.35s CPU     51.73s WALL (  767976 calls)
     cdiaghg      :   2596.25s CPU   2621.73s WALL (  990816 calls)

     Called by h_psi:
     h_psi:pot    :  11235.58s CPU  11670.24s WALL ( 1008456 calls)
     h_psi:calbec :   1730.24s CPU   1800.27s WALL ( 1008456 calls)
     vloc_psi     :   8197.11s CPU   8539.31s WALL ( 1008456 calls)
     add_vuspsi   :   1302.74s CPU   1326.09s WALL ( 1008456 calls)

     General routines
     calbec       :   2495.42s CPU   2590.89s WALL ( 1322016 calls)
     fft          :     15.48s CPU     16.05s WALL (   12116 calls)
     ffts         :      0.56s CPU      0.58s WALL (    1365 calls)
     fftw         :   8861.23s CPU   9224.49s WALL (46029152 calls)
     interpolate  :      3.22s CPU      3.32s WALL (    1365 calls)

     Parallel routines
     fft_scatter  :   1442.74s CPU   1510.06s WALL (46042633 calls)

     PWSCF        :     6h57m CPU        7h10m WALL


   This run was terminated on:   1:22:21  27Apr2018            

=------------------------------------------------------------------------------=
   JOB DONE.
=------------------------------------------------------------------------------=
