
     Program PWSCF v.6.0 (svn rev. 13079) starts on  2May2018 at 10:51:26 

     This program is part of the open-source Quantum ESPRESSO suite
     for quantum simulation of materials; please cite
         "P. Giannozzi et al., J. Phys.:Condens. Matter 21 395502 (2009);
          URL http://www.quantum-espresso.org", 
     in publications or presentations arising from this work. More details at
     http://www.quantum-espresso.org/quote

     Parallel version (MPI), running on     4 processors
     R & G space division:  proc/nbgrp/npool/nimage =       4
     Waiting for input...
     Reading input from standard input

     Current dimensions of program PWSCF are:
     Max number of different atomic species (ntypx) = 10
     Max number of k-points (npk) =  40000
     Max angular momentum in pseudopotentials (lmaxx) =  3

     Subspace diagonalization in iterative solution of the eigenvalue problem:
     a serial algorithm will be used


     Parallelization info
     --------------------
     sticks:   dense  smooth     PW     G-vecs:    dense   smooth      PW
     Min         933     371    112                34659     8740    1457
     Max         934     373    113                34662     8741    1460
     Sum        3735    1489    451               138645    34963    5837



     bravais-lattice index     =            0
     lattice parameter (alat)  =       1.8897  a.u.
     unit-cell volume          =     733.3418 (a.u.)^3
     number of atoms/cell      =            5
     number of atomic types    =            2
     number of electrons       =        62.00
     number of Kohn-Sham states=           37
     kinetic-energy cutoff     =      50.0000  Ry
     charge density cutoff     =     500.0000  Ry
     convergence threshold     =      1.0E-10
     mixing beta               =       0.6000
     number of iterations used =            8  plain     mixing
     Exchange-correlation      = SLA  PW   PBE  PBE ( 1  4  3  4 0 0)
     nstep                     =           50


     celldm(1)=   1.889726  celldm(2)=   0.000000  celldm(3)=   0.000000
     celldm(4)=   0.000000  celldm(5)=   0.000000  celldm(6)=   0.000000

     crystal axes: (cart. coord. in units of alat)
               a(1) = (  -1.758031   1.758031   5.274095 )  
               a(2) = (  -1.758031   5.274095   1.758031 )  
               a(3) = (  -5.274095   1.758031   1.758031 )  

     reciprocal axes: (cart. coord. in units 2 pi/alat)
               b(1) = (  0.056882 -0.056882  0.227527 )  
               b(2) = (  0.056882  0.227527 -0.056882 )  
               b(3) = ( -0.227527 -0.056882 -0.056882 )  


     PseudoPot. # 1 for Nb read from file:
     ./Nb.pbe-nsp-van.UPF
     MD5 check sum: 0a22fc7fb0ba19a08ca5db297a5d2854
     Pseudo is Ultrasoft + core correction, Zval = 13.0
     Generated by new atomic code, or converted to UPF format
     Using radial grid of  887 points,  6 beta functions with: 
                l(1) =   0
                l(2) =   0
                l(3) =   1
                l(4) =   1
                l(5) =   2
                l(6) =   2
     Q(r) pseudized with  6 coefficients,  rinner =    1.000   1.000   1.000
                                                       1.000   1.000

     PseudoPot. # 2 for Ti read from file:
     ./Ti.pbe-sp-van_ak.UPF
     MD5 check sum: f98fea3e8887528921fefa5636a534ca
     Pseudo is Ultrasoft, Zval = 12.0
     Generated by new atomic code, or converted to UPF format
     Using radial grid of  851 points,  6 beta functions with: 
                l(1) =   0
                l(2) =   0
                l(3) =   1
                l(4) =   1
                l(5) =   2
                l(6) =   2
     Q(r) pseudized with  8 coefficients,  rinner =    1.000   1.000   1.000
                                                       1.000   1.000

     atomic species   valence    mass     pseudopotential
        Nb            13.00    92.90638     Nb( 1.00)
        Ti            12.00    47.86700     Ti( 1.00)

     12 Sym. Ops., with inversion, found ( 6 have fractional translation)



   Cartesian axes

     site n.     atom                  positions (alat units)
         1           Ti  tau(   1) = (  -3.5160633   3.5160633   3.5160633  )
         2           Ti  tau(   2) = (  -5.2740949   5.2740949   5.2740949  )
         3           Ti  tau(   3) = (  -7.0321265   7.0321265   7.0321265  )
         4           Nb  tau(   4) = (  -8.7901582   8.7901582   8.7901582  )
         5           Nb  tau(   5) = (  -1.7580316   1.7580316   1.7580316  )

     number of k points=   189  Marzari-Vanderbilt smearing, width (Ry)=  0.0200

     Number of k-points >= 100: set verbosity='high' to print them.

     Dense  grid:   138645 G-vectors     FFT dimensions: (  80,  80,  80)

     Smooth grid:    34963 G-vectors     FFT dimensions: (  50,  50,  50)

     Estimated max dynamical RAM per process >     147.52Mb

     Estimated total allocated dynamical RAM >     590.08Mb

     Initial potential from superposition of free atoms

     starting charge   58.99440, renormalised to   62.00000
     Starting wfc are   56 randomized atomic wfcs

     total cpu time spent up to now is       33.1 secs

     per-process dynamical memory:   210.8 Mb

     Self-consistent Calculation

     iteration #  1     ecut=    50.00 Ry     beta=0.60
     Davidson diagonalization with overlap
     ethr =  1.00E-02,  avg # of iterations =  3.1

     total cpu time spent up to now is      107.6 secs

     total energy              =    -580.31620923 Ry
     Harris-Foulkes estimate   =    -587.38699992 Ry
     estimated scf accuracy    <       9.10188166 Ry

     iteration #  2     ecut=    50.00 Ry     beta=0.60
     Davidson diagonalization with overlap
     ethr =  1.00E-02,  avg # of iterations =  5.0

     total cpu time spent up to now is      218.1 secs

     total energy              =    -581.98993940 Ry
     Harris-Foulkes estimate   =    -596.57254186 Ry
     estimated scf accuracy    <      46.88632973 Ry

     iteration #  3     ecut=    50.00 Ry     beta=0.60
     Davidson diagonalization with overlap
     ethr =  1.00E-02,  avg # of iterations =  5.6

     total cpu time spent up to now is      306.2 secs

     total energy              =    -585.86246625 Ry
     Harris-Foulkes estimate   =    -586.49314497 Ry
     estimated scf accuracy    <       7.34063370 Ry

     iteration #  4     ecut=    50.00 Ry     beta=0.60
     Davidson diagonalization with overlap
     ethr =  1.00E-02,  avg # of iterations =  1.3

     total cpu time spent up to now is      359.3 secs

     total energy              =    -586.12611836 Ry
     Harris-Foulkes estimate   =    -586.00809490 Ry
     estimated scf accuracy    <       3.79417177 Ry

     iteration #  5     ecut=    50.00 Ry     beta=0.60
     Davidson diagonalization with overlap
     ethr =  6.12E-03,  avg # of iterations =  1.1

     total cpu time spent up to now is      412.1 secs

     total energy              =    -585.04722339 Ry
     Harris-Foulkes estimate   =    -586.14987838 Ry
     estimated scf accuracy    <       3.78620796 Ry

     iteration #  6     ecut=    50.00 Ry     beta=0.60
     Davidson diagonalization with overlap
     ethr =  6.11E-03,  avg # of iterations =  5.4

     total cpu time spent up to now is      498.5 secs

     total energy              =    -585.42897650 Ry
     Harris-Foulkes estimate   =    -586.02738730 Ry
     estimated scf accuracy    <       5.65186932 Ry

     iteration #  7     ecut=    50.00 Ry     beta=0.60
     Davidson diagonalization with overlap
     ethr =  6.11E-03,  avg # of iterations =  1.0

     total cpu time spent up to now is      551.2 secs

     total energy              =    -585.63002201 Ry
     Harris-Foulkes estimate   =    -585.63498672 Ry
     estimated scf accuracy    <       0.60503348 Ry

     iteration #  8     ecut=    50.00 Ry     beta=0.60
     Davidson diagonalization with overlap
     ethr =  9.76E-04,  avg # of iterations =  4.2

     total cpu time spent up to now is      621.5 secs

     total energy              =    -585.70573503 Ry
     Harris-Foulkes estimate   =    -585.70670867 Ry
     estimated scf accuracy    <       0.34639724 Ry

     iteration #  9     ecut=    50.00 Ry     beta=0.60
     Davidson diagonalization with overlap
     ethr =  5.59E-04,  avg # of iterations =  1.2

     total cpu time spent up to now is      675.1 secs

     total energy              =    -585.69251124 Ry
     Harris-Foulkes estimate   =    -585.71545608 Ry
     estimated scf accuracy    <       0.58971072 Ry

     iteration # 10     ecut=    50.00 Ry     beta=0.60
     Davidson diagonalization with overlap
     ethr =  5.59E-04,  avg # of iterations =  1.2

     total cpu time spent up to now is      728.2 secs

     total energy              =    -585.68792503 Ry
     Harris-Foulkes estimate   =    -585.69925937 Ry
     estimated scf accuracy    <       0.37506783 Ry

     iteration # 11     ecut=    50.00 Ry     beta=0.60
     Davidson diagonalization with overlap
     ethr =  5.59E-04,  avg # of iterations =  1.0

     total cpu time spent up to now is      780.8 secs

     total energy              =    -585.68685215 Ry
     Harris-Foulkes estimate   =    -585.69148863 Ry
     estimated scf accuracy    <       0.21366953 Ry

     iteration # 12     ecut=    50.00 Ry     beta=0.60
     Davidson diagonalization with overlap
     ethr =  3.45E-04,  avg # of iterations =  1.1

     total cpu time spent up to now is      833.6 secs

     total energy              =    -585.66835894 Ry
     Harris-Foulkes estimate   =    -585.68902549 Ry
     estimated scf accuracy    <       0.13189584 Ry

     iteration # 13     ecut=    50.00 Ry     beta=0.60
     Davidson diagonalization with overlap
     ethr =  2.13E-04,  avg # of iterations =  6.2

     total cpu time spent up to now is      908.2 secs

     total energy              =    -585.68821981 Ry
     Harris-Foulkes estimate   =    -585.69018226 Ry
     estimated scf accuracy    <       0.07387344 Ry

     iteration # 14     ecut=    50.00 Ry     beta=0.60
     Davidson diagonalization with overlap
     ethr =  1.19E-04,  avg # of iterations =  2.3

     total cpu time spent up to now is      964.1 secs

     total energy              =    -585.68953298 Ry
     Harris-Foulkes estimate   =    -585.68935762 Ry
     estimated scf accuracy    <       0.05319148 Ry

     iteration # 15     ecut=    50.00 Ry     beta=0.60
     Davidson diagonalization with overlap
     ethr =  8.58E-05,  avg # of iterations =  1.1

     total cpu time spent up to now is     1017.2 secs

     total energy              =    -585.68988589 Ry
     Harris-Foulkes estimate   =    -585.68988125 Ry
     estimated scf accuracy    <       0.05789057 Ry

     iteration # 16     ecut=    50.00 Ry     beta=0.60
     Davidson diagonalization with overlap
     ethr =  8.58E-05,  avg # of iterations =  1.0

     total cpu time spent up to now is     1070.0 secs

     total energy              =    -585.69088516 Ry
     Harris-Foulkes estimate   =    -585.69009789 Ry
     estimated scf accuracy    <       0.05914109 Ry

     iteration # 17     ecut=    50.00 Ry     beta=0.60
     Davidson diagonalization with overlap
     ethr =  8.58E-05,  avg # of iterations =  1.0

     total cpu time spent up to now is     1122.5 secs

     total energy              =    -585.69182797 Ry
     Harris-Foulkes estimate   =    -585.69112218 Ry
     estimated scf accuracy    <       0.07594625 Ry

     iteration # 18     ecut=    50.00 Ry     beta=0.60
     Davidson diagonalization with overlap
     ethr =  8.58E-05,  avg # of iterations =  1.0

     total cpu time spent up to now is     1175.1 secs

     total energy              =    -585.69178600 Ry
     Harris-Foulkes estimate   =    -585.69200342 Ry
     estimated scf accuracy    <       0.09008036 Ry

     iteration # 19     ecut=    50.00 Ry     beta=0.60
     Davidson diagonalization with overlap
     ethr =  8.58E-05,  avg # of iterations =  1.0

     total cpu time spent up to now is     1228.0 secs

     total energy              =    -585.69186677 Ry
     Harris-Foulkes estimate   =    -585.69188302 Ry
     estimated scf accuracy    <       0.08894182 Ry

     iteration # 20     ecut=    50.00 Ry     beta=0.60
     Davidson diagonalization with overlap
     ethr =  8.58E-05,  avg # of iterations =  1.0

     total cpu time spent up to now is     1281.0 secs

     total energy              =    -585.69045227 Ry
     Harris-Foulkes estimate   =    -585.69194021 Ry
     estimated scf accuracy    <       0.09014219 Ry

     iteration # 21     ecut=    50.00 Ry     beta=0.60
     Davidson diagonalization with overlap
     ethr =  8.58E-05,  avg # of iterations =  1.0

     total cpu time spent up to now is     1334.2 secs

     total energy              =    -585.66922936 Ry
     Harris-Foulkes estimate   =    -585.69059830 Ry
     estimated scf accuracy    <       0.06890772 Ry

     iteration # 22     ecut=    50.00 Ry     beta=0.60
     Davidson diagonalization with overlap
     ethr =  8.58E-05,  avg # of iterations =  5.8

     total cpu time spent up to now is     1430.4 secs

     total energy              =    -585.68650480 Ry
     Harris-Foulkes estimate   =    -585.72071178 Ry
     estimated scf accuracy    <       0.58874144 Ry

     iteration # 23     ecut=    50.00 Ry     beta=0.60
     Davidson diagonalization with overlap
     ethr =  8.58E-05,  avg # of iterations =  2.2

     total cpu time spent up to now is     1485.4 secs

     total energy              =    -585.67070428 Ry
     Harris-Foulkes estimate   =    -585.69327519 Ry
     estimated scf accuracy    <       0.21087758 Ry

     iteration # 24     ecut=    50.00 Ry     beta=0.60
     Davidson diagonalization with overlap
     ethr =  8.58E-05,  avg # of iterations =  4.7

     total cpu time spent up to now is     1568.8 secs

     total energy              =    -585.68699621 Ry
     Harris-Foulkes estimate   =    -585.68812917 Ry
     estimated scf accuracy    <       0.01607512 Ry

     iteration # 25     ecut=    50.00 Ry     beta=0.60
     Davidson diagonalization with overlap
     ethr =  2.59E-05,  avg # of iterations =  1.4

     total cpu time spent up to now is     1622.3 secs

     total energy              =    -585.68725811 Ry
     Harris-Foulkes estimate   =    -585.68742901 Ry
     estimated scf accuracy    <       0.00307297 Ry

     iteration # 26     ecut=    50.00 Ry     beta=0.60
     Davidson diagonalization with overlap
     c_bands:  1 eigenvalues not converged
     c_bands:  1 eigenvalues not converged
     c_bands:  1 eigenvalues not converged
     ethr =  4.96E-06,  avg # of iterations =  5.4

     total cpu time spent up to now is     1690.7 secs

     total energy              =    -585.68746099 Ry
     Harris-Foulkes estimate   =    -585.68750862 Ry
     estimated scf accuracy    <       0.00084842 Ry

     iteration # 27     ecut=    50.00 Ry     beta=0.60
     Davidson diagonalization with overlap
     ethr =  1.37E-06,  avg # of iterations =  5.4

     total cpu time spent up to now is     1762.1 secs

     total energy              =    -585.68746131 Ry
     Harris-Foulkes estimate   =    -585.68756684 Ry
     estimated scf accuracy    <       0.00121248 Ry

     iteration # 28     ecut=    50.00 Ry     beta=0.60
     Davidson diagonalization with overlap
     ethr =  1.37E-06,  avg # of iterations =  1.1

     total cpu time spent up to now is     1815.0 secs

     total energy              =    -585.68744623 Ry
     Harris-Foulkes estimate   =    -585.68748998 Ry
     estimated scf accuracy    <       0.00030385 Ry

     iteration # 29     ecut=    50.00 Ry     beta=0.60
     Davidson diagonalization with overlap
     ethr =  4.90E-07,  avg # of iterations =  4.2

     total cpu time spent up to now is     1888.6 secs

     total energy              =    -585.68750716 Ry
     Harris-Foulkes estimate   =    -585.68750456 Ry
     estimated scf accuracy    <       0.00011720 Ry

     iteration # 30     ecut=    50.00 Ry     beta=0.60
     Davidson diagonalization with overlap
     ethr =  1.89E-07,  avg # of iterations =  1.1

     total cpu time spent up to now is     1941.5 secs

     total energy              =    -585.68749126 Ry
     Harris-Foulkes estimate   =    -585.68750842 Ry
     estimated scf accuracy    <       0.00015524 Ry

     iteration # 31     ecut=    50.00 Ry     beta=0.60
     Davidson diagonalization with overlap
     ethr =  1.89E-07,  avg # of iterations =  1.0

     total cpu time spent up to now is     1994.1 secs

     total energy              =    -585.68749401 Ry
     Harris-Foulkes estimate   =    -585.68749633 Ry
     estimated scf accuracy    <       0.00003853 Ry

     iteration # 32     ecut=    50.00 Ry     beta=0.60
     Davidson diagonalization with overlap
     ethr =  6.21E-08,  avg # of iterations =  3.9

     total cpu time spent up to now is     2061.8 secs

     total energy              =    -585.68749771 Ry
     Harris-Foulkes estimate   =    -585.68749819 Ry
     estimated scf accuracy    <       0.00000310 Ry

     iteration # 33     ecut=    50.00 Ry     beta=0.60
     Davidson diagonalization with overlap
     ethr =  5.00E-09,  avg # of iterations =  3.8

     total cpu time spent up to now is     2129.9 secs

     total energy              =    -585.68749810 Ry
     Harris-Foulkes estimate   =    -585.68749814 Ry
     estimated scf accuracy    <       0.00000067 Ry

     iteration # 34     ecut=    50.00 Ry     beta=0.60
     Davidson diagonalization with overlap
     ethr =  1.08E-09,  avg # of iterations =  4.2

     total cpu time spent up to now is     2202.6 secs

     total energy              =    -585.68749812 Ry
     Harris-Foulkes estimate   =    -585.68749821 Ry
     estimated scf accuracy    <       0.00000080 Ry

     iteration # 35     ecut=    50.00 Ry     beta=0.60
     Davidson diagonalization with overlap
     ethr =  1.08E-09,  avg # of iterations =  1.0

     total cpu time spent up to now is     2255.4 secs

     total energy              =    -585.68749810 Ry
     Harris-Foulkes estimate   =    -585.68749814 Ry
     estimated scf accuracy    <       0.00000023 Ry

     iteration # 36     ecut=    50.00 Ry     beta=0.60
     Davidson diagonalization with overlap
     ethr =  3.76E-10,  avg # of iterations =  4.1

     total cpu time spent up to now is     2332.1 secs

     total energy              =    -585.68749815 Ry
     Harris-Foulkes estimate   =    -585.68749816 Ry
     estimated scf accuracy    <       0.00000017 Ry

     iteration # 37     ecut=    50.00 Ry     beta=0.60
     Davidson diagonalization with overlap
     ethr =  2.78E-10,  avg # of iterations =  1.0

     total cpu time spent up to now is     2384.9 secs

     total energy              =    -585.68749815 Ry
     Harris-Foulkes estimate   =    -585.68749815 Ry
     estimated scf accuracy    <       0.00000008 Ry

     iteration # 38     ecut=    50.00 Ry     beta=0.60
     Davidson diagonalization with overlap
     ethr =  1.30E-10,  avg # of iterations =  1.0

     total cpu time spent up to now is     2437.7 secs

     total energy              =    -585.68749815 Ry
     Harris-Foulkes estimate   =    -585.68749815 Ry
     estimated scf accuracy    <       0.00000005 Ry

     iteration # 39     ecut=    50.00 Ry     beta=0.60
     Davidson diagonalization with overlap
     ethr =  7.69E-11,  avg # of iterations =  2.5

     total cpu time spent up to now is     2494.0 secs

     total energy              =    -585.68749815 Ry
     Harris-Foulkes estimate   =    -585.68749815 Ry
     estimated scf accuracy    <       0.00000002 Ry

     iteration # 40     ecut=    50.00 Ry     beta=0.60
     Davidson diagonalization with overlap
     ethr =  2.53E-11,  avg # of iterations =  4.0

     total cpu time spent up to now is     2568.5 secs

     total energy              =    -585.68749815 Ry
     Harris-Foulkes estimate   =    -585.68749815 Ry
     estimated scf accuracy    <          1.4E-09 Ry

     iteration # 41     ecut=    50.00 Ry     beta=0.60
     Davidson diagonalization with overlap
     ethr =  2.28E-12,  avg # of iterations =  4.5

     total cpu time spent up to now is     2642.5 secs

     total energy              =    -585.68749815 Ry
     Harris-Foulkes estimate   =    -585.68749815 Ry
     estimated scf accuracy    <          7.1E-09 Ry

     iteration # 42     ecut=    50.00 Ry     beta=0.60
     Davidson diagonalization with overlap
     ethr =  2.28E-12,  avg # of iterations =  1.0

     total cpu time spent up to now is     2695.1 secs

     total energy              =    -585.68749815 Ry
     Harris-Foulkes estimate   =    -585.68749815 Ry
     estimated scf accuracy    <          4.8E-09 Ry

     iteration # 43     ecut=    50.00 Ry     beta=0.60
     Davidson diagonalization with overlap
     ethr =  2.28E-12,  avg # of iterations =  4.0

     total cpu time spent up to now is     2770.1 secs

     End of self-consistent calculation

     Number of k-points >= 100: set verbosity='high' to print the bands.

     the Fermi energy is    11.7314 ev

!    total energy              =    -585.68749815 Ry
     Harris-Foulkes estimate   =    -585.68749815 Ry
     estimated scf accuracy    <          6.2E-11 Ry

     The total energy is the sum of the following terms:

     one-electron contribution =    -201.72240738 Ry
     hartree contribution      =     117.06675649 Ry
     xc contribution           =     -79.62110575 Ry
     ewald contribution        =    -421.40961197 Ry
     smearing contrib. (-TS)   =      -0.00112954 Ry

     convergence has been achieved in  43 iterations

     Forces acting on atoms (Ry/au):

     atom    1 type  2   force =     0.00845756   -0.00845756   -0.00845756
     atom    2 type  2   force =    -0.00000000   -0.00000000    0.00000000
     atom    3 type  2   force =    -0.00845756    0.00845756    0.00845756
     atom    4 type  1   force =    -0.00756134    0.00756134    0.00756134
     atom    5 type  1   force =     0.00756134   -0.00756134   -0.00756134

     Total force =     0.027789     Total SCF correction =     0.000008


     entering subroutine stress ...

          total   stress  (Ry/bohr**3)                   (kbar)     P= -194.70
  -0.00132353   0.00002364   0.00002364       -194.70      3.48      3.48
   0.00002364  -0.00132353  -0.00002364          3.48   -194.70     -3.48
   0.00002364  -0.00002364  -0.00132353          3.48     -3.48   -194.70


     BFGS Geometry Optimization

     number of scf cycles    =   1
     number of bfgs steps    =   0

     enthalpy new            =    -585.6874981524 Ry

     new trust radius        =       0.1792648693 bohr
     new conv_thr            =            1.0E-10 Ry

     new unit-cell volume =    662.92825 a.u.^3 (    98.23583 Ang^3 )

CELL_PARAMETERS (alat=  1.88972599)
  -1.695704616   1.695704616   5.097505724
  -1.695704616   5.097505724   1.695704616
  -5.097505724   1.695704616   1.695704616

ATOMIC_POSITIONS (angstrom)
Ti      -3.391243813   3.391243813   3.391243813
Ti      -5.093348974   5.093348974   5.093348974
Ti      -6.795454134   6.795454134   6.795454134
Nb      -8.492779121   8.492779121   8.492779121
Nb      -1.693918827   1.693918827   1.693918827


     NEW-OLD atomic charge density approx. for the potential
     extrapolated charge   55.73385, renormalised to   62.00000

     total cpu time spent up to now is     2802.3 secs

     per-process dynamical memory:   228.6 Mb

     Self-consistent Calculation

     iteration #  1     ecut=    50.00 Ry     beta=0.60
     Davidson diagonalization with overlap
     c_bands:  1 eigenvalues not converged
     c_bands:  1 eigenvalues not converged
     c_bands:  1 eigenvalues not converged
     c_bands:  1 eigenvalues not converged
     c_bands:  1 eigenvalues not converged
     c_bands:  1 eigenvalues not converged
     c_bands:  1 eigenvalues not converged
     c_bands:  1 eigenvalues not converged
     c_bands:  2 eigenvalues not converged
     c_bands:  1 eigenvalues not converged
     c_bands:  1 eigenvalues not converged
     c_bands:  1 eigenvalues not converged
     c_bands:  1 eigenvalues not converged
     c_bands:  1 eigenvalues not converged
     c_bands:  1 eigenvalues not converged
     c_bands:  1 eigenvalues not converged
     c_bands:  1 eigenvalues not converged
     c_bands:  1 eigenvalues not converged
     c_bands:  1 eigenvalues not converged
     c_bands:  1 eigenvalues not converged
     c_bands:  1 eigenvalues not converged
     c_bands:  1 eigenvalues not converged
     c_bands:  1 eigenvalues not converged
     c_bands:  1 eigenvalues not converged
     c_bands:  1 eigenvalues not converged
     c_bands:  1 eigenvalues not converged
     ethr =  1.00E-06,  avg # of iterations = 16.9

     total cpu time spent up to now is     3088.9 secs

     total energy              =    -561.33285472 Ry
     Harris-Foulkes estimate   =    -600.56130770 Ry
     estimated scf accuracy    <      26.93572117 Ry

     iteration #  2     ecut=    50.00 Ry     beta=0.60
     Davidson diagonalization with overlap
     ethr =  1.00E-02,  avg # of iterations =  6.1

     total cpu time spent up to now is     3226.1 secs

     total energy              =    -583.64809704 Ry
     Harris-Foulkes estimate   =    -616.91975567 Ry
     estimated scf accuracy    <      96.49620120 Ry

     iteration #  3     ecut=    50.00 Ry     beta=0.60
     Davidson diagonalization with overlap
     ethr =  1.00E-02,  avg # of iterations =  3.3

     total cpu time spent up to now is     3320.8 secs

     total energy              =    -587.34593977 Ry
     Harris-Foulkes estimate   =    -590.99098538 Ry
     estimated scf accuracy    <      16.47858638 Ry

     iteration #  4     ecut=    50.00 Ry     beta=0.60
     Davidson diagonalization with overlap
     ethr =  1.00E-02,  avg # of iterations =  1.1

     total cpu time spent up to now is     3373.7 secs

     total energy              =    -585.28116934 Ry
     Harris-Foulkes estimate   =    -587.60773823 Ry
     estimated scf accuracy    <       9.51482509 Ry

     iteration #  5     ecut=    50.00 Ry     beta=0.60
     Davidson diagonalization with overlap
     ethr =  1.00E-02,  avg # of iterations =  3.4

     total cpu time spent up to now is     3441.9 secs

     total energy              =    -586.32036777 Ry
     Harris-Foulkes estimate   =    -586.10161792 Ry
     estimated scf accuracy    <       1.39051025 Ry

     iteration #  6     ecut=    50.00 Ry     beta=0.60
     Davidson diagonalization with overlap
     ethr =  2.24E-03,  avg # of iterations =  3.8

     total cpu time spent up to now is     3511.6 secs

     total energy              =    -586.38079822 Ry
     Harris-Foulkes estimate   =    -586.68381295 Ry
     estimated scf accuracy    <       4.26777840 Ry

     iteration #  7     ecut=    50.00 Ry     beta=0.60
     Davidson diagonalization with overlap
     ethr =  2.24E-03,  avg # of iterations =  1.0

     total cpu time spent up to now is     3564.5 secs

     total energy              =    -586.14097586 Ry
     Harris-Foulkes estimate   =    -586.39613325 Ry
     estimated scf accuracy    <       3.66957557 Ry

     iteration #  8     ecut=    50.00 Ry     beta=0.60
     Davidson diagonalization with overlap
     ethr =  2.24E-03,  avg # of iterations =  1.1

     total cpu time spent up to now is     3617.6 secs

     total energy              =    -586.12635739 Ry
     Harris-Foulkes estimate   =    -586.16013087 Ry
     estimated scf accuracy    <       2.75970977 Ry

     iteration #  9     ecut=    50.00 Ry     beta=0.60
     Davidson diagonalization with overlap
     ethr =  2.24E-03,  avg # of iterations =  1.0

     total cpu time spent up to now is     3670.5 secs

     total energy              =    -585.70021363 Ry
     Harris-Foulkes estimate   =    -586.13159234 Ry
     estimated scf accuracy    <       2.52796210 Ry

     iteration # 10     ecut=    50.00 Ry     beta=0.60
     Davidson diagonalization with overlap
     ethr =  2.24E-03,  avg # of iterations =  2.0

     total cpu time spent up to now is     3725.6 secs

     total energy              =    -585.38095705 Ry
     Harris-Foulkes estimate   =    -585.77056492 Ry
     estimated scf accuracy    <       0.76626589 Ry

     iteration # 11     ecut=    50.00 Ry     beta=0.60
     Davidson diagonalization with overlap
     ethr =  1.24E-03,  avg # of iterations =  5.0

     total cpu time spent up to now is     3831.6 secs

     total energy              =    -585.94231625 Ry
     Harris-Foulkes estimate   =    -586.17291606 Ry
     estimated scf accuracy    <       5.06056466 Ry

     iteration # 12     ecut=    50.00 Ry     beta=0.60
     Davidson diagonalization with overlap
     ethr =  1.24E-03,  avg # of iterations =  1.0

     total cpu time spent up to now is     3884.3 secs

     total energy              =    -585.88583011 Ry
     Harris-Foulkes estimate   =    -585.95826469 Ry
     estimated scf accuracy    <       3.62056829 Ry

     iteration # 13     ecut=    50.00 Ry     beta=0.60
     Davidson diagonalization with overlap
     ethr =  1.24E-03,  avg # of iterations =  1.0

     total cpu time spent up to now is     3937.1 secs

     total energy              =    -585.91484002 Ry
     Harris-Foulkes estimate   =    -585.90361799 Ry
     estimated scf accuracy    <       3.20524264 Ry

     iteration # 14     ecut=    50.00 Ry     beta=0.60
     Davidson diagonalization with overlap
     ethr =  1.24E-03,  avg # of iterations =  1.0

     total cpu time spent up to now is     3989.7 secs

     total energy              =    -585.90905842 Ry
     Harris-Foulkes estimate   =    -585.92166584 Ry
     estimated scf accuracy    <       2.91493040 Ry

     iteration # 15     ecut=    50.00 Ry     beta=0.60
     Davidson diagonalization with overlap
     ethr =  1.24E-03,  avg # of iterations =  1.0

     total cpu time spent up to now is     4042.6 secs

     total energy              =    -585.99934493 Ry
     Harris-Foulkes estimate   =    -585.91325294 Ry
     estimated scf accuracy    <       2.72078333 Ry

     iteration # 16     ecut=    50.00 Ry     beta=0.60
     Davidson diagonalization with overlap
     ethr =  1.24E-03,  avg # of iterations =  1.0

     total cpu time spent up to now is     4095.4 secs

     total energy              =    -585.91427023 Ry
     Harris-Foulkes estimate   =    -586.00482739 Ry
     estimated scf accuracy    <       3.34692406 Ry

     iteration # 17     ecut=    50.00 Ry     beta=0.60
     Davidson diagonalization with overlap
     ethr =  1.24E-03,  avg # of iterations =  1.0

     total cpu time spent up to now is     4148.3 secs

     total energy              =    -585.81550702 Ry
     Harris-Foulkes estimate   =    -585.92450029 Ry
     estimated scf accuracy    <       2.65891079 Ry

     iteration # 18     ecut=    50.00 Ry     beta=0.60
     Davidson diagonalization with overlap
     ethr =  1.24E-03,  avg # of iterations =  1.0

     total cpu time spent up to now is     4201.2 secs

     total energy              =    -585.66555746 Ry
     Harris-Foulkes estimate   =    -585.83838489 Ry
     estimated scf accuracy    <       1.66080028 Ry

     iteration # 19     ecut=    50.00 Ry     beta=0.60
     Davidson diagonalization with overlap
     ethr =  1.24E-03,  avg # of iterations =  4.1

     total cpu time spent up to now is     4274.6 secs

     total energy              =    -585.77907299 Ry
     Harris-Foulkes estimate   =    -585.76867177 Ry
     estimated scf accuracy    <       0.14645153 Ry

     iteration # 20     ecut=    50.00 Ry     beta=0.60
     Davidson diagonalization with overlap
     ethr =  2.36E-04,  avg # of iterations =  3.0

     total cpu time spent up to now is     4333.9 secs

     total energy              =    -585.80090878 Ry
     Harris-Foulkes estimate   =    -585.78663820 Ry
     estimated scf accuracy    <       0.25085229 Ry

     iteration # 21     ecut=    50.00 Ry     beta=0.60
     Davidson diagonalization with overlap
     ethr =  2.36E-04,  avg # of iterations =  2.0

     total cpu time spent up to now is     4391.5 secs

     total energy              =    -585.80922086 Ry
     Harris-Foulkes estimate   =    -585.80693339 Ry
     estimated scf accuracy    <       0.44780492 Ry

     iteration # 22     ecut=    50.00 Ry     beta=0.60
     Davidson diagonalization with overlap
     ethr =  2.36E-04,  avg # of iterations =  1.1

     total cpu time spent up to now is     4444.4 secs

     total energy              =    -585.73343368 Ry
     Harris-Foulkes estimate   =    -585.81019489 Ry
     estimated scf accuracy    <       0.47199945 Ry

     iteration # 23     ecut=    50.00 Ry     beta=0.60
     Davidson diagonalization with overlap
     ethr =  2.36E-04,  avg # of iterations =  4.2

     total cpu time spent up to now is     4514.7 secs

     total energy              =    -585.76157358 Ry
     Harris-Foulkes estimate   =    -585.76407666 Ry
     estimated scf accuracy    <       0.00863471 Ry

     iteration # 24     ecut=    50.00 Ry     beta=0.60
     Davidson diagonalization with overlap
     ethr =  1.39E-05,  avg # of iterations =  6.5

     total cpu time spent up to now is     4626.4 secs

     total energy              =    -585.76393144 Ry
     Harris-Foulkes estimate   =    -585.77117286 Ry
     estimated scf accuracy    <       0.05014421 Ry

     iteration # 25     ecut=    50.00 Ry     beta=0.60
     Davidson diagonalization with overlap
     ethr =  1.39E-05,  avg # of iterations =  4.7

     total cpu time spent up to now is     4706.5 secs

     total energy              =    -585.76669884 Ry
     Harris-Foulkes estimate   =    -585.76702280 Ry
     estimated scf accuracy    <       0.00129538 Ry

     iteration # 26     ecut=    50.00 Ry     beta=0.60
     Davidson diagonalization with overlap
     ethr =  2.09E-06,  avg # of iterations =  5.9

     total cpu time spent up to now is     4799.9 secs

     total energy              =    -585.76682778 Ry
     Harris-Foulkes estimate   =    -585.76706365 Ry
     estimated scf accuracy    <       0.00146310 Ry

     iteration # 27     ecut=    50.00 Ry     beta=0.60
     Davidson diagonalization with overlap
     ethr =  2.09E-06,  avg # of iterations =  1.0

     total cpu time spent up to now is     4852.7 secs

     total energy              =    -585.76685072 Ry
     Harris-Foulkes estimate   =    -585.76689324 Ry
     estimated scf accuracy    <       0.00023308 Ry

     iteration # 28     ecut=    50.00 Ry     beta=0.60
     Davidson diagonalization with overlap
     ethr =  3.76E-07,  avg # of iterations =  4.4

     total cpu time spent up to now is     4933.3 secs

     total energy              =    -585.76692847 Ry
     Harris-Foulkes estimate   =    -585.76695569 Ry
     estimated scf accuracy    <       0.00023144 Ry

     iteration # 29     ecut=    50.00 Ry     beta=0.60
     Davidson diagonalization with overlap
     ethr =  3.73E-07,  avg # of iterations =  1.0

     total cpu time spent up to now is     4986.1 secs

     total energy              =    -585.76692760 Ry
     Harris-Foulkes estimate   =    -585.76693413 Ry
     estimated scf accuracy    <       0.00007340 Ry

     iteration # 30     ecut=    50.00 Ry     beta=0.60
     Davidson diagonalization with overlap
     ethr =  1.18E-07,  avg # of iterations =  3.5

     total cpu time spent up to now is     5050.6 secs

     total energy              =    -585.76693438 Ry
     Harris-Foulkes estimate   =    -585.76693469 Ry
     estimated scf accuracy    <       0.00000398 Ry

     iteration # 31     ecut=    50.00 Ry     beta=0.60
     Davidson diagonalization with overlap
     ethr =  6.43E-09,  avg # of iterations =  5.0

     total cpu time spent up to now is     5132.5 secs

     total energy              =    -585.76693642 Ry
     Harris-Foulkes estimate   =    -585.76693648 Ry
     estimated scf accuracy    <       0.00000100 Ry

     iteration # 32     ecut=    50.00 Ry     beta=0.60
     Davidson diagonalization with overlap
     ethr =  1.62E-09,  avg # of iterations =  1.2

     total cpu time spent up to now is     5185.8 secs

     total energy              =    -585.76693630 Ry
     Harris-Foulkes estimate   =    -585.76693644 Ry
     estimated scf accuracy    <       0.00000061 Ry

     iteration # 33     ecut=    50.00 Ry     beta=0.60
     Davidson diagonalization with overlap
     ethr =  9.83E-10,  avg # of iterations =  3.4

     total cpu time spent up to now is     5253.2 secs

     total energy              =    -585.76693638 Ry
     Harris-Foulkes estimate   =    -585.76693640 Ry
     estimated scf accuracy    <       0.00000008 Ry

     iteration # 34     ecut=    50.00 Ry     beta=0.60
     Davidson diagonalization with overlap
     ethr =  1.33E-10,  avg # of iterations =  3.2

     total cpu time spent up to now is     5317.6 secs

     total energy              =    -585.76693639 Ry
     Harris-Foulkes estimate   =    -585.76693639 Ry
     estimated scf accuracy    <          3.3E-09 Ry

     iteration # 35     ecut=    50.00 Ry     beta=0.60
     Davidson diagonalization with overlap
     ethr =  5.38E-12,  avg # of iterations =  5.0

     total cpu time spent up to now is     5405.1 secs

     total energy              =    -585.76693639 Ry
     Harris-Foulkes estimate   =    -585.76693640 Ry
     estimated scf accuracy    <          2.8E-09 Ry

     iteration # 36     ecut=    50.00 Ry     beta=0.60
     Davidson diagonalization with overlap
     ethr =  4.46E-12,  avg # of iterations =  1.0

     total cpu time spent up to now is     5458.1 secs

     total energy              =    -585.76693639 Ry
     Harris-Foulkes estimate   =    -585.76693639 Ry
     estimated scf accuracy    <          5.1E-10 Ry

     iteration # 37     ecut=    50.00 Ry     beta=0.60
     Davidson diagonalization with overlap
     ethr =  8.19E-13,  avg # of iterations =  4.2

     total cpu time spent up to now is     5538.1 secs

     total energy              =    -585.76693639 Ry
     Harris-Foulkes estimate   =    -585.76693639 Ry
     estimated scf accuracy    <          4.6E-10 Ry

     iteration # 38     ecut=    50.00 Ry     beta=0.60
     Davidson diagonalization with overlap
     ethr =  7.43E-13,  avg # of iterations =  1.0

     total cpu time spent up to now is     5591.1 secs

     total energy              =    -585.76693639 Ry
     Harris-Foulkes estimate   =    -585.76693639 Ry
     estimated scf accuracy    <          1.3E-10 Ry

     iteration # 39     ecut=    50.00 Ry     beta=0.60
     Davidson diagonalization with overlap
     ethr =  2.07E-13,  avg # of iterations =  3.8

     total cpu time spent up to now is     5663.4 secs

     End of self-consistent calculation

     Number of k-points >= 100: set verbosity='high' to print the bands.

     the Fermi energy is    13.2732 ev

!    total energy              =    -585.76693639 Ry
     Harris-Foulkes estimate   =    -585.76693639 Ry
     estimated scf accuracy    <          2.6E-11 Ry

     The total energy is the sum of the following terms:

     one-electron contribution =    -180.32229345 Ry
     hartree contribution      =     110.37347765 Ry
     xc contribution           =     -80.00029386 Ry
     ewald contribution        =    -435.81701765 Ry
     smearing contrib. (-TS)   =      -0.00080907 Ry

     convergence has been achieved in  39 iterations

     Forces acting on atoms (Ry/au):

     atom    1 type  2   force =     0.00655653   -0.00655653   -0.00655653
     atom    2 type  2   force =    -0.00000000   -0.00000000    0.00000000
     atom    3 type  2   force =    -0.00655653    0.00655653    0.00655653
     atom    4 type  1   force =    -0.00778977    0.00778977    0.00778977
     atom    5 type  1   force =     0.00778977   -0.00778977   -0.00778977

     Total force =     0.024940     Total SCF correction =     0.000004


     entering subroutine stress ...

          total   stress  (Ry/bohr**3)                   (kbar)     P= -127.60
  -0.00086739   0.00002637   0.00002637       -127.60      3.88      3.88
   0.00002637  -0.00086739  -0.00002637          3.88   -127.60     -3.88
   0.00002637  -0.00002637  -0.00086739          3.88     -3.88   -127.60


     number of scf cycles    =   2
     number of bfgs steps    =   1

     enthalpy old            =    -585.6874981524 Ry
     enthalpy new            =    -585.7669363948 Ry

     CASE: enthalpy_new < enthalpy_old

     new trust radius        =       0.2644230215 bohr
     new conv_thr            =            1.0E-10 Ry

     new unit-cell volume =    566.04622 a.u.^3 (    83.87939 Ang^3 )

CELL_PARAMETERS (alat=  1.88972599)
  -1.597697442   1.597697442   4.830511012
  -1.597697442   4.830511012   1.597697442
  -4.830511012   1.597697442   1.597697442

ATOMIC_POSITIONS (angstrom)
Ti      -3.198795715   3.198795715   3.198795715
Ti      -4.815543537   4.815543537   4.815543537
Ti      -6.432291359   6.432291359   6.432291359
Nb      -8.038440999   8.038440999   8.038440999
Nb      -1.592646076   1.592646076   1.592646076


     NEW-OLD atomic charge density approx. for the potential
     extrapolated charge   51.90277, renormalised to   62.00000

     total cpu time spent up to now is     5696.3 secs

     per-process dynamical memory:   228.6 Mb

     Self-consistent Calculation

     iteration #  1     ecut=    50.00 Ry     beta=0.60
     Davidson diagonalization with overlap
     c_bands:  1 eigenvalues not converged
     c_bands:  1 eigenvalues not converged
     c_bands:  1 eigenvalues not converged
     c_bands:  1 eigenvalues not converged
     c_bands:  1 eigenvalues not converged
     c_bands:  1 eigenvalues not converged
     ethr =  1.00E-06,  avg # of iterations = 15.8

     total cpu time spent up to now is     5981.0 secs

     total energy              =    -544.14843141 Ry
     Harris-Foulkes estimate   =    -607.36579099 Ry
     estimated scf accuracy    <      45.68749372 Ry

     iteration #  2     ecut=    50.00 Ry     beta=0.60
     Davidson diagonalization with overlap
     ethr =  1.00E-02,  avg # of iterations =  6.6

     total cpu time spent up to now is     6124.9 secs

     total energy              =    -577.21650283 Ry
     Harris-Foulkes estimate   =    -633.42577858 Ry
     estimated scf accuracy    <     162.39163792 Ry

     iteration #  3     ecut=    50.00 Ry     beta=0.60
     Davidson diagonalization with overlap
     ethr =  1.00E-02,  avg # of iterations =  3.5

     total cpu time spent up to now is     6226.5 secs

     total energy              =    -588.00775530 Ry
     Harris-Foulkes estimate   =    -592.87271803 Ry
     estimated scf accuracy    <      20.81088254 Ry

     iteration #  4     ecut=    50.00 Ry     beta=0.60
     Davidson diagonalization with overlap
     ethr =  1.00E-02,  avg # of iterations =  1.6

     total cpu time spent up to now is     6280.7 secs

     total energy              =    -585.50003092 Ry
     Harris-Foulkes estimate   =    -588.40788496 Ry
     estimated scf accuracy    <      11.22678540 Ry

     iteration #  5     ecut=    50.00 Ry     beta=0.60
     Davidson diagonalization with overlap
     ethr =  1.00E-02,  avg # of iterations =  3.3

     total cpu time spent up to now is     6349.6 secs

     total energy              =    -586.71930510 Ry
     Harris-Foulkes estimate   =    -586.43962353 Ry
     estimated scf accuracy    <       2.24421280 Ry

     iteration #  6     ecut=    50.00 Ry     beta=0.60
     Davidson diagonalization with overlap
     ethr =  3.62E-03,  avg # of iterations =  3.4

     total cpu time spent up to now is     6416.1 secs

     total energy              =    -586.47281012 Ry
     Harris-Foulkes estimate   =    -587.28012045 Ry
     estimated scf accuracy    <       6.17311860 Ry

     iteration #  7     ecut=    50.00 Ry     beta=0.60
     Davidson diagonalization with overlap
     ethr =  3.62E-03,  avg # of iterations =  1.0

     total cpu time spent up to now is     6469.0 secs

     total energy              =    -586.41039871 Ry
     Harris-Foulkes estimate   =    -586.52276281 Ry
     estimated scf accuracy    <       4.07150731 Ry

     iteration #  8     ecut=    50.00 Ry     beta=0.60
     Davidson diagonalization with overlap
     ethr =  3.62E-03,  avg # of iterations =  1.0

     total cpu time spent up to now is     6521.5 secs

     total energy              =    -586.29920013 Ry
     Harris-Foulkes estimate   =    -586.42662216 Ry
     estimated scf accuracy    <       3.64488895 Ry

     iteration #  9     ecut=    50.00 Ry     beta=0.60
     Davidson diagonalization with overlap
     ethr =  3.62E-03,  avg # of iterations =  1.0

     total cpu time spent up to now is     6574.2 secs

     total energy              =    -585.42707077 Ry
     Harris-Foulkes estimate   =    -586.31051838 Ry
     estimated scf accuracy    <       3.09391712 Ry

     iteration # 10     ecut=    50.00 Ry     beta=0.60
     Davidson diagonalization with overlap
     ethr =  3.62E-03,  avg # of iterations =  3.4

     total cpu time spent up to now is     6641.0 secs

     total energy              =    -585.78988653 Ry
     Harris-Foulkes estimate   =    -585.78551305 Ry
     estimated scf accuracy    <       0.07969364 Ry

     iteration # 11     ecut=    50.00 Ry     beta=0.60
     Davidson diagonalization with overlap
     ethr =  1.29E-04,  avg # of iterations =  5.9

     total cpu time spent up to now is     6784.1 secs

     total energy              =    -585.92423528 Ry
     Harris-Foulkes estimate   =    -586.08252604 Ry
     estimated scf accuracy    <       2.91521377 Ry

     iteration # 12     ecut=    50.00 Ry     beta=0.60
     Davidson diagonalization with overlap
     ethr =  1.29E-04,  avg # of iterations =  4.2

     total cpu time spent up to now is     6861.9 secs

     total energy              =    -585.93658491 Ry
     Harris-Foulkes estimate   =    -585.94650244 Ry
     estimated scf accuracy    <       1.62333830 Ry

     iteration # 13     ecut=    50.00 Ry     beta=0.60
     Davidson diagonalization with overlap
     ethr =  1.29E-04,  avg # of iterations =  1.2

     total cpu time spent up to now is     6914.9 secs

     total energy              =    -585.82634230 Ry
     Harris-Foulkes estimate   =    -585.93840668 Ry
     estimated scf accuracy    <       1.49649106 Ry

     iteration # 14     ecut=    50.00 Ry     beta=0.60
     Davidson diagonalization with overlap
     ethr =  1.29E-04,  avg # of iterations =  5.0

     total cpu time spent up to now is     6996.3 secs

     total energy              =    -585.84039830 Ry
     Harris-Foulkes estimate   =    -585.84929612 Ry
     estimated scf accuracy    <       0.52980166 Ry

     iteration # 15     ecut=    50.00 Ry     beta=0.60
     Davidson diagonalization with overlap
     ethr =  1.29E-04,  avg # of iterations =  1.2

     total cpu time spent up to now is     7049.3 secs

     total energy              =    -585.68669517 Ry
     Harris-Foulkes estimate   =    -585.84325921 Ry
     estimated scf accuracy    <       0.53025219 Ry

     iteration # 16     ecut=    50.00 Ry     beta=0.60
     Davidson diagonalization with overlap
     ethr =  1.29E-04,  avg # of iterations =  5.2

     total cpu time spent up to now is     7179.2 secs

     total energy              =    -585.85704959 Ry
     Harris-Foulkes estimate   =    -585.92333121 Ry
     estimated scf accuracy    <       0.74913830 Ry

     iteration # 17     ecut=    50.00 Ry     beta=0.60
     Davidson diagonalization with overlap
     ethr =  1.29E-04,  avg # of iterations =  1.4

     total cpu time spent up to now is     7232.9 secs

     total energy              =    -585.78762680 Ry
     Harris-Foulkes estimate   =    -585.86095215 Ry
     estimated scf accuracy    <       0.51506490 Ry

     iteration # 18     ecut=    50.00 Ry     beta=0.60
     Davidson diagonalization with overlap
     ethr =  1.29E-04,  avg # of iterations =  4.6

     total cpu time spent up to now is     7317.6 secs

     total energy              =    -585.79616594 Ry
     Harris-Foulkes estimate   =    -585.81369725 Ry
     estimated scf accuracy    <       0.07573355 Ry

     iteration # 19     ecut=    50.00 Ry     beta=0.60
     Davidson diagonalization with overlap
     ethr =  1.22E-04,  avg # of iterations =  1.1

     total cpu time spent up to now is     7370.5 secs

     total energy              =    -585.79922869 Ry
     Harris-Foulkes estimate   =    -585.79971528 Ry
     estimated scf accuracy    <       0.01619542 Ry

     iteration # 20     ecut=    50.00 Ry     beta=0.60
     Davidson diagonalization with overlap
     ethr =  2.61E-05,  avg # of iterations =  4.7

     total cpu time spent up to now is     7447.1 secs

     total energy              =    -585.79943439 Ry
     Harris-Foulkes estimate   =    -585.80169065 Ry
     estimated scf accuracy    <       0.00743195 Ry

     iteration # 21     ecut=    50.00 Ry     beta=0.60
     Davidson diagonalization with overlap
     ethr =  1.20E-05,  avg # of iterations =  4.7

     total cpu time spent up to now is     7514.7 secs

     total energy              =    -585.80024894 Ry
     Harris-Foulkes estimate   =    -585.80058275 Ry
     estimated scf accuracy    <       0.00268138 Ry

     iteration # 22     ecut=    50.00 Ry     beta=0.60
     Davidson diagonalization with overlap
     ethr =  4.32E-06,  avg # of iterations =  3.6

     total cpu time spent up to now is     7579.4 secs

     total energy              =    -585.80024317 Ry
     Harris-Foulkes estimate   =    -585.80063616 Ry
     estimated scf accuracy    <       0.00173933 Ry

     iteration # 23     ecut=    50.00 Ry     beta=0.60
     Davidson diagonalization with overlap
     ethr =  2.81E-06,  avg # of iterations =  2.8

     total cpu time spent up to now is     7638.1 secs

     total energy              =    -585.80030091 Ry
     Harris-Foulkes estimate   =    -585.80037027 Ry
     estimated scf accuracy    <       0.00061690 Ry

     iteration # 24     ecut=    50.00 Ry     beta=0.60
     Davidson diagonalization with overlap
     ethr =  9.95E-07,  avg # of iterations =  2.8

     total cpu time spent up to now is     7698.0 secs

     total energy              =    -585.80028542 Ry
     Harris-Foulkes estimate   =    -585.80034478 Ry
     estimated scf accuracy    <       0.00023543 Ry

     iteration # 25     ecut=    50.00 Ry     beta=0.60
     Davidson diagonalization with overlap
     ethr =  3.80E-07,  avg # of iterations =  4.8

     total cpu time spent up to now is     7775.7 secs

     total energy              =    -585.80033628 Ry
     Harris-Foulkes estimate   =    -585.80034763 Ry
     estimated scf accuracy    <       0.00008196 Ry

     iteration # 26     ecut=    50.00 Ry     beta=0.60
     Davidson diagonalization with overlap
     ethr =  1.32E-07,  avg # of iterations =  1.1

     total cpu time spent up to now is     7828.5 secs

     total energy              =    -585.80033598 Ry
     Harris-Foulkes estimate   =    -585.80033916 Ry
     estimated scf accuracy    <       0.00002741 Ry

     iteration # 27     ecut=    50.00 Ry     beta=0.60
     Davidson diagonalization with overlap
     ethr =  4.42E-08,  avg # of iterations =  3.3

     total cpu time spent up to now is     7896.3 secs

     total energy              =    -585.80033940 Ry
     Harris-Foulkes estimate   =    -585.80033954 Ry
     estimated scf accuracy    <       0.00000176 Ry

     iteration # 28     ecut=    50.00 Ry     beta=0.60
     Davidson diagonalization with overlap
     ethr =  2.84E-09,  avg # of iterations =  3.8

     total cpu time spent up to now is     7962.0 secs

     total energy              =    -585.80033953 Ry
     Harris-Foulkes estimate   =    -585.80033962 Ry
     estimated scf accuracy    <       0.00000059 Ry

     iteration # 29     ecut=    50.00 Ry     beta=0.60
     Davidson diagonalization with overlap
     ethr =  9.51E-10,  avg # of iterations =  3.7

     total cpu time spent up to now is     8028.6 secs

     total energy              =    -585.80033958 Ry
     Harris-Foulkes estimate   =    -585.80033962 Ry
     estimated scf accuracy    <       0.00000027 Ry

     iteration # 30     ecut=    50.00 Ry     beta=0.60
     Davidson diagonalization with overlap
     ethr =  4.43E-10,  avg # of iterations =  1.5

     total cpu time spent up to now is     8082.4 secs

     total energy              =    -585.80033958 Ry
     Harris-Foulkes estimate   =    -585.80033960 Ry
     estimated scf accuracy    <       0.00000009 Ry

     iteration # 31     ecut=    50.00 Ry     beta=0.60
     Davidson diagonalization with overlap
     ethr =  1.38E-10,  avg # of iterations =  3.9

     total cpu time spent up to now is     8154.7 secs

     total energy              =    -585.80033960 Ry
     Harris-Foulkes estimate   =    -585.80033960 Ry
     estimated scf accuracy    <          2.9E-09 Ry

     iteration # 32     ecut=    50.00 Ry     beta=0.60
     Davidson diagonalization with overlap
     ethr =  4.70E-12,  avg # of iterations =  3.7

     total cpu time spent up to now is     8225.9 secs

     total energy              =    -585.80033960 Ry
     Harris-Foulkes estimate   =    -585.80033960 Ry
     estimated scf accuracy    <          1.2E-09 Ry

     iteration # 33     ecut=    50.00 Ry     beta=0.60
     Davidson diagonalization with overlap
     ethr =  1.96E-12,  avg # of iterations =  1.0

     total cpu time spent up to now is     8278.6 secs

     total energy              =    -585.80033960 Ry
     Harris-Foulkes estimate   =    -585.80033960 Ry
     estimated scf accuracy    <          1.1E-09 Ry

     iteration # 34     ecut=    50.00 Ry     beta=0.60
     Davidson diagonalization with overlap
     ethr =  1.78E-12,  avg # of iterations =  2.8

     total cpu time spent up to now is     8338.5 secs

     End of self-consistent calculation

     Number of k-points >= 100: set verbosity='high' to print the bands.

     the Fermi energy is    15.9915 ev

!    total energy              =    -585.80033960 Ry
     Harris-Foulkes estimate   =    -585.80033960 Ry
     estimated scf accuracy    <          2.6E-11 Ry

     The total energy is the sum of the following terms:

     one-electron contribution =    -145.95500926 Ry
     hartree contribution      =     100.19625053 Ry
     xc contribution           =     -80.70099157 Ry
     ewald contribution        =    -459.33903297 Ry
     smearing contrib. (-TS)   =      -0.00155633 Ry

     convergence has been achieved in  34 iterations

     Forces acting on atoms (Ry/au):

     atom    1 type  2   force =     0.00257388   -0.00257388   -0.00257388
     atom    2 type  2   force =     0.00000000    0.00000000    0.00000000
     atom    3 type  2   force =    -0.00257388    0.00257388    0.00257388
     atom    4 type  1   force =    -0.00707128    0.00707128    0.00707128
     atom    5 type  1   force =     0.00707128   -0.00707128   -0.00707128

     Total force =     0.018433     Total SCF correction =     0.000009


     entering subroutine stress ...

          total   stress  (Ry/bohr**3)                   (kbar)     P=   52.58
   0.00035744   0.00003024   0.00003024         52.58      4.45      4.45
   0.00003024   0.00035744  -0.00003024          4.45     52.58     -4.45
   0.00003024  -0.00003024   0.00035744          4.45     -4.45     52.58


     number of scf cycles    =   3
     number of bfgs steps    =   2

     enthalpy old            =    -585.7669363948 Ry
     enthalpy new            =    -585.8003395981 Ry

     CASE: enthalpy_new < enthalpy_old

     new trust radius        =       0.0672649733 bohr
     new conv_thr            =            1.0E-10 Ry

     new unit-cell volume =    590.38658 a.u.^3 (    87.48626 Ang^3 )

CELL_PARAMETERS (alat=  1.88972599)
  -1.618891469   1.618891469   4.898091229
  -1.618891469   4.898091229   1.618891469
  -4.898091229   1.618891469   1.618891469

ATOMIC_POSITIONS (angstrom)
Ti      -3.242909104   3.242909104   3.242909104
Ti      -4.881524501   4.881524501   4.881524501
Ti      -6.520139897   6.520139897   6.520139897
Nb      -8.149566322   8.149566322   8.149566322
Nb      -1.613482679   1.613482679   1.613482679


     NEW-OLD atomic charge density approx. for the potential
     extrapolated charge   64.43221, renormalised to   62.00000

     total cpu time spent up to now is     8372.9 secs

     per-process dynamical memory:   228.6 Mb

     Self-consistent Calculation

     iteration #  1     ecut=    50.00 Ry     beta=0.60
     Davidson diagonalization with overlap
     ethr =  1.00E-06,  avg # of iterations = 11.8

     total cpu time spent up to now is     8585.5 secs

     total energy              =    -585.27345002 Ry
     Harris-Foulkes estimate   =    -581.51846654 Ry
     estimated scf accuracy    <       0.43525817 Ry

     iteration #  2     ecut=    50.00 Ry     beta=0.60
     Davidson diagonalization with overlap
     ethr =  7.02E-04,  avg # of iterations =  6.2

     total cpu time spent up to now is     8721.6 secs

     total energy              =    -585.16039255 Ry
     Harris-Foulkes estimate   =    -586.70677216 Ry
     estimated scf accuracy    <       9.14221749 Ry

     iteration #  3     ecut=    50.00 Ry     beta=0.60
     Davidson diagonalization with overlap
     ethr =  7.02E-04,  avg # of iterations =  5.2

     total cpu time spent up to now is     8831.1 secs

     total energy              =    -585.68743165 Ry
     Harris-Foulkes estimate   =    -585.94576664 Ry
     estimated scf accuracy    <       1.29363187 Ry

     iteration #  4     ecut=    50.00 Ry     beta=0.60
     Davidson diagonalization with overlap
     ethr =  7.02E-04,  avg # of iterations =  5.8

     total cpu time spent up to now is     8909.4 secs

     total energy              =    -585.77935583 Ry
     Harris-Foulkes estimate   =    -585.89232292 Ry
     estimated scf accuracy    <       0.78536404 Ry

     iteration #  5     ecut=    50.00 Ry     beta=0.60
     Davidson diagonalization with overlap
     ethr =  7.02E-04,  avg # of iterations =  1.6

     total cpu time spent up to now is     8963.4 secs

     total energy              =    -585.79924636 Ry
     Harris-Foulkes estimate   =    -585.80997106 Ry
     estimated scf accuracy    <       0.16822802 Ry

     iteration #  6     ecut=    50.00 Ry     beta=0.60
     Davidson diagonalization with overlap
     ethr =  2.71E-04,  avg # of iterations =  4.5

     total cpu time spent up to now is     9034.5 secs

     total energy              =    -585.81230563 Ry
     Harris-Foulkes estimate   =    -585.82114812 Ry
     estimated scf accuracy    <       0.10353365 Ry

     iteration #  7     ecut=    50.00 Ry     beta=0.60
     Davidson diagonalization with overlap
     ethr =  1.67E-04,  avg # of iterations =  1.2

     total cpu time spent up to now is     9087.4 secs

     total energy              =    -585.80641273 Ry
     Harris-Foulkes estimate   =    -585.81352676 Ry
     estimated scf accuracy    <       0.06924932 Ry

     iteration #  8     ecut=    50.00 Ry     beta=0.60
     Davidson diagonalization with overlap
     ethr =  1.12E-04,  avg # of iterations =  1.3

     total cpu time spent up to now is     9140.8 secs

     total energy              =    -585.80158676 Ry
     Harris-Foulkes estimate   =    -585.80784811 Ry
     estimated scf accuracy    <       0.03548297 Ry

     iteration #  9     ecut=    50.00 Ry     beta=0.60
     Davidson diagonalization with overlap
     ethr =  5.72E-05,  avg # of iterations =  3.5

     total cpu time spent up to now is     9203.2 secs

     total energy              =    -585.80466996 Ry
     Harris-Foulkes estimate   =    -585.80400855 Ry
     estimated scf accuracy    <       0.00543432 Ry

     iteration # 10     ecut=    50.00 Ry     beta=0.60
     Davidson diagonalization with overlap
     c_bands:  1 eigenvalues not converged
     ethr =  8.77E-06,  avg # of iterations =  6.6

     total cpu time spent up to now is     9281.4 secs

     total energy              =    -585.80355728 Ry
     Harris-Foulkes estimate   =    -585.80526631 Ry
     estimated scf accuracy    <       0.00611888 Ry

     iteration # 11     ecut=    50.00 Ry     beta=0.60
     Davidson diagonalization with overlap
     ethr =  8.77E-06,  avg # of iterations =  3.2

     total cpu time spent up to now is     9343.8 secs

     total energy              =    -585.80394419 Ry
     Harris-Foulkes estimate   =    -585.80407289 Ry
     estimated scf accuracy    <       0.00077368 Ry

     iteration # 12     ecut=    50.00 Ry     beta=0.60
     Davidson diagonalization with overlap
     c_bands:  1 eigenvalues not converged
     ethr =  1.25E-06,  avg # of iterations =  5.3

     total cpu time spent up to now is     9430.3 secs

     total energy              =    -585.80415327 Ry
     Harris-Foulkes estimate   =    -585.80417426 Ry
     estimated scf accuracy    <       0.00037999 Ry

     iteration # 13     ecut=    50.00 Ry     beta=0.60
     Davidson diagonalization with overlap
     ethr =  6.13E-07,  avg # of iterations =  1.2

     total cpu time spent up to now is     9483.4 secs

     total energy              =    -585.80414478 Ry
     Harris-Foulkes estimate   =    -585.80415961 Ry
     estimated scf accuracy    <       0.00025181 Ry

     iteration # 14     ecut=    50.00 Ry     beta=0.60
     Davidson diagonalization with overlap
     ethr =  4.06E-07,  avg # of iterations =  1.0

     total cpu time spent up to now is     9536.3 secs

     total energy              =    -585.80414786 Ry
     Harris-Foulkes estimate   =    -585.80414915 Ry
     estimated scf accuracy    <       0.00013924 Ry

     iteration # 15     ecut=    50.00 Ry     beta=0.60
     Davidson diagonalization with overlap
     ethr =  2.25E-07,  avg # of iterations =  1.2

     total cpu time spent up to now is     9589.4 secs

     total energy              =    -585.80414785 Ry
     Harris-Foulkes estimate   =    -585.80414952 Ry
     estimated scf accuracy    <       0.00012127 Ry

     iteration # 16     ecut=    50.00 Ry     beta=0.60
     Davidson diagonalization with overlap
     ethr =  1.96E-07,  avg # of iterations =  1.0

     total cpu time spent up to now is     9642.2 secs

     total energy              =    -585.80414186 Ry
     Harris-Foulkes estimate   =    -585.80414905 Ry
     estimated scf accuracy    <       0.00009650 Ry

     iteration # 17     ecut=    50.00 Ry     beta=0.60
     Davidson diagonalization with overlap
     ethr =  1.56E-07,  avg # of iterations =  2.6

     total cpu time spent up to now is     9699.0 secs

     total energy              =    -585.80414212 Ry
     Harris-Foulkes estimate   =    -585.80414541 Ry
     estimated scf accuracy    <       0.00003338 Ry

     iteration # 18     ecut=    50.00 Ry     beta=0.60
     Davidson diagonalization with overlap
     ethr =  5.38E-08,  avg # of iterations =  4.0

     total cpu time spent up to now is     9769.2 secs

     total energy              =    -585.80414603 Ry
     Harris-Foulkes estimate   =    -585.80414651 Ry
     estimated scf accuracy    <       0.00000189 Ry

     iteration # 19     ecut=    50.00 Ry     beta=0.60
     Davidson diagonalization with overlap
     ethr =  3.05E-09,  avg # of iterations =  4.5

     total cpu time spent up to now is     9845.8 secs

     total energy              =    -585.80414661 Ry
     Harris-Foulkes estimate   =    -585.80414668 Ry
     estimated scf accuracy    <       0.00000037 Ry

     iteration # 20     ecut=    50.00 Ry     beta=0.60
     Davidson diagonalization with overlap
     ethr =  5.89E-10,  avg # of iterations =  2.1

     total cpu time spent up to now is     9905.1 secs

     total energy              =    -585.80414665 Ry
     Harris-Foulkes estimate   =    -585.80414665 Ry
     estimated scf accuracy    <       0.00000001 Ry

     iteration # 21     ecut=    50.00 Ry     beta=0.60
     Davidson diagonalization with overlap
     ethr =  2.13E-11,  avg # of iterations =  4.9

     total cpu time spent up to now is     9994.3 secs

     total energy              =    -585.80414665 Ry
     Harris-Foulkes estimate   =    -585.80414665 Ry
     estimated scf accuracy    <       0.00000001 Ry

     iteration # 22     ecut=    50.00 Ry     beta=0.60
     Davidson diagonalization with overlap
     ethr =  2.13E-11,  avg # of iterations =  1.0

     total cpu time spent up to now is    10047.1 secs

     total energy              =    -585.80414665 Ry
     Harris-Foulkes estimate   =    -585.80414665 Ry
     estimated scf accuracy    <          6.9E-09 Ry

     iteration # 23     ecut=    50.00 Ry     beta=0.60
     Davidson diagonalization with overlap
     ethr =  1.11E-11,  avg # of iterations =  1.0

     total cpu time spent up to now is    10099.9 secs

     total energy              =    -585.80414665 Ry
     Harris-Foulkes estimate   =    -585.80414665 Ry
     estimated scf accuracy    <          3.3E-09 Ry

     iteration # 24     ecut=    50.00 Ry     beta=0.60
     Davidson diagonalization with overlap
     ethr =  5.27E-12,  avg # of iterations =  4.0

     total cpu time spent up to now is    10175.0 secs

     total energy              =    -585.80414665 Ry
     Harris-Foulkes estimate   =    -585.80414665 Ry
     estimated scf accuracy    <          3.1E-09 Ry

     iteration # 25     ecut=    50.00 Ry     beta=0.60
     Davidson diagonalization with overlap
     ethr =  5.03E-12,  avg # of iterations =  1.0

     total cpu time spent up to now is    10230.3 secs

     total energy              =    -585.80414665 Ry
     Harris-Foulkes estimate   =    -585.80414665 Ry
     estimated scf accuracy    <          7.2E-10 Ry

     iteration # 26     ecut=    50.00 Ry     beta=0.60
     Davidson diagonalization with overlap
     ethr =  1.15E-12,  avg # of iterations =  3.4

     total cpu time spent up to now is    10296.9 secs

     End of self-consistent calculation

     Number of k-points >= 100: set verbosity='high' to print the bands.

     the Fermi energy is    15.2255 ev

!    total energy              =    -585.80414665 Ry
     Harris-Foulkes estimate   =    -585.80414665 Ry
     estimated scf accuracy    <          4.0E-11 Ry

     The total energy is the sum of the following terms:

     one-electron contribution =    -155.25428608 Ry
     hartree contribution      =     102.88822636 Ry
     xc contribution           =     -80.50228088 Ry
     ewald contribution        =    -452.93469166 Ry
     smearing contrib. (-TS)   =      -0.00111440 Ry

     convergence has been achieved in  26 iterations

     Forces acting on atoms (Ry/au):

     atom    1 type  2   force =     0.00349523   -0.00349523   -0.00349523
     atom    2 type  2   force =    -0.00000000   -0.00000000    0.00000000
     atom    3 type  2   force =    -0.00349523    0.00349523    0.00349523
     atom    4 type  1   force =    -0.00724673    0.00724673    0.00724673
     atom    5 type  1   force =     0.00724673   -0.00724673   -0.00724673

     Total force =     0.019708     Total SCF correction =     0.000006


     entering subroutine stress ...

          total   stress  (Ry/bohr**3)                   (kbar)     P=   -5.85
  -0.00003980   0.00002859   0.00002859         -5.85      4.21      4.21
   0.00002859  -0.00003980  -0.00002859          4.21     -5.85     -4.21
   0.00002859  -0.00002859  -0.00003980          4.21     -4.21     -5.85


     number of scf cycles    =   4
     number of bfgs steps    =   3

     enthalpy old            =    -585.8003395981 Ry
     enthalpy new            =    -585.8041466528 Ry

     CASE: enthalpy_new < enthalpy_old

     new trust radius        =       0.0110252955 bohr
     new conv_thr            =            1.0E-10 Ry

     new unit-cell volume =    588.15490 a.u.^3 (    87.15556 Ang^3 )

CELL_PARAMETERS (alat=  1.88972599)
  -1.612358988   1.612358988   4.889682964
  -1.612358988   4.889682964   1.612358988
  -4.889682964   1.612358988   1.612358988

ATOMIC_POSITIONS (angstrom)
Ti      -3.232695145   3.232695145   3.232695145
Ti      -4.868640564   4.868640564   4.868640564
Ti      -6.504585983   6.504585983   6.504585983
Nb      -8.131416521   8.131416521   8.131416521
Nb      -1.605864607   1.605864607   1.605864607


     NEW-OLD atomic charge density approx. for the potential
     extrapolated charge   61.77615, renormalised to   62.00000

     total cpu time spent up to now is    10329.8 secs

     per-process dynamical memory:   228.6 Mb

     Self-consistent Calculation

     iteration #  1     ecut=    50.00 Ry     beta=0.60
     Davidson diagonalization with overlap
     ethr =  1.00E-06,  avg # of iterations =  5.3

     total cpu time spent up to now is    10475.7 secs

     total energy              =    -585.79874235 Ry
     Harris-Foulkes estimate   =    -586.20632000 Ry
     estimated scf accuracy    <       0.00511456 Ry

     iteration #  2     ecut=    50.00 Ry     beta=0.60
     Davidson diagonalization with overlap
     ethr =  8.25E-06,  avg # of iterations =  5.4

     total cpu time spent up to now is    10610.1 secs

     total energy              =    -585.79795498 Ry
     Harris-Foulkes estimate   =    -585.81478557 Ry
     estimated scf accuracy    <       0.09969817 Ry

     iteration #  3     ecut=    50.00 Ry     beta=0.60
     Davidson diagonalization with overlap
     ethr =  8.25E-06,  avg # of iterations =  5.3

     total cpu time spent up to now is    10710.3 secs

     total energy              =    -585.80369408 Ry
     Harris-Foulkes estimate   =    -585.80619637 Ry
     estimated scf accuracy    <       0.00944030 Ry

     iteration #  4     ecut=    50.00 Ry     beta=0.60
     Davidson diagonalization with overlap
     ethr =  8.25E-06,  avg # of iterations =  5.5

     total cpu time spent up to now is    10791.3 secs

     total energy              =    -585.80419351 Ry
     Harris-Foulkes estimate   =    -585.80570144 Ry
     estimated scf accuracy    <       0.01163838 Ry

     iteration #  5     ecut=    50.00 Ry     beta=0.60
     Davidson diagonalization with overlap
     ethr =  8.25E-06,  avg # of iterations =  2.2

     total cpu time spent up to now is    10846.6 secs

     total energy              =    -585.80464113 Ry
     Harris-Foulkes estimate   =    -585.80475222 Ry
     estimated scf accuracy    <       0.00174813 Ry

     iteration #  6     ecut=    50.00 Ry     beta=0.60
     Davidson diagonalization with overlap
     ethr =  2.82E-06,  avg # of iterations =  4.8

     total cpu time spent up to now is    10917.4 secs

     total energy              =    -585.80459056 Ry
     Harris-Foulkes estimate   =    -585.80483573 Ry
     estimated scf accuracy    <       0.00141254 Ry

     iteration #  7     ecut=    50.00 Ry     beta=0.60
     Davidson diagonalization with overlap
     ethr =  2.28E-06,  avg # of iterations =  1.4

     total cpu time spent up to now is    10971.2 secs

     total energy              =    -585.80453704 Ry
     Harris-Foulkes estimate   =    -585.80463135 Ry
     estimated scf accuracy    <       0.00058743 Ry

     iteration #  8     ecut=    50.00 Ry     beta=0.60
     Davidson diagonalization with overlap
     ethr =  9.47E-07,  avg # of iterations =  3.0

     total cpu time spent up to now is    11035.6 secs

     total energy              =    -585.80458509 Ry
     Harris-Foulkes estimate   =    -585.80459843 Ry
     estimated scf accuracy    <       0.00009279 Ry

     iteration #  9     ecut=    50.00 Ry     beta=0.60
     Davidson diagonalization with overlap
     ethr =  1.50E-07,  avg # of iterations =  4.1

     total cpu time spent up to now is    11113.1 secs

     total energy              =    -585.80460059 Ry
     Harris-Foulkes estimate   =    -585.80460665 Ry
     estimated scf accuracy    <       0.00005503 Ry

     iteration # 10     ecut=    50.00 Ry     beta=0.60
     Davidson diagonalization with overlap
     ethr =  8.88E-08,  avg # of iterations =  1.0

     total cpu time spent up to now is    11166.0 secs

     total energy              =    -585.80460136 Ry
     Harris-Foulkes estimate   =    -585.80460211 Ry
     estimated scf accuracy    <       0.00001787 Ry

     iteration # 11     ecut=    50.00 Ry     beta=0.60
     Davidson diagonalization with overlap
     ethr =  2.88E-08,  avg # of iterations =  2.7

     total cpu time spent up to now is    11223.4 secs

     total energy              =    -585.80460075 Ry
     Harris-Foulkes estimate   =    -585.80460200 Ry
     estimated scf accuracy    <       0.00000780 Ry

     iteration # 12     ecut=    50.00 Ry     beta=0.60
     Davidson diagonalization with overlap
     ethr =  1.26E-08,  avg # of iterations =  4.1

     total cpu time spent up to now is    11298.2 secs

     total energy              =    -585.80460209 Ry
     Harris-Foulkes estimate   =    -585.80460270 Ry
     estimated scf accuracy    <       0.00000594 Ry

     iteration # 13     ecut=    50.00 Ry     beta=0.60
     Davidson diagonalization with overlap
     ethr =  9.57E-09,  avg # of iterations =  1.0

     total cpu time spent up to now is    11351.1 secs

     total energy              =    -585.80460196 Ry
     Harris-Foulkes estimate   =    -585.80460226 Ry
     estimated scf accuracy    <       0.00000276 Ry

     iteration # 14     ecut=    50.00 Ry     beta=0.60
     Davidson diagonalization with overlap
     ethr =  4.46E-09,  avg # of iterations =  3.1

     total cpu time spent up to now is    11415.9 secs

     total energy              =    -585.80460206 Ry
     Harris-Foulkes estimate   =    -585.80460225 Ry
     estimated scf accuracy    <       0.00000155 Ry

     iteration # 15     ecut=    50.00 Ry     beta=0.60
     Davidson diagonalization with overlap
     ethr =  2.50E-09,  avg # of iterations =  1.4

     total cpu time spent up to now is    11469.7 secs

     total energy              =    -585.80460212 Ry
     Harris-Foulkes estimate   =    -585.80460213 Ry
     estimated scf accuracy    <       0.00000013 Ry

     iteration # 16     ecut=    50.00 Ry     beta=0.60
     Davidson diagonalization with overlap
     ethr =  2.11E-10,  avg # of iterations =  4.5

     total cpu time spent up to now is    11552.4 secs

     total energy              =    -585.80460215 Ry
     Harris-Foulkes estimate   =    -585.80460217 Ry
     estimated scf accuracy    <       0.00000014 Ry

     iteration # 17     ecut=    50.00 Ry     beta=0.60
     Davidson diagonalization with overlap
     ethr =  2.11E-10,  avg # of iterations =  2.7

     total cpu time spent up to now is    11615.2 secs

     End of self-consistent calculation

     Number of k-points >= 100: set verbosity='high' to print the bands.

     the Fermi energy is    15.2907 ev

!    total energy              =    -585.80460216 Ry
     Harris-Foulkes estimate   =    -585.80460216 Ry
     estimated scf accuracy    <          9.3E-11 Ry

     The total energy is the sum of the following terms:

     one-electron contribution =    -154.46023287 Ry
     hartree contribution      =     102.66386052 Ry
     xc contribution           =     -80.52104421 Ry
     ewald contribution        =    -453.48614344 Ry
     smearing contrib. (-TS)   =      -0.00104216 Ry

     convergence has been achieved in  17 iterations

     Forces acting on atoms (Ry/au):

     atom    1 type  2   force =     0.00324082   -0.00324082   -0.00324082
     atom    2 type  2   force =     0.00000000    0.00000000    0.00000000
     atom    3 type  2   force =    -0.00324082    0.00324082    0.00324082
     atom    4 type  1   force =    -0.00703719    0.00703719    0.00703719
     atom    5 type  1   force =     0.00703719   -0.00703719   -0.00703719

     Total force =     0.018978     Total SCF correction =     0.000005


     entering subroutine stress ...

          total   stress  (Ry/bohr**3)                   (kbar)     P=   -0.75
  -0.00000506   0.00002841   0.00002841         -0.75      4.18      4.18
   0.00002841  -0.00000506  -0.00002841          4.18     -0.75     -4.18
   0.00002841  -0.00002841  -0.00000506          4.18     -4.18     -0.75


     number of scf cycles    =   5
     number of bfgs steps    =   4

     enthalpy old            =    -585.8041466528 Ry
     enthalpy new            =    -585.8046021588 Ry

     CASE: enthalpy_new < enthalpy_old


     WARNING: bfgs curvature condition failed, Theta= 0.979
     new trust radius        =       0.0164942942 bohr
     new conv_thr            =            1.0E-10 Ry

     new unit-cell volume =    586.79776 a.u.^3 (    86.95446 Ang^3 )

CELL_PARAMETERS (alat=  1.88972599)
  -1.604308404   1.604308404   4.882546452
  -1.604308404   4.882546452   1.604308404
  -4.882546452   1.604308404   1.604308404

ATOMIC_POSITIONS (angstrom)
Ti      -3.221055850   3.221055850   3.221055850
Ti      -4.854697956   4.854697956   4.854697956
Ti      -6.488340062   6.488340062   6.488340062
Nb      -8.113155028   8.113155028   8.113155028
Nb      -1.596240884   1.596240884   1.596240884


     NEW-OLD atomic charge density approx. for the potential
     extrapolated charge   61.86356, renormalised to   62.00000

     total cpu time spent up to now is    11652.3 secs

     per-process dynamical memory:   228.6 Mb

     Self-consistent Calculation

     iteration #  1     ecut=    50.00 Ry     beta=0.60
     Davidson diagonalization with overlap
     ethr =  1.00E-06,  avg # of iterations =  4.9

     total cpu time spent up to now is    11804.1 secs

     total energy              =    -585.80328997 Ry
     Harris-Foulkes estimate   =    -586.04926260 Ry
     estimated scf accuracy    <       0.00165581 Ry

     iteration #  2     ecut=    50.00 Ry     beta=0.60
     Davidson diagonalization with overlap
     c_bands:  1 eigenvalues not converged
     ethr =  2.67E-06,  avg # of iterations =  7.0

     total cpu time spent up to now is    11940.7 secs

     total energy              =    -585.80304325 Ry
     Harris-Foulkes estimate   =    -585.80791917 Ry
     estimated scf accuracy    <       0.02925934 Ry

     iteration #  3     ecut=    50.00 Ry     beta=0.60
     Davidson diagonalization with overlap
     ethr =  2.67E-06,  avg # of iterations =  5.4

     total cpu time spent up to now is    12039.9 secs

     total energy              =    -585.80480306 Ry
     Harris-Foulkes estimate   =    -585.80582944 Ry
     estimated scf accuracy    <       0.00459201 Ry

     iteration #  4     ecut=    50.00 Ry     beta=0.60
     Davidson diagonalization with overlap
     ethr =  2.67E-06,  avg # of iterations =  5.5

     total cpu time spent up to now is    12120.8 secs

     total energy              =    -585.80506404 Ry
     Harris-Foulkes estimate   =    -585.80543655 Ry
     estimated scf accuracy    <       0.00220337 Ry

     iteration #  5     ecut=    50.00 Ry     beta=0.60
     Davidson diagonalization with overlap
     ethr =  2.67E-06,  avg # of iterations =  2.6

     total cpu time spent up to now is    12177.5 secs

     total energy              =    -585.80515147 Ry
     Harris-Foulkes estimate   =    -585.80523419 Ry
     estimated scf accuracy    <       0.00039778 Ry

     iteration #  6     ecut=    50.00 Ry     beta=0.60
     Davidson diagonalization with overlap
     ethr =  6.42E-07,  avg # of iterations =  4.2

     total cpu time spent up to now is    12250.9 secs

     total energy              =    -585.80514701 Ry
     Harris-Foulkes estimate   =    -585.80522041 Ry
     estimated scf accuracy    <       0.00035458 Ry

     iteration #  7     ecut=    50.00 Ry     beta=0.60
     Davidson diagonalization with overlap
     ethr =  5.72E-07,  avg # of iterations =  2.0

[...]


     bfgs converged in  19 scf cycles and  18 bfgs steps
     (criteria: energy <  1.0E-10, force <  1.0E-05, cell <  1.0E-03)

     End of BFGS Geometry Optimization

     Final enthalpy =    -585.8080248238 Ry
Begin final coordinates
     new unit-cell volume =    589.97059 a.u.^3 (    87.42462 Ang^3 )

CELL_PARAMETERS (alat=  1.88972599)
  -1.560979470   1.560979470   4.868679947
  -1.560979470   4.868679947   1.560979470
  -4.868679947   1.560979470   1.560979470

ATOMIC_POSITIONS (angstrom)
Ti      -3.163594157   3.163594157   3.163594157
Ti      -4.794383332   4.794383332   4.794383332
Ti      -6.425172508   6.425172508   6.425172508
Nb      -8.050080172   8.050080172   8.050080172
Nb      -1.538686492   1.538686492   1.538686492
End final coordinates



     A final scf calculation at the relaxed structure.
     The G-vectors are recalculated for the final unit cell
     Results may differ from those at the preceding step.

   Info: using nr1, nr2, nr3 values from input

   Info: using nr1, nr2, nr3 values from input

     Parallelization info
     --------------------
     sticks:   dense  smooth     PW     G-vecs:    dense   smooth      PW
     Min         797     317     98                27851     7029    1202
     Max         798     318     99                27852     7030    1203
     Sum        3191    1271    393               111405    28119    4809



     bravais-lattice index     =            0
     lattice parameter (alat)  =       1.8897  a.u.
     unit-cell volume          =     589.9706 (a.u.)^3
     number of atoms/cell      =            5
     number of atomic types    =            2
     number of electrons       =        62.00
     number of Kohn-Sham states=           37
     kinetic-energy cutoff     =      50.0000  Ry
     charge density cutoff     =     500.0000  Ry
     convergence threshold     =      1.1E-12
     mixing beta               =       0.6000
     number of iterations used =            8  plain     mixing
     Exchange-correlation      = SLA  PW   PBE  PBE ( 1  4  3  4 0 0)

     celldm(1)=   1.889726  celldm(2)=   0.000000  celldm(3)=   0.000000
     celldm(4)=   0.000000  celldm(5)=   0.000000  celldm(6)=   0.000000

     crystal axes: (cart. coord. in units of alat)
               a(1) = (  -1.560979   1.560979   4.868680 )  
               a(2) = (  -1.560979   4.868680   1.560979 )  
               a(3) = (  -4.868680   1.560979   1.560979 )  

     reciprocal axes: (cart. coord. in units 2 pi/alat)
               b(1) = (  0.059059 -0.059059  0.243265 )  
               b(2) = (  0.059059  0.243265 -0.059059 )  
               b(3) = ( -0.243265 -0.059059 -0.059059 )  


     PseudoPot. # 1 for Nb read from file:
     ./Nb.pbe-nsp-van.UPF
     MD5 check sum: 0a22fc7fb0ba19a08ca5db297a5d2854
     Pseudo is Ultrasoft + core correction, Zval = 13.0
     Generated by new atomic code, or converted to UPF format
     Using radial grid of  887 points,  6 beta functions with: 
                l(1) =   0
                l(2) =   0
                l(3) =   1
                l(4) =   1
                l(5) =   2
                l(6) =   2
     Q(r) pseudized with  6 coefficients,  rinner =    1.000   1.000   1.000
                                                       1.000   1.000

     PseudoPot. # 2 for Ti read from file:
     ./Ti.pbe-sp-van_ak.UPF
     MD5 check sum: f98fea3e8887528921fefa5636a534ca
     Pseudo is Ultrasoft, Zval = 12.0
     Generated by new atomic code, or converted to UPF format
     Using radial grid of  851 points,  6 beta functions with: 
                l(1) =   0
                l(2) =   0
                l(3) =   1
                l(4) =   1
                l(5) =   2
                l(6) =   2
     Q(r) pseudized with  8 coefficients,  rinner =    1.000   1.000   1.000
                                                       1.000   1.000

     atomic species   valence    mass     pseudopotential
        Nb            13.00    92.90638     Nb( 1.00)
        Ti            12.00    47.86700     Ti( 1.00)

     12 Sym. Ops., with inversion, found ( 6 have fractional translation)



   Cartesian axes

     site n.     atom                  positions (alat units)
         1           Ti  tau(   1) = (  -3.1635944   3.1635944   3.1635944  )
         2           Ti  tau(   2) = (  -4.7943837   4.7943837   4.7943837  )
         3           Ti  tau(   3) = (  -6.4251730   6.4251730   6.4251730  )
         4           Nb  tau(   4) = (  -8.0500808   8.0500808   8.0500808  )
         5           Nb  tau(   5) = (  -1.5386866   1.5386866   1.5386866  )

     number of k points=   189  Marzari-Vanderbilt smearing, width (Ry)=  0.0200

     Number of k-points >= 100: set verbosity='high' to print them.

     Dense  grid:   111405 G-vectors     FFT dimensions: (  80,  80,  80)

     Smooth grid:    28119 G-vectors     FFT dimensions: (  50,  50,  50)

     Estimated max dynamical RAM per process >     120.51Mb

     Estimated total allocated dynamical RAM >     482.04Mb

     Initial potential from superposition of free atoms

     starting charge   58.99440, renormalised to   62.00000
     Starting wfc are   56 randomized atomic wfcs

     total cpu time spent up to now is    30364.6 secs

     per-process dynamical memory:   203.9 Mb

     Self-consistent Calculation

     iteration #  1     ecut=    50.00 Ry     beta=0.60
     Davidson diagonalization with overlap
     c_bands:  1 eigenvalues not converged
     c_bands:  1 eigenvalues not converged
     c_bands:  1 eigenvalues not converged
     c_bands:  1 eigenvalues not converged
     c_bands:  1 eigenvalues not converged
     c_bands:  1 eigenvalues not converged
     c_bands:  1 eigenvalues not converged
     c_bands:  1 eigenvalues not converged
     c_bands:  1 eigenvalues not converged
     c_bands:  1 eigenvalues not converged
     c_bands:  1 eigenvalues not converged
     c_bands:  1 eigenvalues not converged
     c_bands:  1 eigenvalues not converged
     c_bands:  1 eigenvalues not converged
     c_bands:  1 eigenvalues not converged
     c_bands:  1 eigenvalues not converged
     c_bands:  1 eigenvalues not converged
     c_bands:  1 eigenvalues not converged
     c_bands:  1 eigenvalues not converged
     c_bands:  1 eigenvalues not converged
     c_bands:  1 eigenvalues not converged
     c_bands:  1 eigenvalues not converged
     c_bands:  1 eigenvalues not converged
     c_bands:  1 eigenvalues not converged
     c_bands:  1 eigenvalues not converged
     c_bands:  1 eigenvalues not converged
     c_bands:  1 eigenvalues not converged
     ethr =  1.00E-06,  avg # of iterations = 14.7

     total cpu time spent up to now is    30561.5 secs

     total energy              =    -582.16954131 Ry
     Harris-Foulkes estimate   =    -587.19254218 Ry
     estimated scf accuracy    <       6.52399149 Ry

     iteration #  2     ecut=    50.00 Ry     beta=0.60
     Davidson diagonalization with overlap
     ethr =  1.00E-02,  avg # of iterations =  4.4

     total cpu time spent up to now is    30648.0 secs

     total energy              =    -582.05922102 Ry
     Harris-Foulkes estimate   =    -592.83812629 Ry
     estimated scf accuracy    <      35.39651943 Ry

     iteration #  3     ecut=    50.00 Ry     beta=0.60
     Davidson diagonalization with overlap
     ethr =  1.00E-02,  avg # of iterations =  4.9

     total cpu time spent up to now is    30719.2 secs

     total energy              =    -585.76945082 Ry
     Harris-Foulkes estimate   =    -585.86883767 Ry
     estimated scf accuracy    <       0.94135912 Ry

     iteration #  4     ecut=    50.00 Ry     beta=0.60
     Davidson diagonalization with overlap
     ethr =  1.52E-03,  avg # of iterations =  5.6

     total cpu time spent up to now is    30782.5 secs

     total energy              =    -585.80011222 Ry
     Harris-Foulkes estimate   =    -585.85627076 Ry
     estimated scf accuracy    <       0.26770352 Ry

     iteration #  5     ecut=    50.00 Ry     beta=0.60
     Davidson diagonalization with overlap
     ethr =  4.32E-04,  avg # of iterations =  5.3

     total cpu time spent up to now is    30851.0 secs

     total energy              =    -585.77712505 Ry
     Harris-Foulkes estimate   =    -585.83603800 Ry
     estimated scf accuracy    <       0.38660026 Ry

     iteration #  6     ecut=    50.00 Ry     beta=0.60
     Davidson diagonalization with overlap
     ethr =  4.32E-04,  avg # of iterations =  3.6

     total cpu time spent up to now is    30906.3 secs

     total energy              =    -585.80985472 Ry
     Harris-Foulkes estimate   =    -585.82383142 Ry
     estimated scf accuracy    <       0.08986050 Ry

     iteration #  7     ecut=    50.00 Ry     beta=0.60
     Davidson diagonalization with overlap
     ethr =  1.45E-04,  avg # of iterations =  4.5

     total cpu time spent up to now is    30962.6 secs

     total energy              =    -585.80733159 Ry
     Harris-Foulkes estimate   =    -585.81521217 Ry
     estimated scf accuracy    <       0.05738275 Ry

     iteration #  8     ecut=    50.00 Ry     beta=0.60
     Davidson diagonalization with overlap
     ethr =  9.26E-05,  avg # of iterations =  2.1

     total cpu time spent up to now is    31010.6 secs

     total energy              =    -585.80279538 Ry
     Harris-Foulkes estimate   =    -585.80915511 Ry
     estimated scf accuracy    <       0.02351102 Ry

     iteration #  9     ecut=    50.00 Ry     beta=0.60
     Davidson diagonalization with overlap
     ethr =  3.79E-05,  avg # of iterations =  5.3

     total cpu time spent up to now is    31080.4 secs

     total energy              =    -585.80747483 Ry
     Harris-Foulkes estimate   =    -585.80803041 Ry
     estimated scf accuracy    <       0.00572401 Ry

     iteration # 10     ecut=    50.00 Ry     beta=0.60
     Davidson diagonalization with overlap
     ethr =  9.23E-06,  avg # of iterations =  2.7

     total cpu time spent up to now is    31130.9 secs

     total energy              =    -585.80726034 Ry
     Harris-Foulkes estimate   =    -585.80765478 Ry
     estimated scf accuracy    <       0.00326264 Ry

     iteration # 11     ecut=    50.00 Ry     beta=0.60
     Davidson diagonalization with overlap
     ethr =  5.26E-06,  avg # of iterations =  2.4

     total cpu time spent up to now is    31180.5 secs

     total energy              =    -585.80728711 Ry
     Harris-Foulkes estimate   =    -585.80741282 Ry
     estimated scf accuracy    <       0.00079830 Ry

     iteration # 12     ecut=    50.00 Ry     beta=0.60
     Davidson diagonalization with overlap
     ethr =  1.29E-06,  avg # of iterations =  5.1

     total cpu time spent up to now is    31251.1 secs

     total energy              =    -585.80744787 Ry
     Harris-Foulkes estimate   =    -585.80747845 Ry
     estimated scf accuracy    <       0.00011256 Ry

     iteration # 13     ecut=    50.00 Ry     beta=0.60
     Davidson diagonalization with overlap
     ethr =  1.82E-07,  avg # of iterations =  3.9

     total cpu time spent up to now is    31314.8 secs

     total energy              =    -585.80746435 Ry
     Harris-Foulkes estimate   =    -585.80747309 Ry
     estimated scf accuracy    <       0.00003764 Ry

     iteration # 14     ecut=    50.00 Ry     beta=0.60
     Davidson diagonalization with overlap
     ethr =  6.07E-08,  avg # of iterations =  3.1

     total cpu time spent up to now is    31370.2 secs

     total energy              =    -585.80746919 Ry
     Harris-Foulkes estimate   =    -585.80746918 Ry
     estimated scf accuracy    <       0.00000040 Ry

     iteration # 15     ecut=    50.00 Ry     beta=0.60
     Davidson diagonalization with overlap
     ethr =  6.40E-10,  avg # of iterations =  5.3

     total cpu time spent up to now is    31464.3 secs

     total energy              =    -585.80746925 Ry
     Harris-Foulkes estimate   =    -585.80747039 Ry
     estimated scf accuracy    <       0.00000656 Ry

     iteration # 16     ecut=    50.00 Ry     beta=0.60
     Davidson diagonalization with overlap
     ethr =  6.40E-10,  avg # of iterations =  5.0

     total cpu time spent up to now is    31539.8 secs

     total energy              =    -585.80746977 Ry
     Harris-Foulkes estimate   =    -585.80746977 Ry
     estimated scf accuracy    <       0.00000002 Ry

     iteration # 17     ecut=    50.00 Ry     beta=0.60
     Davidson diagonalization with overlap
     ethr =  2.78E-11,  avg # of iterations =  3.7

     total cpu time spent up to now is    31604.1 secs

     total energy              =    -585.80746976 Ry
     Harris-Foulkes estimate   =    -585.80746977 Ry
     estimated scf accuracy    <       0.00000005 Ry

     iteration # 18     ecut=    50.00 Ry     beta=0.60
     Davidson diagonalization with overlap
     ethr =  2.78E-11,  avg # of iterations =  3.6

     total cpu time spent up to now is    31663.3 secs

     total energy              =    -585.80746977 Ry
     Harris-Foulkes estimate   =    -585.80746977 Ry
     estimated scf accuracy    <          1.3E-09 Ry

     iteration # 19     ecut=    50.00 Ry     beta=0.60
     Davidson diagonalization with overlap
     ethr =  2.07E-12,  avg # of iterations =  4.9

     total cpu time spent up to now is    31737.5 secs

     total energy              =    -585.80746977 Ry
     Harris-Foulkes estimate   =    -585.80746977 Ry
     estimated scf accuracy    <          9.4E-10 Ry

     iteration # 20     ecut=    50.00 Ry     beta=0.60
     Davidson diagonalization with overlap
     ethr =  1.52E-12,  avg # of iterations =  1.0

     total cpu time spent up to now is    31783.7 secs

     total energy              =    -585.80746977 Ry
     Harris-Foulkes estimate   =    -585.80746977 Ry
     estimated scf accuracy    <          1.7E-10 Ry

     iteration # 21     ecut=    50.00 Ry     beta=0.60
     Davidson diagonalization with overlap
     ethr =  2.72E-13,  avg # of iterations =  4.0

     total cpu time spent up to now is    31850.1 secs

     total energy              =    -585.80746977 Ry
     Harris-Foulkes estimate   =    -585.80746977 Ry
     estimated scf accuracy    <          4.6E-11 Ry

     iteration # 22     ecut=    50.00 Ry     beta=0.60
     Davidson diagonalization with overlap
     ethr =  1.00E-13,  avg # of iterations =  1.0

     total cpu time spent up to now is    31896.3 secs

     total energy              =    -585.80746977 Ry
     Harris-Foulkes estimate   =    -585.80746977 Ry
     estimated scf accuracy    <          2.8E-11 Ry

     iteration # 23     ecut=    50.00 Ry     beta=0.60
     Davidson diagonalization with overlap
     ethr =  1.00E-13,  avg # of iterations =  1.0

     total cpu time spent up to now is    31942.4 secs

     total energy              =    -585.80746977 Ry
     Harris-Foulkes estimate   =    -585.80746977 Ry
     estimated scf accuracy    <          1.5E-11 Ry

     iteration # 24     ecut=    50.00 Ry     beta=0.60
     Davidson diagonalization with overlap
     ethr =  1.00E-13,  avg # of iterations =  1.0

     total cpu time spent up to now is    31988.9 secs

     total energy              =    -585.80746977 Ry
     Harris-Foulkes estimate   =    -585.80746977 Ry
     estimated scf accuracy    <          6.3E-12 Ry

     iteration # 25     ecut=    50.00 Ry     beta=0.60
     Davidson diagonalization with overlap
     ethr =  1.00E-13,  avg # of iterations =  1.0

     total cpu time spent up to now is    32035.3 secs

     total energy              =    -585.80746977 Ry
     Harris-Foulkes estimate   =    -585.80746977 Ry
     estimated scf accuracy    <          1.5E-12 Ry

     iteration # 26     ecut=    50.00 Ry     beta=0.60
     Davidson diagonalization with overlap
     ethr =  1.00E-13,  avg # of iterations =  1.0

     total cpu time spent up to now is    32081.8 secs

     End of self-consistent calculation

     Number of k-points >= 100: set verbosity='high' to print the bands.

     the Fermi energy is    15.2103 ev

!    total energy              =    -585.80746977 Ry
     Harris-Foulkes estimate   =    -585.80746977 Ry
     estimated scf accuracy    <          3.6E-14 Ry

     The total energy is the sum of the following terms:

     one-electron contribution =    -156.25783188 Ry
     hartree contribution      =     103.40091555 Ry
     xc contribution           =     -80.53441616 Ry
     ewald contribution        =    -452.41740081 Ry
     smearing contrib. (-TS)   =       0.00126354 Ry

     convergence has been achieved in  26 iterations

     Forces acting on atoms (Ry/au):

     atom    1 type  2   force =    -0.00001152    0.00001152    0.00001152
     atom    2 type  2   force =     0.00000000   -0.00000000    0.00000000
     atom    3 type  2   force =     0.00001152   -0.00001152   -0.00001152
     atom    4 type  1   force =    -0.00000294    0.00000294    0.00000294
     atom    5 type  1   force =     0.00000294   -0.00000294   -0.00000294

     Total force =     0.000029     Total SCF correction =     0.000000


     entering subroutine stress ...

          total   stress  (Ry/bohr**3)                   (kbar)     P=   -0.58
  -0.00000393  -0.00000040  -0.00000040         -0.58     -0.06     -0.06
  -0.00000040  -0.00000393   0.00000040         -0.06     -0.58      0.06
  -0.00000040   0.00000040  -0.00000393         -0.06      0.06     -0.58


     init_run     :     61.36s CPU     63.72s WALL (       2 calls)
     electrons    :  30683.44s CPU  31383.86s WALL (      20 calls)
     update_pot   :     65.34s CPU     65.83s WALL (      18 calls)
     forces       :    210.15s CPU    215.30s WALL (      20 calls)
     stress       :    349.41s CPU    360.08s WALL (      20 calls)

     Called by init_run:
     wfcinit      :     56.54s CPU     58.77s WALL (       2 calls)
     potinit      :      1.63s CPU      1.66s WALL (       2 calls)

     Called by electrons:
     c_bands      :  25922.21s CPU  26440.16s WALL (     432 calls)
     sum_band     :   4471.57s CPU   4620.31s WALL (     432 calls)
     v_of_rho     :     79.98s CPU     83.11s WALL (     445 calls)
     newd         :    200.02s CPU    231.21s WALL (     445 calls)
     mix_rho      :     13.09s CPU     13.57s WALL (     432 calls)

     Called by c_bands:
     init_us_2    :    275.41s CPU    282.73s WALL (  171234 calls)
     cegterg      :  25306.86s CPU  25811.05s WALL (   81648 calls)

     Called by sum_band:
     sum_band:bec :     10.32s CPU     10.50s WALL (   81648 calls)
     addusdens    :    276.06s CPU    317.40s WALL (     432 calls)

     Called by *egterg:
     h_psi        :  16056.31s CPU  16453.60s WALL (  345782 calls)
     s_psi        :   1955.17s CPU   1976.96s WALL (  345782 calls)
     g_psi        :     40.30s CPU     40.71s WALL (  263756 calls)
     cdiaghg      :   1396.54s CPU   1405.87s WALL (  340679 calls)

     Called by h_psi:
     h_psi:pot    :  15910.37s CPU  16303.34s WALL (  345782 calls)
     h_psi:calbec :   2281.25s CPU   2323.24s WALL (  345782 calls)
     vloc_psi     :  11822.15s CPU  12155.29s WALL (  345782 calls)
     add_vuspsi   :   1802.71s CPU   1822.21s WALL (  345782 calls)

     General routines
     calbec       :   3271.27s CPU   3330.82s WALL (  446330 calls)
     fft          :     72.68s CPU     77.43s WALL (    7586 calls)
     ffts         :      1.09s CPU      1.13s WALL (     877 calls)
     fftw         :   9004.26s CPU   9239.23s WALL (18617508 calls)
     interpolate  :     11.59s CPU     12.21s WALL (     877 calls)

     Parallel routines
     fft_scatter  :   1636.72s CPU   1693.60s WALL (18625971 calls)

     PWSCF        :     8h42m CPU        8h54m WALL


   This run was terminated on:  19:46:26   2May2018            

=------------------------------------------------------------------------------=
   JOB DONE.
=------------------------------------------------------------------------------=
