
     Program PWSCF v.6.3MaX starts on 13Jan2020 at 17:46:11 

     This program is part of the open-source Quantum ESPRESSO suite
     for quantum simulation of materials; please cite
         "P. Giannozzi et al., J. Phys.:Condens. Matter 21 395502 (2009);
         "P. Giannozzi et al., J. Phys.:Condens. Matter 29 465901 (2017);
          URL http://www.quantum-espresso.org", 
     in publications or presentations arising from this work. More details at
     http://www.quantum-espresso.org/quote

     Parallel version (MPI), running on     1 processors

     MPI processes distributed on     1 nodes
     Waiting for input...
     Reading input from standard input

     Current dimensions of program PWSCF are:
     Max number of different atomic species (ntypx) = 10
     Max number of k-points (npk) =  40000
     Max angular momentum in pseudopotentials (lmaxx) =  3
     Message from routine iosys:
     minimal I/O required, wf_collect reset to FALSE

     Subspace diagonalization in iterative solution of the eigenvalue problem:
     a serial algorithm will be used

 
     G-vector sticks info
     --------------------
     sticks:   dense  smooth     PW     G-vecs:    dense   smooth      PW
     Sum        1757     697    221                55467    13949    2469
 


     bravais-lattice index     =            0
     lattice parameter (alat)  =       1.8897  a.u.
     unit-cell volume          =     293.3367 (a.u.)^3
     number of atoms/cell      =            2
     number of atomic types    =            2
     number of electrons       =        25.00
     number of Kohn-Sham states=           17
     kinetic-energy cutoff     =      50.0000  Ry
     charge density cutoff     =     500.0000  Ry
     convergence threshold     =      1.0E-10
     mixing beta               =       0.6000
     number of iterations used =            8  plain     mixing
     Exchange-correlation      = SLA PW PBE PBE ( 1  4  3  4 0 0)
     nstep                     =           50


     celldm(1)=   1.889726  celldm(2)=   0.000000  celldm(3)=   0.000000
     celldm(4)=   0.000000  celldm(5)=   0.000000  celldm(6)=   0.000000

     crystal axes: (cart. coord. in units of alat)
               a(1) = (  -3.516063   0.000000   0.000000 )  
               a(2) = (   0.000000   0.000000   3.516063 )  
               a(3) = (   0.000000   3.516063   0.000000 )  

     reciprocal axes: (cart. coord. in units 2 pi/alat)
               b(1) = ( -0.284409  0.000000  0.000000 )  
               b(2) = (  0.000000  0.000000  0.284409 )  
               b(3) = (  0.000000  0.284409  0.000000 )  


     PseudoPot. # 1 for Nb read from file:
     /home/u16/abhishekkt/fp/krishna/calculations/pseudopotentials/Nb.pbe-nsp-van.UPF
     MD5 check sum: c44c1a86bf31974e1e832c2ec821fd5f
     Pseudo is Ultrasoft + core correction, Zval = 13.0
     Generated by new atomic code, or converted to UPF format
     Using radial grid of  887 points,  6 beta functions with: 
                l(1) =   0
                l(2) =   0
                l(3) =   1
                l(4) =   1
                l(5) =   2
                l(6) =   2
     Q(r) pseudized with  6 coefficients,  rinner =    1.000   1.000   1.000
                                                       1.000   1.000

     PseudoPot. # 2 for Ti read from file:
     /home/u16/abhishekkt/fp/krishna/calculations/pseudopotentials/Ti.pbe-sp-van_ak.UPF
     MD5 check sum: 84d3ec9e8983e94242673103c800fb48
     Pseudo is Ultrasoft, Zval = 12.0
     Generated by new atomic code, or converted to UPF format
     Using radial grid of  851 points,  6 beta functions with: 
                l(1) =   0
                l(2) =   0
                l(3) =   1
                l(4) =   1
                l(5) =   2
                l(6) =   2
     Q(r) pseudized with  8 coefficients,  rinner =    1.000   1.000   1.000
                                                       1.000   1.000

     atomic species   valence    mass     pseudopotential
        Nb            13.00    92.90638     Nb( 1.00)
        Ti            12.00    47.86700     Ti( 1.00)

     48 Sym. Ops., with inversion, found



   Cartesian axes

     site n.     atom                  positions (alat units)
         1           Ti  tau(   1) = (  -1.7580316   1.7580316   1.7580316  )
         2           Nb  tau(   2) = (  -3.5160633   3.5160633   3.5160633  )

     number of k points=   165  Marzari-Vanderbilt smearing, width (Ry)=  0.0200

     Number of k-points >= 100: set verbosity='high' to print them.

     Dense  grid:    55467 G-vectors     FFT dimensions: (  48,  48,  48)

     Smooth grid:    13949 G-vectors     FFT dimensions: (  30,  30,  30)

     Estimated max dynamical RAM per process >     280.68 MB

     Initial potential from superposition of free atoms

     starting charge   23.99722, renormalised to   25.00000
     Starting wfcs are   23 randomized atomic wfcs

     total cpu time spent up to now is        7.0 secs

     Self-consistent Calculation

     iteration #  1     ecut=    50.00 Ry     beta= 0.60
     Davidson diagonalization with overlap
     ethr =  1.00E-02,  avg # of iterations =  3.0

     total cpu time spent up to now is       15.3 secs

     total energy              =    -232.68163786 Ry
     Harris-Foulkes estimate   =    -235.11932386 Ry
     estimated scf accuracy    <       3.15224901 Ry

     iteration #  2     ecut=    50.00 Ry     beta= 0.60
     Davidson diagonalization with overlap
     ethr =  1.00E-02,  avg # of iterations =  4.5

     total cpu time spent up to now is       25.9 secs

     total energy              =    -233.50460957 Ry
     Harris-Foulkes estimate   =    -237.50762846 Ry
     estimated scf accuracy    <      11.70779374 Ry

     iteration #  3     ecut=    50.00 Ry     beta= 0.60
     Davidson diagonalization with overlap
     ethr =  1.00E-02,  avg # of iterations =  3.6

     total cpu time spent up to now is       34.8 secs

     total energy              =    -234.66798399 Ry
     Harris-Foulkes estimate   =    -234.65200743 Ry
     estimated scf accuracy    <       0.96819770 Ry

     iteration #  4     ecut=    50.00 Ry     beta= 0.60
     Davidson diagonalization with overlap
     ethr =  3.87E-03,  avg # of iterations =  2.2

     total cpu time spent up to now is       41.8 secs

     total energy              =    -234.65793080 Ry
     Harris-Foulkes estimate   =    -234.69317674 Ry
     estimated scf accuracy    <       0.90571572 Ry

     iteration #  5     ecut=    50.00 Ry     beta= 0.60
     Davidson diagonalization with overlap
     ethr =  3.62E-03,  avg # of iterations =  1.2

     total cpu time spent up to now is       48.5 secs

     total energy              =    -234.39555748 Ry
     Harris-Foulkes estimate   =    -234.66387036 Ry
     estimated scf accuracy    <       0.73895692 Ry

     iteration #  6     ecut=    50.00 Ry     beta= 0.60
     Davidson diagonalization with overlap
     ethr =  2.96E-03,  avg # of iterations =  4.3

     total cpu time spent up to now is       57.0 secs

     total energy              =    -234.65473893 Ry
     Harris-Foulkes estimate   =    -234.56725040 Ry
     estimated scf accuracy    <       0.37489465 Ry

     iteration #  7     ecut=    50.00 Ry     beta= 0.60
     Davidson diagonalization with overlap
     ethr =  1.50E-03,  avg # of iterations =  4.1

     total cpu time spent up to now is       65.5 secs

     total energy              =    -234.37861105 Ry
     Harris-Foulkes estimate   =    -234.76625839 Ry
     estimated scf accuracy    <       3.22037103 Ry

     iteration #  8     ecut=    50.00 Ry     beta= 0.60
     Davidson diagonalization with overlap
     ethr =  1.50E-03,  avg # of iterations =  4.0

     total cpu time spent up to now is       73.3 secs

     total energy              =    -234.51674600 Ry
     Harris-Foulkes estimate   =    -234.53750947 Ry
     estimated scf accuracy    <       0.13063967 Ry

     iteration #  9     ecut=    50.00 Ry     beta= 0.60
     Davidson diagonalization with overlap
     ethr =  5.23E-04,  avg # of iterations =  1.9

     total cpu time spent up to now is       80.2 secs

     total energy              =    -234.52331981 Ry
     Harris-Foulkes estimate   =    -234.52586714 Ry
     estimated scf accuracy    <       0.00693711 Ry

     iteration # 10     ecut=    50.00 Ry     beta= 0.60
     Davidson diagonalization with overlap
     ethr =  2.77E-05,  avg # of iterations =  5.6

     total cpu time spent up to now is       91.2 secs

     total energy              =    -234.52447472 Ry
     Harris-Foulkes estimate   =    -234.54269539 Ry
     estimated scf accuracy    <       0.13278437 Ry

     iteration # 11     ecut=    50.00 Ry     beta= 0.60
     Davidson diagonalization with overlap
     ethr =  2.77E-05,  avg # of iterations =  4.6

     total cpu time spent up to now is      100.5 secs

     total energy              =    -234.52994094 Ry
     Harris-Foulkes estimate   =    -234.52954168 Ry
     estimated scf accuracy    <       0.01625457 Ry

     iteration # 12     ecut=    50.00 Ry     beta= 0.60
     Davidson diagonalization with overlap
     ethr =  2.77E-05,  avg # of iterations =  1.0

     total cpu time spent up to now is      107.1 secs

     total energy              =    -234.52693582 Ry
     Harris-Foulkes estimate   =    -234.52998366 Ry
     estimated scf accuracy    <       0.01882297 Ry

     iteration # 13     ecut=    50.00 Ry     beta= 0.60
     Davidson diagonalization with overlap
     ethr =  2.77E-05,  avg # of iterations =  2.0

     total cpu time spent up to now is      114.0 secs

     total energy              =    -234.52746234 Ry
     Harris-Foulkes estimate   =    -234.52776870 Ry
     estimated scf accuracy    <       0.00232091 Ry

     iteration # 14     ecut=    50.00 Ry     beta= 0.60
     Davidson diagonalization with overlap
     ethr =  9.28E-06,  avg # of iterations =  4.0

     total cpu time spent up to now is      122.0 secs

     total energy              =    -234.52790845 Ry
     Harris-Foulkes estimate   =    -234.52795666 Ry
     estimated scf accuracy    <       0.00008326 Ry

     iteration # 15     ecut=    50.00 Ry     beta= 0.60
     Davidson diagonalization with overlap
     ethr =  3.33E-07,  avg # of iterations =  4.9

     total cpu time spent up to now is      131.4 secs

     total energy              =    -234.52784112 Ry
     Harris-Foulkes estimate   =    -234.52811588 Ry
     estimated scf accuracy    <       0.00162825 Ry

     iteration # 16     ecut=    50.00 Ry     beta= 0.60
     Davidson diagonalization with overlap
     ethr =  3.33E-07,  avg # of iterations =  4.4

     total cpu time spent up to now is      140.5 secs

     total energy              =    -234.52795415 Ry
     Harris-Foulkes estimate   =    -234.52795694 Ry
     estimated scf accuracy    <       0.00000976 Ry

     iteration # 17     ecut=    50.00 Ry     beta= 0.60
     Davidson diagonalization with overlap
     ethr =  3.90E-08,  avg # of iterations =  3.9

     total cpu time spent up to now is      148.6 secs

     total energy              =    -234.52795429 Ry
     Harris-Foulkes estimate   =    -234.52795688 Ry
     estimated scf accuracy    <       0.00000602 Ry

     iteration # 18     ecut=    50.00 Ry     beta= 0.60
     Davidson diagonalization with overlap
     ethr =  2.41E-08,  avg # of iterations =  3.9

     total cpu time spent up to now is      156.8 secs

     total energy              =    -234.52795472 Ry
     Harris-Foulkes estimate   =    -234.52795743 Ry
     estimated scf accuracy    <       0.00001312 Ry

     iteration # 19     ecut=    50.00 Ry     beta= 0.60
     Davidson diagonalization with overlap
     ethr =  2.41E-08,  avg # of iterations =  3.4

     total cpu time spent up to now is      164.5 secs

     total energy              =    -234.52795612 Ry
     Harris-Foulkes estimate   =    -234.52795615 Ry
     estimated scf accuracy    <       0.00000020 Ry

     iteration # 20     ecut=    50.00 Ry     beta= 0.60
     Davidson diagonalization with overlap
     ethr =  7.81E-10,  avg # of iterations =  3.4

     total cpu time spent up to now is      172.4 secs

     total energy              =    -234.52795617 Ry
     Harris-Foulkes estimate   =    -234.52795618 Ry
     estimated scf accuracy    <       0.00000005 Ry

     iteration # 21     ecut=    50.00 Ry     beta= 0.60
     Davidson diagonalization with overlap
     ethr =  2.17E-10,  avg # of iterations =  3.1

     total cpu time spent up to now is      179.8 secs

     total energy              =    -234.52795618 Ry
     Harris-Foulkes estimate   =    -234.52795618 Ry
     estimated scf accuracy    <          1.2E-10 Ry

     iteration # 22     ecut=    50.00 Ry     beta= 0.60
     Davidson diagonalization with overlap
     ethr =  4.86E-13,  avg # of iterations =  5.5

     total cpu time spent up to now is      190.7 secs

     total energy              =    -234.52795618 Ry
     Harris-Foulkes estimate   =    -234.52795618 Ry
     estimated scf accuracy    <          8.3E-09 Ry

     iteration # 23     ecut=    50.00 Ry     beta= 0.60
     Davidson diagonalization with overlap
     ethr =  4.86E-13,  avg # of iterations =  4.4

     total cpu time spent up to now is      199.9 secs

     total energy              =    -234.52795618 Ry
     Harris-Foulkes estimate   =    -234.52795618 Ry
     estimated scf accuracy    <          1.4E-09 Ry

     iteration # 24     ecut=    50.00 Ry     beta= 0.60
     Davidson diagonalization with overlap
     ethr =  4.86E-13,  avg # of iterations =  4.4

     total cpu time spent up to now is      208.8 secs

     total energy              =    -234.52795618 Ry
     Harris-Foulkes estimate   =    -234.52795618 Ry
     estimated scf accuracy    <          2.3E-10 Ry

     iteration # 25     ecut=    50.00 Ry     beta= 0.60
     Davidson diagonalization with overlap
     ethr =  4.86E-13,  avg # of iterations =  1.0

     total cpu time spent up to now is      215.5 secs

     total energy              =    -234.52795618 Ry
     Harris-Foulkes estimate   =    -234.52795618 Ry
     estimated scf accuracy    <          1.0E-10 Ry

     iteration # 26     ecut=    50.00 Ry     beta= 0.60
     Davidson diagonalization with overlap
     ethr =  4.14E-13,  avg # of iterations =  3.6

     total cpu time spent up to now is      223.3 secs

     End of self-consistent calculation

     Number of k-points >= 100: set verbosity='high' to print the bands.

     the Fermi energy is    12.1970 ev

!    total energy              =    -234.52795618 Ry
     Harris-Foulkes estimate   =    -234.52795618 Ry
     estimated scf accuracy    <          3.0E-11 Ry

     The total energy is the sum of the following terms:

     one-electron contribution =     -75.36800368 Ry
     hartree contribution      =      44.77772352 Ry
     xc contribution           =     -32.62238251 Ry
     ewald contribution        =    -171.31402118 Ry
     smearing contrib. (-TS)   =      -0.00127232 Ry

     convergence has been achieved in  26 iterations

     Forces acting on atoms (cartesian axes, Ry/au):

     atom    1 type  2   force =     0.00000000    0.00000000    0.00000000
     atom    2 type  1   force =     0.00000000    0.00000000    0.00000000

     Total force =     0.000000     Total SCF correction =     0.000000


     Computing stress (Cartesian axis) and pressure

          total   stress  (Ry/bohr**3)                   (kbar)     P= -202.16
  -0.00137424   0.00000000   0.00000000       -202.16      0.00      0.00
   0.00000000  -0.00137424   0.00000000          0.00   -202.16      0.00
   0.00000000   0.00000000  -0.00137424          0.00      0.00   -202.16


     BFGS Geometry Optimization

     number of scf cycles    =   1
     number of bfgs steps    =   0

     enthalpy new            =    -234.5279561787 Ry

     new trust radius        =       0.1176831541 bohr
     new conv_thr            =            1.0E-10 Ry

     new unit-cell volume =    264.13001 a.u.^3 (    39.14003 Ang^3 )
     density =      5.97239 g/cm^3

CELL_PARAMETERS (alat=  1.88972599)
  -3.395265560   0.000000000   0.000000000
   0.000000000   0.000000000   3.395265560
   0.000000000   3.395265560   0.000000000

ATOMIC_POSITIONS (angstrom)
Ti      -1.697632780   1.697632780   1.697632780
Nb      -3.395265560   3.395265560   3.395265560


     NEW-OLD atomic charge density approx. for the potential
     extrapolated charge   22.34646, renormalised to   25.00000

     total cpu time spent up to now is      235.1 secs

     Self-consistent Calculation

     iteration #  1     ecut=    50.00 Ry     beta= 0.60
     Davidson diagonalization with overlap
     ethr =  1.00E-06,  avg # of iterations = 10.0

     total cpu time spent up to now is      253.0 secs

     total energy              =    -221.36730098 Ry
     Harris-Foulkes estimate   =    -240.38173665 Ry
     estimated scf accuracy    <      14.81059886 Ry

     iteration #  2     ecut=    50.00 Ry     beta= 0.60
     Davidson diagonalization with overlap
     ethr =  1.00E-02,  avg # of iterations =  5.3

     total cpu time spent up to now is      264.5 secs

     total energy              =    -229.40628523 Ry
     Harris-Foulkes estimate   =    -250.31416441 Ry
     estimated scf accuracy    <      63.75139817 Ry

     iteration #  3     ecut=    50.00 Ry     beta= 0.60
     Davidson diagonalization with overlap
     ethr =  1.00E-02,  avg # of iterations =  3.1

     total cpu time spent up to now is      274.1 secs

     total energy              =    -235.53643643 Ry
     Harris-Foulkes estimate   =    -236.72439327 Ry
     estimated scf accuracy    <       5.57055786 Ry

     iteration #  4     ecut=    50.00 Ry     beta= 0.60
     Davidson diagonalization with overlap
     ethr =  1.00E-02,  avg # of iterations =  1.0

     total cpu time spent up to now is      280.8 secs

     total energy              =    -234.98275226 Ry
     Harris-Foulkes estimate   =    -235.60885806 Ry
     estimated scf accuracy    <       3.75553829 Ry

     iteration #  5     ecut=    50.00 Ry     beta= 0.60
     Davidson diagonalization with overlap
     ethr =  1.00E-02,  avg # of iterations =  1.2

     total cpu time spent up to now is      287.4 secs

     total energy              =    -234.89520828 Ry
     Harris-Foulkes estimate   =    -235.05143383 Ry
     estimated scf accuracy    <       2.17661324 Ry

     iteration #  6     ecut=    50.00 Ry     beta= 0.60
     Davidson diagonalization with overlap
     ethr =  8.71E-03,  avg # of iterations =  1.0

     total cpu time spent up to now is      294.1 secs

     total energy              =    -234.34475031 Ry
     Harris-Foulkes estimate   =    -234.90842496 Ry
     estimated scf accuracy    <       1.78305449 Ry

     iteration #  7     ecut=    50.00 Ry     beta= 0.60
     Davidson diagonalization with overlap
     ethr =  7.13E-03,  avg # of iterations =  3.2

     total cpu time spent up to now is      301.9 secs

     total energy              =    -234.58385877 Ry
     Harris-Foulkes estimate   =    -234.55513241 Ry
     estimated scf accuracy    <       0.03799541 Ry

     iteration #  8     ecut=    50.00 Ry     beta= 0.60
     Davidson diagonalization with overlap
     ethr =  1.52E-04,  avg # of iterations =  5.0

     total cpu time spent up to now is      312.4 secs

     total energy              =    -234.63842965 Ry
     Harris-Foulkes estimate   =    -234.63168662 Ry
     estimated scf accuracy    <       0.35604844 Ry

     iteration #  9     ecut=    50.00 Ry     beta= 0.60
     Davidson diagonalization with overlap
     ethr =  1.52E-04,  avg # of iterations =  1.0

     total cpu time spent up to now is      319.1 secs

     total energy              =    -234.57360095 Ry
     Harris-Foulkes estimate   =    -234.63859068 Ry
     estimated scf accuracy    <       0.39078375 Ry

     iteration # 10     ecut=    50.00 Ry     beta= 0.60
     Davidson diagonalization with overlap
     ethr =  1.52E-04,  avg # of iterations =  3.8

     total cpu time spent up to now is      327.3 secs

     total energy              =    -234.54395070 Ry
     Harris-Foulkes estimate   =    -234.58398566 Ry
     estimated scf accuracy    <       0.11486506 Ry

     iteration # 11     ecut=    50.00 Ry     beta= 0.60
     Davidson diagonalization with overlap
     ethr =  1.52E-04,  avg # of iterations =  4.6

     total cpu time spent up to now is      337.5 secs

     total energy              =    -234.56239001 Ry
     Harris-Foulkes estimate   =    -234.56223460 Ry
     estimated scf accuracy    <       0.00210770 Ry

     iteration # 12     ecut=    50.00 Ry     beta= 0.60
     Davidson diagonalization with overlap
     ethr =  8.43E-06,  avg # of iterations =  4.0

     total cpu time spent up to now is      345.5 secs

     total energy              =    -234.55950637 Ry
     Harris-Foulkes estimate   =    -234.56286987 Ry
     estimated scf accuracy    <       0.00737546 Ry

     iteration # 13     ecut=    50.00 Ry     beta= 0.60
     Davidson diagonalization with overlap
     ethr =  8.43E-06,  avg # of iterations =  4.6

     total cpu time spent up to now is      355.8 secs

     total energy              =    -234.56051163 Ry
     Harris-Foulkes estimate   =    -234.56376662 Ry
     estimated scf accuracy    <       0.02085612 Ry

     iteration # 14     ecut=    50.00 Ry     beta= 0.60
     Davidson diagonalization with overlap
     ethr =  8.43E-06,  avg # of iterations =  3.9

     total cpu time spent up to now is      364.2 secs

     total energy              =    -234.56129149 Ry
     Harris-Foulkes estimate   =    -234.56169933 Ry
     estimated scf accuracy    <       0.00127487 Ry

     iteration # 15     ecut=    50.00 Ry     beta= 0.60
     Davidson diagonalization with overlap
     ethr =  5.10E-06,  avg # of iterations =  3.6

     total cpu time spent up to now is      372.0 secs

     total energy              =    -234.56149953 Ry
     Harris-Foulkes estimate   =    -234.56160096 Ry
     estimated scf accuracy    <       0.00050648 Ry

     iteration # 16     ecut=    50.00 Ry     beta= 0.60
     Davidson diagonalization with overlap
     ethr =  2.03E-06,  avg # of iterations =  1.3

     total cpu time spent up to now is      378.7 secs

     total energy              =    -234.56153956 Ry
     Harris-Foulkes estimate   =    -234.56153942 Ry
     estimated scf accuracy    <       0.00002507 Ry

     iteration # 17     ecut=    50.00 Ry     beta= 0.60
     Davidson diagonalization with overlap
     ethr =  1.00E-07,  avg # of iterations =  4.0

     total cpu time spent up to now is      387.0 secs

     total energy              =    -234.56155266 Ry
     Harris-Foulkes estimate   =    -234.56155270 Ry
     estimated scf accuracy    <       0.00000040 Ry

     iteration # 18     ecut=    50.00 Ry     beta= 0.60
     Davidson diagonalization with overlap
     ethr =  1.59E-09,  avg # of iterations =  3.4

     total cpu time spent up to now is      395.6 secs

     total energy              =    -234.56155265 Ry
     Harris-Foulkes estimate   =    -234.56155280 Ry
     estimated scf accuracy    <       0.00000034 Ry

     iteration # 19     ecut=    50.00 Ry     beta= 0.60
     Davidson diagonalization with overlap
     ethr =  1.37E-09,  avg # of iterations =  3.8

     total cpu time spent up to now is      403.9 secs

     total energy              =    -234.56155289 Ry
     Harris-Foulkes estimate   =    -234.56155290 Ry
     estimated scf accuracy    <       0.00000118 Ry

     iteration # 20     ecut=    50.00 Ry     beta= 0.60
     Davidson diagonalization with overlap
     ethr =  1.37E-09,  avg # of iterations =  1.0

     total cpu time spent up to now is      410.5 secs

     total energy              =    -234.56155279 Ry
     Harris-Foulkes estimate   =    -234.56155289 Ry
     estimated scf accuracy    <       0.00000114 Ry

     iteration # 21     ecut=    50.00 Ry     beta= 0.60
     Davidson diagonalization with overlap
     ethr =  1.37E-09,  avg # of iterations =  1.0

     total cpu time spent up to now is      417.2 secs

     total energy              =    -234.56155263 Ry
     Harris-Foulkes estimate   =    -234.56155281 Ry
     estimated scf accuracy    <       0.00000055 Ry

     iteration # 22     ecut=    50.00 Ry     beta= 0.60
     Davidson diagonalization with overlap
     ethr =  1.37E-09,  avg # of iterations =  3.6

     total cpu time spent up to now is      425.3 secs

     total energy              =    -234.56155273 Ry
     Harris-Foulkes estimate   =    -234.56155282 Ry
     estimated scf accuracy    <       0.00000051 Ry

     iteration # 23     ecut=    50.00 Ry     beta= 0.60
     Davidson diagonalization with overlap
     ethr =  1.37E-09,  avg # of iterations =  1.3

     total cpu time spent up to now is      432.0 secs

     total energy              =    -234.56155276 Ry
     Harris-Foulkes estimate   =    -234.56155276 Ry
     estimated scf accuracy    <       0.00000004 Ry

     iteration # 24     ecut=    50.00 Ry     beta= 0.60
     Davidson diagonalization with overlap
     ethr =  1.67E-10,  avg # of iterations =  3.5

     total cpu time spent up to now is      439.9 secs

     total energy              =    -234.56155277 Ry
     Harris-Foulkes estimate   =    -234.56155277 Ry
     estimated scf accuracy    <          1.8E-10 Ry

     iteration # 25     ecut=    50.00 Ry     beta= 0.60
     Davidson diagonalization with overlap
     ethr =  7.32E-13,  avg # of iterations =  5.1

     total cpu time spent up to now is      449.6 secs

     total energy              =    -234.56155277 Ry
     Harris-Foulkes estimate   =    -234.56155277 Ry
     estimated scf accuracy    <          6.3E-09 Ry

     iteration # 26     ecut=    50.00 Ry     beta= 0.60
     Davidson diagonalization with overlap
     ethr =  7.32E-13,  avg # of iterations =  3.4

     total cpu time spent up to now is      457.4 secs

     total energy              =    -234.56155277 Ry
     Harris-Foulkes estimate   =    -234.56155277 Ry
     estimated scf accuracy    <          2.7E-09 Ry

     iteration # 27     ecut=    50.00 Ry     beta= 0.60
     Davidson diagonalization with overlap
     ethr =  7.32E-13,  avg # of iterations =  1.0

     total cpu time spent up to now is      464.0 secs

     total energy              =    -234.56155277 Ry
     Harris-Foulkes estimate   =    -234.56155277 Ry
     estimated scf accuracy    <          1.9E-09 Ry

     iteration # 28     ecut=    50.00 Ry     beta= 0.60
     Davidson diagonalization with overlap
     ethr =  7.32E-13,  avg # of iterations =  2.6

     total cpu time spent up to now is      471.2 secs

     total energy              =    -234.56155277 Ry
     Harris-Foulkes estimate   =    -234.56155277 Ry
     estimated scf accuracy    <          1.1E-09 Ry

     iteration # 29     ecut=    50.00 Ry     beta= 0.60
     Davidson diagonalization with overlap
     ethr =  7.32E-13,  avg # of iterations =  2.8

     total cpu time spent up to now is      478.6 secs

     total energy              =    -234.56155277 Ry
     Harris-Foulkes estimate   =    -234.56155277 Ry
     estimated scf accuracy    <          2.9E-10 Ry

     iteration # 30     ecut=    50.00 Ry     beta= 0.60
     Davidson diagonalization with overlap
     ethr =  7.32E-13,  avg # of iterations =  1.8

     total cpu time spent up to now is      485.5 secs

     End of self-consistent calculation

     Number of k-points >= 100: set verbosity='high' to print the bands.

     the Fermi energy is    13.8634 ev

!    total energy              =    -234.56155277 Ry
     Harris-Foulkes estimate   =    -234.56155277 Ry
     estimated scf accuracy    <          7.1E-11 Ry

     The total energy is the sum of the following terms:

     one-electron contribution =     -66.37762954 Ry
     hartree contribution      =      42.01329447 Ry
     xc contribution           =     -32.78689245 Ry
     ewald contribution        =    -177.40906584 Ry
     smearing contrib. (-TS)   =      -0.00125941 Ry

     convergence has been achieved in  30 iterations

     Forces acting on atoms (cartesian axes, Ry/au):

     atom    1 type  2   force =     0.00000000    0.00000000    0.00000000
     atom    2 type  1   force =     0.00000000    0.00000000    0.00000000

     Total force =     0.000000     Total SCF correction =     0.000000


     Computing stress (Cartesian axis) and pressure

          total   stress  (Ry/bohr**3)                   (kbar)     P= -129.20
  -0.00087831   0.00000000   0.00000000       -129.20      0.00      0.00
   0.00000000  -0.00087831   0.00000000          0.00   -129.20      0.00
   0.00000000   0.00000000  -0.00087831          0.00      0.00   -129.20


     number of scf cycles    =   2
     number of bfgs steps    =   1

     enthalpy old            =    -234.5279561787 Ry
     enthalpy new            =    -234.5615527730 Ry

     CASE: enthalpy_new < enthalpy_old

     new trust radius        =       0.1705795204 bohr
     new conv_thr            =            1.0E-12 Ry

     new unit-cell volume =    224.69007 a.u.^3 (    33.29563 Ang^3 )
     density =      7.02073 g/cm^3

CELL_PARAMETERS (alat=  1.88972599)
  -3.217084405   0.000000000   0.000000000
   0.000000000   0.000000000   3.217084405
   0.000000000   3.217084405   0.000000000

ATOMIC_POSITIONS (angstrom)
Ti      -1.608542202   1.608542202   1.608542202
Nb      -3.217084405   3.217084405   3.217084405


     NEW-OLD atomic charge density approx. for the potential
     extrapolated charge   20.78776, renormalised to   25.00000

     total cpu time spent up to now is      497.3 secs

     Self-consistent Calculation

     iteration #  1     ecut=    50.00 Ry     beta= 0.60
     Davidson diagonalization with overlap
     ethr =  1.00E-06,  avg # of iterations =  9.7

     total cpu time spent up to now is      515.4 secs

     total energy              =    -213.48461275 Ry
     Harris-Foulkes estimate   =    -242.89060727 Ry
     estimated scf accuracy    <      23.52621327 Ry

     iteration #  2     ecut=    50.00 Ry     beta= 0.60
     Davidson diagonalization with overlap
     ethr =  1.00E-02,  avg # of iterations =  5.3

     total cpu time spent up to now is      527.1 secs

     total energy              =    -228.80894181 Ry
     Harris-Foulkes estimate   =    -258.46537413 Ry
     estimated scf accuracy    <      86.29464222 Ry

     iteration #  3     ecut=    50.00 Ry     beta= 0.60
     Davidson diagonalization with overlap
     ethr =  1.00E-02,  avg # of iterations =  3.7

     total cpu time spent up to now is      537.4 secs

     total energy              =    -235.89602960 Ry
     Harris-Foulkes estimate   =    -237.69535732 Ry
     estimated scf accuracy    <       7.67227765 Ry

     iteration #  4     ecut=    50.00 Ry     beta= 0.60
     Davidson diagonalization with overlap
     ethr =  1.00E-02,  avg # of iterations =  1.2

     total cpu time spent up to now is      544.1 secs

     total energy              =    -234.87747288 Ry
     Harris-Foulkes estimate   =    -236.01469666 Ry
     estimated scf accuracy    <       4.70765654 Ry

     iteration #  5     ecut=    50.00 Ry     beta= 0.60
     Davidson diagonalization with overlap
     ethr =  1.00E-02,  avg # of iterations =  2.1

     total cpu time spent up to now is      551.4 secs

     total energy              =    -235.17609501 Ry
     Harris-Foulkes estimate   =    -235.04221089 Ry
     estimated scf accuracy    <       1.88330967 Ry

     iteration #  6     ecut=    50.00 Ry     beta= 0.60
     Davidson diagonalization with overlap
     ethr =  7.53E-03,  avg # of iterations =  1.0

     total cpu time spent up to now is      558.1 secs

     total energy              =    -234.89598825 Ry
     Harris-Foulkes estimate   =    -235.18800126 Ry
     estimated scf accuracy    <       2.26186180 Ry

     iteration #  7     ecut=    50.00 Ry     beta= 0.60
     Davidson diagonalization with overlap
     ethr =  7.53E-03,  avg # of iterations =  1.0

     total cpu time spent up to now is      564.7 secs

     total energy              =    -234.33705996 Ry
     Harris-Foulkes estimate   =    -234.91185370 Ry
     estimated scf accuracy    <       1.53933578 Ry

     iteration #  8     ecut=    50.00 Ry     beta= 0.60
     Davidson diagonalization with overlap
     ethr =  6.16E-03,  avg # of iterations =  3.1

     total cpu time spent up to now is      572.4 secs

     total energy              =    -234.57424131 Ry
     Harris-Foulkes estimate   =    -234.56311282 Ry
     estimated scf accuracy    <       0.03296525 Ry

     iteration #  9     ecut=    50.00 Ry     beta= 0.60
     Davidson diagonalization with overlap
     ethr =  1.32E-04,  avg # of iterations =  5.0

     total cpu time spent up to now is      583.5 secs

     total energy              =    -234.63918046 Ry
     Harris-Foulkes estimate   =    -234.64591393 Ry
     estimated scf accuracy    <       0.33547275 Ry

     iteration # 10     ecut=    50.00 Ry     beta= 0.60
     Davidson diagonalization with overlap
     ethr =  1.32E-04,  avg # of iterations =  1.0

     total cpu time spent up to now is      590.1 secs

     total energy              =    -234.43238303 Ry
     Harris-Foulkes estimate   =    -234.63933080 Ry
     estimated scf accuracy    <       0.30541690 Ry

     iteration # 11     ecut=    50.00 Ry     beta= 0.60
     Davidson diagonalization with overlap
     ethr =  1.32E-04,  avg # of iterations =  4.8

     total cpu time spent up to now is      601.7 secs

     total energy              =    -234.60922182 Ry
     Harris-Foulkes estimate   =    -234.74787874 Ry
     estimated scf accuracy    <       1.78645148 Ry

     iteration # 12     ecut=    50.00 Ry     beta= 0.60
     Davidson diagonalization with overlap
     ethr =  1.32E-04,  avg # of iterations =  4.0

     total cpu time spent up to now is      610.3 secs

     total energy              =    -234.56558881 Ry
     Harris-Foulkes estimate   =    -234.63673128 Ry
     estimated scf accuracy    <       0.59681693 Ry

     iteration # 13     ecut=    50.00 Ry     beta= 0.60
     Davidson diagonalization with overlap
     ethr =  1.32E-04,  avg # of iterations =  3.8

     total cpu time spent up to now is      618.7 secs

     total energy              =    -234.58855254 Ry
     Harris-Foulkes estimate   =    -234.58652924 Ry
     estimated scf accuracy    <       0.09458796 Ry

     iteration # 14     ecut=    50.00 Ry     beta= 0.60
     Davidson diagonalization with overlap
     ethr =  1.32E-04,  avg # of iterations =  1.0

     total cpu time spent up to now is      625.4 secs

     total energy              =    -234.56766196 Ry
     Harris-Foulkes estimate   =    -234.58871933 Ry
     estimated scf accuracy    <       0.11336839 Ry

     iteration # 15     ecut=    50.00 Ry     beta= 0.60
     Davidson diagonalization with overlap
     ethr =  1.32E-04,  avg # of iterations =  3.3

     total cpu time spent up to now is      633.0 secs

     total energy              =    -234.57368870 Ry
     Harris-Foulkes estimate   =    -234.57442702 Ry
     estimated scf accuracy    <       0.00775043 Ry

     iteration # 16     ecut=    50.00 Ry     beta= 0.60
     Davidson diagonalization with overlap
     ethr =  3.10E-05,  avg # of iterations =  2.2

     total cpu time spent up to now is      640.3 secs

     total energy              =    -234.57230039 Ry
     Harris-Foulkes estimate   =    -234.57409497 Ry
     estimated scf accuracy    <       0.00551981 Ry

     iteration # 17     ecut=    50.00 Ry     beta= 0.60
     Davidson diagonalization with overlap
     ethr =  2.21E-05,  avg # of iterations =  3.5

     total cpu time spent up to now is      648.1 secs

     total energy              =    -234.57364236 Ry
     Harris-Foulkes estimate   =    -234.57353073 Ry
     estimated scf accuracy    <       0.00082819 Ry

     iteration # 18     ecut=    50.00 Ry     beta= 0.60
     Davidson diagonalization with overlap
     ethr =  3.31E-06,  avg # of iterations =  3.4

     total cpu time spent up to now is      656.2 secs

     total energy              =    -234.57363249 Ry
     Harris-Foulkes estimate   =    -234.57370264 Ry
     estimated scf accuracy    <       0.00159619 Ry

     iteration # 19     ecut=    50.00 Ry     beta= 0.60
     Davidson diagonalization with overlap
     ethr =  3.31E-06,  avg # of iterations =  1.0

     total cpu time spent up to now is      662.8 secs

     total energy              =    -234.57347628 Ry
     Harris-Foulkes estimate   =    -234.57363696 Ry
     estimated scf accuracy    <       0.00127351 Ry

     iteration # 20     ecut=    50.00 Ry     beta= 0.60
     Davidson diagonalization with overlap
     ethr =  3.31E-06,  avg # of iterations =  1.0

     total cpu time spent up to now is      669.5 secs

     total energy              =    -234.57338112 Ry
     Harris-Foulkes estimate   =    -234.57349455 Ry
     estimated scf accuracy    <       0.00060237 Ry

     iteration # 21     ecut=    50.00 Ry     beta= 0.60
     Davidson diagonalization with overlap
     ethr =  2.41E-06,  avg # of iterations =  2.9

     total cpu time spent up to now is      676.8 secs

     total energy              =    -234.57341452 Ry
     Harris-Foulkes estimate   =    -234.57342337 Ry
     estimated scf accuracy    <       0.00005780 Ry

     iteration # 22     ecut=    50.00 Ry     beta= 0.60
     Davidson diagonalization with overlap
     ethr =  2.31E-07,  avg # of iterations =  2.9

     total cpu time spent up to now is      684.3 secs

     total energy              =    -234.57342083 Ry
     Harris-Foulkes estimate   =    -234.57342289 Ry
     estimated scf accuracy    <       0.00000843 Ry

     iteration # 23     ecut=    50.00 Ry     beta= 0.60
     Davidson diagonalization with overlap
     ethr =  3.37E-08,  avg # of iterations =  3.5

     total cpu time spent up to now is      692.5 secs

     total energy              =    -234.57342279 Ry
     Harris-Foulkes estimate   =    -234.57342292 Ry
     estimated scf accuracy    <       0.00000035 Ry

     iteration # 24     ecut=    50.00 Ry     beta= 0.60
     Davidson diagonalization with overlap
     ethr =  1.40E-09,  avg # of iterations =  3.7

     total cpu time spent up to now is      700.6 secs

     total energy              =    -234.57342292 Ry
     Harris-Foulkes estimate   =    -234.57342292 Ry
     estimated scf accuracy    <       0.00000002 Ry

     iteration # 25     ecut=    50.00 Ry     beta= 0.60
     Davidson diagonalization with overlap
     ethr =  9.54E-11,  avg # of iterations =  2.3

     total cpu time spent up to now is      707.9 secs

     total energy              =    -234.57342292 Ry
     Harris-Foulkes estimate   =    -234.57342292 Ry
     estimated scf accuracy    <          7.2E-09 Ry

     iteration # 26     ecut=    50.00 Ry     beta= 0.60
     Davidson diagonalization with overlap
     ethr =  2.88E-11,  avg # of iterations =  3.3

     total cpu time spent up to now is      715.7 secs

     total energy              =    -234.57342292 Ry
     Harris-Foulkes estimate   =    -234.57342292 Ry
     estimated scf accuracy    <          8.9E-10 Ry

     iteration # 27     ecut=    50.00 Ry     beta= 0.60
     Davidson diagonalization with overlap
     ethr =  3.54E-12,  avg # of iterations =  2.8

     total cpu time spent up to now is      723.0 secs

     total energy              =    -234.57342292 Ry
     Harris-Foulkes estimate   =    -234.57342292 Ry
     estimated scf accuracy    <          1.4E-11 Ry

     iteration # 28     ecut=    50.00 Ry     beta= 0.60
     Davidson diagonalization with overlap
     ethr =  1.00E-13,  avg # of iterations =  3.7

     total cpu time spent up to now is      732.3 secs

     total energy              =    -234.57342292 Ry
     Harris-Foulkes estimate   =    -234.57342292 Ry
     estimated scf accuracy    <          3.7E-12 Ry

     iteration # 29     ecut=    50.00 Ry     beta= 0.60
     Davidson diagonalization with overlap
     ethr =  1.00E-13,  avg # of iterations =  1.0

     total cpu time spent up to now is      739.0 secs

     End of self-consistent calculation

     Number of k-points >= 100: set verbosity='high' to print the bands.

     the Fermi energy is    16.7682 ev

!    total energy              =    -234.57342292 Ry
     Harris-Foulkes estimate   =    -234.57342292 Ry
     estimated scf accuracy    <          9.3E-14 Ry

     The total energy is the sum of the following terms:

     one-electron contribution =     -52.12573002 Ry
     hartree contribution      =      37.87482605 Ry
     xc contribution           =     -33.08635960 Ry
     ewald contribution        =    -187.23502883 Ry
     smearing contrib. (-TS)   =      -0.00113051 Ry

     convergence has been achieved in  29 iterations

     Forces acting on atoms (cartesian axes, Ry/au):

     atom    1 type  2   force =     0.00000000    0.00000000    0.00000000
     atom    2 type  1   force =     0.00000000    0.00000000    0.00000000

     Total force =     0.000000     Total SCF correction =     0.000000


     Computing stress (Cartesian axis) and pressure

          total   stress  (Ry/bohr**3)                   (kbar)     P=   64.85
   0.00044083   0.00000000   0.00000000         64.85      0.00      0.00
   0.00000000   0.00044083   0.00000000          0.00     64.85      0.00
   0.00000000   0.00000000   0.00044083          0.00      0.00     64.85


     number of scf cycles    =   3
     number of bfgs steps    =   2

     enthalpy old            =    -234.5615527730 Ry
     enthalpy new            =    -234.5734229225 Ry

     CASE: enthalpy_new < enthalpy_old

     new trust radius        =       0.0515790673 bohr
     new conv_thr            =            1.0E-12 Ry

     new unit-cell volume =    236.48804 a.u.^3 (    35.04391 Ang^3 )
     density =      6.67048 g/cm^3

CELL_PARAMETERS (alat=  1.88972599)
  -3.272433944   0.000000000   0.000000000
   0.000000000   0.000000000   3.272433944
   0.000000000   3.272433944   0.000000000

ATOMIC_POSITIONS (angstrom)
Ti      -1.636216972   1.636216972   1.636216972
Nb      -3.272433944   3.272433944   3.272433944


     NEW-OLD atomic charge density approx. for the potential
     extrapolated charge   26.19718, renormalised to   25.00000

     total cpu time spent up to now is      750.9 secs

     Self-consistent Calculation

     iteration #  1     ecut=    50.00 Ry     beta= 0.60
     Davidson diagonalization with overlap
     ethr =  1.00E-06,  avg # of iterations = 10.3

     total cpu time spent up to now is      766.7 secs

     total energy              =    -234.30814861 Ry
     Harris-Foulkes estimate   =    -232.67193354 Ry
     estimated scf accuracy    <       0.21229966 Ry

     iteration #  2     ecut=    50.00 Ry     beta= 0.60
     Davidson diagonalization with overlap
     ethr =  8.49E-04,  avg # of iterations =  4.9

     total cpu time spent up to now is      778.7 secs

     total energy              =    -234.20857480 Ry
     Harris-Foulkes estimate   =    -235.00634250 Ry
     estimated scf accuracy    <       4.83702091 Ry

     iteration #  3     ecut=    50.00 Ry     beta= 0.60
     Davidson diagonalization with overlap
     ethr =  8.49E-04,  avg # of iterations =  4.3

     total cpu time spent up to now is      788.5 secs

     total energy              =    -234.57354559 Ry
     Harris-Foulkes estimate   =    -234.61345713 Ry
     estimated scf accuracy    <       0.11114030 Ry

     iteration #  4     ecut=    50.00 Ry     beta= 0.60
     Davidson diagonalization with overlap
     ethr =  4.45E-04,  avg # of iterations =  2.3

     total cpu time spent up to now is      795.7 secs

     total energy              =    -234.57913269 Ry
     Harris-Foulkes estimate   =    -234.58609671 Ry
     estimated scf accuracy    <       0.04391259 Ry

     iteration #  5     ecut=    50.00 Ry     beta= 0.60
     Davidson diagonalization with overlap
     ethr =  1.76E-04,  avg # of iterations =  1.7

     total cpu time spent up to now is      802.5 secs

     total energy              =    -234.57619690 Ry
     Harris-Foulkes estimate   =    -234.58064930 Ry
     estimated scf accuracy    <       0.02425747 Ry

     iteration #  6     ecut=    50.00 Ry     beta= 0.60
     Davidson diagonalization with overlap
     ethr =  9.70E-05,  avg # of iterations =  1.3

     total cpu time spent up to now is      809.3 secs

     total energy              =    -234.57535620 Ry
     Harris-Foulkes estimate   =    -234.57700599 Ry
     estimated scf accuracy    <       0.00898933 Ry

     iteration #  7     ecut=    50.00 Ry     beta= 0.60
     Davidson diagonalization with overlap
     ethr =  3.60E-05,  avg # of iterations =  2.2

     total cpu time spent up to now is      816.5 secs

     total energy              =    -234.57528122 Ry
     Harris-Foulkes estimate   =    -234.57587611 Ry
     estimated scf accuracy    <       0.00262397 Ry

     iteration #  8     ecut=    50.00 Ry     beta= 0.60
     Davidson diagonalization with overlap
     ethr =  1.05E-05,  avg # of iterations =  2.9

     total cpu time spent up to now is      824.0 secs

     total energy              =    -234.57556573 Ry
     Harris-Foulkes estimate   =    -234.57553425 Ry
     estimated scf accuracy    <       0.00024273 Ry

     iteration #  9     ecut=    50.00 Ry     beta= 0.60
     Davidson diagonalization with overlap
     ethr =  9.71E-07,  avg # of iterations =  3.2

     total cpu time spent up to now is      831.6 secs

     total energy              =    -234.57562169 Ry
     Harris-Foulkes estimate   =    -234.57559153 Ry
     estimated scf accuracy    <       0.00036094 Ry

     iteration # 10     ecut=    50.00 Ry     beta= 0.60
     Davidson diagonalization with overlap
     ethr =  9.71E-07,  avg # of iterations =  1.2

     total cpu time spent up to now is      838.4 secs

     total energy              =    -234.57549941 Ry
     Harris-Foulkes estimate   =    -234.57562582 Ry
     estimated scf accuracy    <       0.00050212 Ry

     iteration # 11     ecut=    50.00 Ry     beta= 0.60
     Davidson diagonalization with overlap
     ethr =  9.71E-07,  avg # of iterations =  3.2

     total cpu time spent up to now is      846.0 secs

     total energy              =    -234.57553898 Ry
     Harris-Foulkes estimate   =    -234.57554133 Ry
     estimated scf accuracy    <       0.00001696 Ry

     iteration # 12     ecut=    50.00 Ry     beta= 0.60
     Davidson diagonalization with overlap
     ethr =  6.78E-08,  avg # of iterations =  3.3

     total cpu time spent up to now is      854.0 secs

     total energy              =    -234.57554208 Ry
     Harris-Foulkes estimate   =    -234.57554257 Ry
     estimated scf accuracy    <       0.00000269 Ry

     iteration # 13     ecut=    50.00 Ry     beta= 0.60
     Davidson diagonalization with overlap
     ethr =  1.08E-08,  avg # of iterations =  3.3

     total cpu time spent up to now is      861.7 secs

     total energy              =    -234.57554251 Ry
     Harris-Foulkes estimate   =    -234.57554249 Ry
     estimated scf accuracy    <       0.00000007 Ry

     iteration # 14     ecut=    50.00 Ry     beta= 0.60
     Davidson diagonalization with overlap
     ethr =  2.91E-10,  avg # of iterations =  4.4

     total cpu time spent up to now is      871.3 secs

     total energy              =    -234.57554227 Ry
     Harris-Foulkes estimate   =    -234.57554269 Ry
     estimated scf accuracy    <       0.00000167 Ry

     iteration # 15     ecut=    50.00 Ry     beta= 0.60
     Davidson diagonalization with overlap
     ethr =  2.91E-10,  avg # of iterations =  4.2

     total cpu time spent up to now is      880.5 secs

     total energy              =    -234.57554249 Ry
     Harris-Foulkes estimate   =    -234.57554253 Ry
     estimated scf accuracy    <       0.00000015 Ry

     iteration # 16     ecut=    50.00 Ry     beta= 0.60
     Davidson diagonalization with overlap
     ethr =  2.91E-10,  avg # of iterations =  2.7

     total cpu time spent up to now is      887.7 secs

     total energy              =    -234.57554250 Ry
     Harris-Foulkes estimate   =    -234.57554250 Ry
     estimated scf accuracy    <       0.00000002 Ry

     iteration # 17     ecut=    50.00 Ry     beta= 0.60
     Davidson diagonalization with overlap
     ethr =  7.46E-11,  avg # of iterations =  2.6

     total cpu time spent up to now is      895.0 secs

     total energy              =    -234.57554250 Ry
     Harris-Foulkes estimate   =    -234.57554250 Ry
     estimated scf accuracy    <       0.00000001 Ry

     iteration # 18     ecut=    50.00 Ry     beta= 0.60
     Davidson diagonalization with overlap
     ethr =  5.37E-11,  avg # of iterations =  1.3

     total cpu time spent up to now is      901.7 secs

     total energy              =    -234.57554250 Ry
     Harris-Foulkes estimate   =    -234.57554250 Ry
     estimated scf accuracy    <          4.2E-09 Ry

     iteration # 19     ecut=    50.00 Ry     beta= 0.60
     Davidson diagonalization with overlap
     ethr =  1.70E-11,  avg # of iterations =  3.3

     total cpu time spent up to now is      909.5 secs

     total energy              =    -234.57554250 Ry
     Harris-Foulkes estimate   =    -234.57554250 Ry
     estimated scf accuracy    <          1.4E-10 Ry

     iteration # 20     ecut=    50.00 Ry     beta= 0.60
     Davidson diagonalization with overlap
     ethr =  5.55E-13,  avg # of iterations =  3.5

     total cpu time spent up to now is      917.7 secs

     End of self-consistent calculation

     Number of k-points >= 100: set verbosity='high' to print the bands.

     the Fermi energy is    15.8024 ev

!    total energy              =    -234.57554250 Ry
     Harris-Foulkes estimate   =    -234.57554250 Ry
     estimated scf accuracy    <          7.6E-13 Ry

     The total energy is the sum of the following terms:

     one-electron contribution =     -56.68941369 Ry
     hartree contribution      =      39.16872577 Ry
     xc contribution           =     -32.98549722 Ry
     ewald contribution        =    -184.06815891 Ry
     smearing contrib. (-TS)   =      -0.00119845 Ry

     convergence has been achieved in  20 iterations

     Forces acting on atoms (cartesian axes, Ry/au):

     atom    1 type  2   force =     0.00000000    0.00000000    0.00000000
     atom    2 type  1   force =     0.00000000    0.00000000    0.00000000

     Total force =     0.000000     Total SCF correction =     0.000000


     Computing stress (Cartesian axis) and pressure

          total   stress  (Ry/bohr**3)                   (kbar)     P=   -9.19
  -0.00006246   0.00000000   0.00000000         -9.19      0.00      0.00
   0.00000000  -0.00006246   0.00000000          0.00     -9.19      0.00
   0.00000000   0.00000000  -0.00006246          0.00      0.00     -9.19


     number of scf cycles    =   4
     number of bfgs steps    =   3

     enthalpy old            =    -234.5734229225 Ry
     enthalpy new            =    -234.5755425007 Ry

     CASE: enthalpy_new < enthalpy_old

     new trust radius        =       0.0066509862 bohr
     new conv_thr            =            1.0E-12 Ry

     new unit-cell volume =    234.95715 a.u.^3 (    34.81706 Ang^3 )
     density =      6.71394 g/cm^3

CELL_PARAMETERS (alat=  1.88972599)
  -3.265357382   0.000000000   0.000000000
   0.000000000   0.000000000   3.265357382
   0.000000000   3.265357382   0.000000000

ATOMIC_POSITIONS (angstrom)
Ti      -1.632678691   1.632678691   1.632678691
Nb      -3.265357382   3.265357382   3.265357382


     NEW-OLD atomic charge density approx. for the potential
     extrapolated charge   24.84364, renormalised to   25.00000

     total cpu time spent up to now is      929.5 secs

     Self-consistent Calculation

     iteration #  1     ecut=    50.00 Ry     beta= 0.60
     Davidson diagonalization with overlap
     ethr =  1.00E-06,  avg # of iterations =  5.1

     total cpu time spent up to now is      941.6 secs

     total energy              =    -234.56793217 Ry
     Harris-Foulkes estimate   =    -234.82869338 Ry
     estimated scf accuracy    <       0.00694381 Ry

     iteration #  2     ecut=    50.00 Ry     beta= 0.60
     Davidson diagonalization with overlap
     ethr =  2.78E-05,  avg # of iterations =  4.9

     total cpu time spent up to now is      953.3 secs

     total energy              =    -234.56875854 Ry
     Harris-Foulkes estimate   =    -234.58839716 Ry
     estimated scf accuracy    <       0.09419101 Ry

     iteration #  3     ecut=    50.00 Ry     beta= 0.60
     Davidson diagonalization with overlap
     ethr =  2.78E-05,  avg # of iterations =  4.2

     total cpu time spent up to now is      962.9 secs

     total energy              =    -234.57582568 Ry
     Harris-Foulkes estimate   =    -234.57664108 Ry
     estimated scf accuracy    <       0.00319811 Ry

     iteration #  4     ecut=    50.00 Ry     beta= 0.60
     Davidson diagonalization with overlap
     ethr =  1.28E-05,  avg # of iterations =  1.0

     total cpu time spent up to now is      969.6 secs

     total energy              =    -234.57580301 Ry
     Harris-Foulkes estimate   =    -234.57595536 Ry
     estimated scf accuracy    <       0.00198139 Ry

     iteration #  5     ecut=    50.00 Ry     beta= 0.60
     Davidson diagonalization with overlap
     ethr =  7.93E-06,  avg # of iterations =  1.0

     total cpu time spent up to now is      976.2 secs

     total energy              =    -234.57551289 Ry
     Harris-Foulkes estimate   =    -234.57584117 Ry
     estimated scf accuracy    <       0.00140603 Ry

     iteration #  6     ecut=    50.00 Ry     beta= 0.60
     Davidson diagonalization with overlap
     ethr =  5.62E-06,  avg # of iterations =  1.9

     total cpu time spent up to now is      983.2 secs

     total energy              =    -234.57557947 Ry
     Harris-Foulkes estimate   =    -234.57559434 Ry
     estimated scf accuracy    <       0.00032363 Ry

     iteration #  7     ecut=    50.00 Ry     beta= 0.60
     Davidson diagonalization with overlap
     ethr =  1.29E-06,  avg # of iterations =  2.7

     total cpu time spent up to now is      990.8 secs

     total energy              =    -234.57556010 Ry
     Harris-Foulkes estimate   =    -234.57560780 Ry
     estimated scf accuracy    <       0.00014436 Ry

     iteration #  8     ecut=    50.00 Ry     beta= 0.60
     Davidson diagonalization with overlap
     ethr =  5.77E-07,  avg # of iterations =  3.8

     total cpu time spent up to now is      999.5 secs

     total energy              =    -234.57559410 Ry
     Harris-Foulkes estimate   =    -234.57560081 Ry
     estimated scf accuracy    <       0.00003095 Ry

     iteration #  9     ecut=    50.00 Ry     beta= 0.60
     Davidson diagonalization with overlap
     ethr =  1.24E-07,  avg # of iterations =  1.1

     total cpu time spent up to now is     1006.1 secs

     total energy              =    -234.57559189 Ry
     Harris-Foulkes estimate   =    -234.57559518 Ry
     estimated scf accuracy    <       0.00001067 Ry

     iteration # 10     ecut=    50.00 Ry     beta= 0.60
     Davidson diagonalization with overlap
     ethr =  4.27E-08,  avg # of iterations =  3.2

     total cpu time spent up to now is     1013.8 secs

     total energy              =    -234.57559309 Ry
     Harris-Foulkes estimate   =    -234.57559346 Ry
     estimated scf accuracy    <       0.00000123 Ry

     iteration # 11     ecut=    50.00 Ry     beta= 0.60
     Davidson diagonalization with overlap
     ethr =  4.92E-09,  avg # of iterations =  3.4

     total cpu time spent up to now is     1022.3 secs

     total energy              =    -234.57559336 Ry
     Harris-Foulkes estimate   =    -234.57559337 Ry
     estimated scf accuracy    <       0.00000202 Ry

     iteration # 12     ecut=    50.00 Ry     beta= 0.60
     Davidson diagonalization with overlap
     ethr =  4.92E-09,  avg # of iterations =  1.0

     total cpu time spent up to now is     1028.9 secs

     total energy              =    -234.57559337 Ry
     Harris-Foulkes estimate   =    -234.57559342 Ry
     estimated scf accuracy    <       0.00000220 Ry

     iteration # 13     ecut=    50.00 Ry     beta= 0.60
     Davidson diagonalization with overlap
     ethr =  4.92E-09,  avg # of iterations =  1.0

     total cpu time spent up to now is     1035.6 secs

     total energy              =    -234.57559320 Ry
     Harris-Foulkes estimate   =    -234.57559338 Ry
     estimated scf accuracy    <       0.00000189 Ry

     iteration # 14     ecut=    50.00 Ry     beta= 0.60
     Davidson diagonalization with overlap
     ethr =  4.92E-09,  avg # of iterations =  2.8

     total cpu time spent up to now is     1043.2 secs

     total energy              =    -234.57559306 Ry
     Harris-Foulkes estimate   =    -234.57559340 Ry
     estimated scf accuracy    <       0.00000084 Ry

     iteration # 15     ecut=    50.00 Ry     beta= 0.60
     Davidson diagonalization with overlap
     ethr =  3.35E-09,  avg # of iterations =  2.3

     total cpu time spent up to now is     1050.6 secs

     total energy              =    -234.57559318 Ry
     Harris-Foulkes estimate   =    -234.57559315 Ry
     estimated scf accuracy    <       0.00000014 Ry

     iteration # 16     ecut=    50.00 Ry     beta= 0.60
     Davidson diagonalization with overlap
     ethr =  5.63E-10,  avg # of iterations =  1.3

     total cpu time spent up to now is     1057.4 secs

     total energy              =    -234.57559315 Ry
     Harris-Foulkes estimate   =    -234.57559319 Ry
     estimated scf accuracy    <       0.00000031 Ry

     iteration # 17     ecut=    50.00 Ry     beta= 0.60
     Davidson diagonalization with overlap
     ethr =  5.63E-10,  avg # of iterations =  1.2

     total cpu time spent up to now is     1064.2 secs

     total energy              =    -234.57559315 Ry
     Harris-Foulkes estimate   =    -234.57559315 Ry
     estimated scf accuracy    <       0.00000017 Ry

     iteration # 18     ecut=    50.00 Ry     beta= 0.60
     Davidson diagonalization with overlap
     ethr =  5.63E-10,  avg # of iterations =  1.0

     total cpu time spent up to now is     1070.9 secs

     total energy              =    -234.57559313 Ry
     Harris-Foulkes estimate   =    -234.57559315 Ry
     estimated scf accuracy    <       0.00000016 Ry

     iteration # 19     ecut=    50.00 Ry     beta= 0.60
     Davidson diagonalization with overlap
     ethr =  5.63E-10,  avg # of iterations =  1.1

     total cpu time spent up to now is     1077.7 secs

     total energy              =    -234.57559313 Ry
     Harris-Foulkes estimate   =    -234.57559314 Ry
     estimated scf accuracy    <       0.00000010 Ry

     iteration # 20     ecut=    50.00 Ry     beta= 0.60
     Davidson diagonalization with overlap
     ethr =  4.10E-10,  avg # of iterations =  2.5

     total cpu time spent up to now is     1085.4 secs

     total energy              =    -234.57559312 Ry
     Harris-Foulkes estimate   =    -234.57559314 Ry
     estimated scf accuracy    <       0.00000003 Ry

     iteration # 21     ecut=    50.00 Ry     beta= 0.60
     Davidson diagonalization with overlap
     ethr =  1.17E-10,  avg # of iterations =  3.0

     total cpu time spent up to now is     1094.0 secs

     total energy              =    -234.57559313 Ry
     Harris-Foulkes estimate   =    -234.57559313 Ry
     estimated scf accuracy    <       0.00000002 Ry

     iteration # 22     ecut=    50.00 Ry     beta= 0.60
     Davidson diagonalization with overlap
     ethr =  7.19E-11,  avg # of iterations =  2.1

     total cpu time spent up to now is     1101.1 secs

     total energy              =    -234.57559313 Ry
     Harris-Foulkes estimate   =    -234.57559313 Ry
     estimated scf accuracy    <          3.8E-09 Ry

     iteration # 23     ecut=    50.00 Ry     beta= 0.60
     Davidson diagonalization with overlap
     ethr =  1.54E-11,  avg # of iterations =  2.2

     total cpu time spent up to now is     1108.3 secs

     total energy              =    -234.57559313 Ry
     Harris-Foulkes estimate   =    -234.57559313 Ry
     estimated scf accuracy    <          2.0E-09 Ry

     iteration # 24     ecut=    50.00 Ry     beta= 0.60
     Davidson diagonalization with overlap
     ethr =  8.17E-12,  avg # of iterations =  2.0

     total cpu time spent up to now is     1115.4 secs

     total energy              =    -234.57559313 Ry
     Harris-Foulkes estimate   =    -234.57559313 Ry
     estimated scf accuracy    <          5.1E-10 Ry

     iteration # 25     ecut=    50.00 Ry     beta= 0.60
     Davidson diagonalization with overlap
     ethr =  2.06E-12,  avg # of iterations =  2.3

     total cpu time spent up to now is     1122.6 secs

     total energy              =    -234.57559313 Ry
     Harris-Foulkes estimate   =    -234.57559313 Ry
     estimated scf accuracy    <          4.5E-11 Ry

     iteration # 26     ecut=    50.00 Ry     beta= 0.60
     Davidson diagonalization with overlap
     ethr =  1.80E-13,  avg # of iterations =  3.1

     total cpu time spent up to now is     1130.7 secs

     End of self-consistent calculation

     Number of k-points >= 100: set verbosity='high' to print the bands.

     the Fermi energy is    15.9225 ev

!    total energy              =    -234.57559313 Ry
     Harris-Foulkes estimate   =    -234.57559313 Ry
     estimated scf accuracy    <          9.2E-13 Ry

     The total energy is the sum of the following terms:

     one-electron contribution =     -56.11308946 Ry
     hartree contribution      =      39.00373452 Ry
     xc contribution           =     -32.99798197 Ry
     ewald contribution        =    -184.46706467 Ry
     smearing contrib. (-TS)   =      -0.00119155 Ry

     convergence has been achieved in  26 iterations

     Forces acting on atoms (cartesian axes, Ry/au):

     atom    1 type  2   force =     0.00000000    0.00000000    0.00000000
     atom    2 type  1   force =     0.00000000    0.00000000    0.00000000

     Total force =     0.000000     Total SCF correction =     0.000000


     Computing stress (Cartesian axis) and pressure

          total   stress  (Ry/bohr**3)                   (kbar)     P=   -0.49
  -0.00000336   0.00000000   0.00000000         -0.49      0.00      0.00
   0.00000000  -0.00000336   0.00000000          0.00     -0.49      0.00
   0.00000000   0.00000000  -0.00000336          0.00      0.00     -0.49


     number of scf cycles    =   5
     number of bfgs steps    =   4

     enthalpy old            =    -234.5755425007 Ry
     enthalpy new            =    -234.5755931302 Ry

     CASE: enthalpy_new < enthalpy_old

     new trust radius        =       0.0003762911 bohr
     new conv_thr            =            1.0E-12 Ry

     new unit-cell volume =    234.87064 a.u.^3 (    34.80424 Ang^3 )
     density =      6.71641 g/cm^3

CELL_PARAMETERS (alat=  1.88972599)
  -3.264956579   0.000000000   0.000000000
   0.000000000   0.000000000   3.264956579
   0.000000000   3.264956579   0.000000000

ATOMIC_POSITIONS (angstrom)
Ti      -1.632478290   1.632478290   1.632478290
Nb      -3.264956579   3.264956579   3.264956579


     NEW-OLD atomic charge density approx. for the potential
     extrapolated charge   24.99116, renormalised to   25.00000

     total cpu time spent up to now is     1142.5 secs

     Self-consistent Calculation

     iteration #  1     ecut=    50.00 Ry     beta= 0.60
     Davidson diagonalization with overlap
     ethr =  1.00E-06,  avg # of iterations =  2.0

     Threshold (ethr) on eigenvalues was too large:
     Diagonalizing with lowered threshold

     Davidson diagonalization with overlap
     ethr =  7.02E-08,  avg # of iterations =  1.0

     total cpu time spent up to now is     1157.7 secs

     total energy              =    -234.57557237 Ry
     Harris-Foulkes estimate   =    -234.58983791 Ry
     estimated scf accuracy    <       0.00001833 Ry

     iteration #  2     ecut=    50.00 Ry     beta= 0.60
     Davidson diagonalization with overlap
     ethr =  7.33E-08,  avg # of iterations =  4.6

     total cpu time spent up to now is     1168.2 secs

     total energy              =    -234.57557384 Ry
     Harris-Foulkes estimate   =    -234.57562603 Ry
     estimated scf accuracy    <       0.00025549 Ry

     iteration #  3     ecut=    50.00 Ry     beta= 0.60
     Davidson diagonalization with overlap
     ethr =  7.33E-08,  avg # of iterations =  3.9

     total cpu time spent up to now is     1176.9 secs

     total energy              =    -234.57559377 Ry
     Harris-Foulkes estimate   =    -234.57559612 Ry
     estimated scf accuracy    <       0.00000780 Ry

     iteration #  4     ecut=    50.00 Ry     beta= 0.60
     Davidson diagonalization with overlap
     ethr =  3.12E-08,  avg # of iterations =  1.5

     total cpu time spent up to now is     1183.7 secs

     total energy              =    -234.57559363 Ry
     Harris-Foulkes estimate   =    -234.57559424 Ry
     estimated scf accuracy    <       0.00000462 Ry

     iteration #  5     ecut=    50.00 Ry     beta= 0.60
     Davidson diagonalization with overlap
     ethr =  1.85E-08,  avg # of iterations =  1.2

     total cpu time spent up to now is     1190.5 secs

     total energy              =    -234.57559295 Ry
     Harris-Foulkes estimate   =    -234.57559376 Ry
     estimated scf accuracy    <       0.00000273 Ry

     iteration #  6     ecut=    50.00 Ry     beta= 0.60
     Davidson diagonalization with overlap
     ethr =  1.09E-08,  avg # of iterations =  2.7

     total cpu time spent up to now is     1198.0 secs

     total energy              =    -234.57559322 Ry
     Harris-Foulkes estimate   =    -234.57559327 Ry
     estimated scf accuracy    <       0.00000022 Ry

     iteration #  7     ecut=    50.00 Ry     beta= 0.60
     Davidson diagonalization with overlap
     ethr =  8.72E-10,  avg # of iterations =  3.7

     total cpu time spent up to now is     1206.7 secs

     total energy              =    -234.57559328 Ry
     Harris-Foulkes estimate   =    -234.57559330 Ry
     estimated scf accuracy    <       0.00000009 Ry

     iteration #  8     ecut=    50.00 Ry     beta= 0.60
     Davidson diagonalization with overlap
     ethr =  3.59E-10,  avg # of iterations =  1.1

     total cpu time spent up to now is     1213.4 secs

     total energy              =    -234.57559328 Ry
     Harris-Foulkes estimate   =    -234.57559328 Ry
     estimated scf accuracy    <       0.00000003 Ry

     iteration #  9     ecut=    50.00 Ry     beta= 0.60
     Davidson diagonalization with overlap
     ethr =  1.19E-10,  avg # of iterations =  1.4

     total cpu time spent up to now is     1220.2 secs

     total energy              =    -234.57559329 Ry
     Harris-Foulkes estimate   =    -234.57559328 Ry
     estimated scf accuracy    <       0.00000003 Ry

     iteration # 10     ecut=    50.00 Ry     beta= 0.60
     Davidson diagonalization with overlap
     ethr =  1.19E-10,  avg # of iterations =  1.1

     total cpu time spent up to now is     1226.9 secs

     total energy              =    -234.57559327 Ry
     Harris-Foulkes estimate   =    -234.57559329 Ry
     estimated scf accuracy    <       0.00000006 Ry

     iteration # 11     ecut=    50.00 Ry     beta= 0.60
     Davidson diagonalization with overlap
     ethr =  1.19E-10,  avg # of iterations =  3.1

     total cpu time spent up to now is     1234.4 secs

     total energy              =    -234.57559327 Ry
     Harris-Foulkes estimate   =    -234.57559328 Ry
     estimated scf accuracy    <       0.00000002 Ry

     iteration # 12     ecut=    50.00 Ry     beta= 0.60
     Davidson diagonalization with overlap
     ethr =  8.29E-11,  avg # of iterations =  3.0

     total cpu time spent up to now is     1242.8 secs

     total energy              =    -234.57559328 Ry
     Harris-Foulkes estimate   =    -234.57559327 Ry
     estimated scf accuracy    <       0.00000001 Ry

     iteration # 13     ecut=    50.00 Ry     beta= 0.60
     Davidson diagonalization with overlap
     ethr =  5.45E-11,  avg # of iterations =  2.3

     total cpu time spent up to now is     1250.2 secs

     total energy              =    -234.57559328 Ry
     Harris-Foulkes estimate   =    -234.57559328 Ry
     estimated scf accuracy    <       0.00000003 Ry

     iteration # 14     ecut=    50.00 Ry     beta= 0.60
     Davidson diagonalization with overlap
     ethr =  5.45E-11,  avg # of iterations =  1.2

     total cpu time spent up to now is     1257.0 secs

     total energy              =    -234.57559327 Ry
     Harris-Foulkes estimate   =    -234.57559328 Ry
     estimated scf accuracy    <       0.00000004 Ry

     iteration # 15     ecut=    50.00 Ry     beta= 0.60
     Davidson diagonalization with overlap
     ethr =  5.45E-11,  avg # of iterations =  2.4

     total cpu time spent up to now is     1264.2 secs

     total energy              =    -234.57559328 Ry
     Harris-Foulkes estimate   =    -234.57559327 Ry
     estimated scf accuracy    <          8.1E-09 Ry

     iteration # 16     ecut=    50.00 Ry     beta= 0.60
     Davidson diagonalization with overlap
     ethr =  3.23E-11,  avg # of iterations =  3.5

     total cpu time spent up to now is     1272.3 secs

     total energy              =    -234.57559327 Ry
     Harris-Foulkes estimate   =    -234.57559328 Ry
     estimated scf accuracy    <       0.00000005 Ry

     iteration # 17     ecut=    50.00 Ry     beta= 0.60
     Davidson diagonalization with overlap
     ethr =  3.23E-11,  avg # of iterations =  3.7

     total cpu time spent up to now is     1281.0 secs

     total energy              =    -234.57559327 Ry
     Harris-Foulkes estimate   =    -234.57559327 Ry
     estimated scf accuracy    <          1.2E-09 Ry

     iteration # 18     ecut=    50.00 Ry     beta= 0.60
     Davidson diagonalization with overlap
     ethr =  4.98E-12,  avg # of iterations =  3.2

     total cpu time spent up to now is     1288.7 secs

     total energy              =    -234.57559327 Ry
     Harris-Foulkes estimate   =    -234.57559327 Ry
     estimated scf accuracy    <          2.7E-09 Ry

     iteration # 19     ecut=    50.00 Ry     beta= 0.60
     Davidson diagonalization with overlap
     ethr =  4.98E-12,  avg # of iterations =  3.5

     total cpu time spent up to now is     1297.0 secs

     total energy              =    -234.57559327 Ry
     Harris-Foulkes estimate   =    -234.57559327 Ry
     estimated scf accuracy    <          3.6E-11 Ry

     iteration # 20     ecut=    50.00 Ry     beta= 0.60
     Davidson diagonalization with overlap
     ethr =  1.43E-13,  avg # of iterations =  2.5

     total cpu time spent up to now is     1304.4 secs

     total energy              =    -234.57559327 Ry
     Harris-Foulkes estimate   =    -234.57559327 Ry
     estimated scf accuracy    <          5.1E-11 Ry

     iteration # 21     ecut=    50.00 Ry     beta= 0.60
     Davidson diagonalization with overlap
     ethr =  1.43E-13,  avg # of iterations =  1.0

     total cpu time spent up to now is     1311.0 secs

     total energy              =    -234.57559327 Ry
     Harris-Foulkes estimate   =    -234.57559327 Ry
     estimated scf accuracy    <          4.6E-11 Ry

     iteration # 22     ecut=    50.00 Ry     beta= 0.60
     Davidson diagonalization with overlap
     ethr =  1.43E-13,  avg # of iterations =  1.0

     total cpu time spent up to now is     1317.7 secs

     total energy              =    -234.57559327 Ry
     Harris-Foulkes estimate   =    -234.57559327 Ry
     estimated scf accuracy    <          4.0E-11 Ry

     iteration # 23     ecut=    50.00 Ry     beta= 0.60
     Davidson diagonalization with overlap
     ethr =  1.43E-13,  avg # of iterations =  1.5

     total cpu time spent up to now is     1324.5 secs

     total energy              =    -234.57559327 Ry
     Harris-Foulkes estimate   =    -234.57559327 Ry
     estimated scf accuracy    <          1.1E-10 Ry

     iteration # 24     ecut=    50.00 Ry     beta= 0.60
     Davidson diagonalization with overlap
     ethr =  1.43E-13,  avg # of iterations =  1.0

     total cpu time spent up to now is     1331.2 secs

     total energy              =    -234.57559327 Ry
     Harris-Foulkes estimate   =    -234.57559327 Ry
     estimated scf accuracy    <          6.3E-11 Ry

     iteration # 25     ecut=    50.00 Ry     beta= 0.60
     Davidson diagonalization with overlap
     ethr =  1.43E-13,  avg # of iterations =  1.3

     total cpu time spent up to now is     1338.0 secs

     total energy              =    -234.57559327 Ry
     Harris-Foulkes estimate   =    -234.57559327 Ry
     estimated scf accuracy    <          2.0E-11 Ry

     iteration # 26     ecut=    50.00 Ry     beta= 0.60
     Davidson diagonalization with overlap
     ethr =  1.00E-13,  avg # of iterations =  3.3

     total cpu time spent up to now is     1346.0 secs

     total energy              =    -234.57559327 Ry
     Harris-Foulkes estimate   =    -234.57559327 Ry
     estimated scf accuracy    <          4.4E-11 Ry

     iteration # 27     ecut=    50.00 Ry     beta= 0.60
     Davidson diagonalization with overlap
     ethr =  1.00E-13,  avg # of iterations =  3.3

     total cpu time spent up to now is     1353.8 secs

     total energy              =    -234.57559327 Ry
     Harris-Foulkes estimate   =    -234.57559327 Ry
     estimated scf accuracy    <          6.4E-12 Ry

     iteration # 28     ecut=    50.00 Ry     beta= 0.60
     Davidson diagonalization with overlap
     ethr =  1.00E-13,  avg # of iterations =  1.0

     total cpu time spent up to now is     1360.5 secs

     total energy              =    -234.57559327 Ry
     Harris-Foulkes estimate   =    -234.57559327 Ry
     estimated scf accuracy    <          1.7E-12 Ry

     iteration # 29     ecut=    50.00 Ry     beta= 0.60
     Davidson diagonalization with overlap
     ethr =  1.00E-13,  avg # of iterations =  1.0

     total cpu time spent up to now is     1367.1 secs

     End of self-consistent calculation

     Number of k-points >= 100: set verbosity='high' to print the bands.

     the Fermi energy is    15.9293 ev

!    total energy              =    -234.57559327 Ry
     Harris-Foulkes estimate   =    -234.57559327 Ry
     estimated scf accuracy    <          4.6E-14 Ry

     The total energy is the sum of the following terms:

     one-electron contribution =     -56.08039056 Ry
     hartree contribution      =      38.99439193 Ry
     xc contribution           =     -32.99869385 Ry
     ewald contribution        =    -184.48970964 Ry
     smearing contrib. (-TS)   =      -0.00119115 Ry

     convergence has been achieved in  29 iterations

     Forces acting on atoms (cartesian axes, Ry/au):

     atom    1 type  2   force =     0.00000000    0.00000000    0.00000000
     atom    2 type  1   force =     0.00000000    0.00000000    0.00000000

     Total force =     0.000000     Total SCF correction =     0.000000


     Computing stress (Cartesian axis) and pressure

          total   stress  (Ry/bohr**3)                   (kbar)     P=    0.01
   0.00000006   0.00000000   0.00000000          0.01      0.00      0.00
   0.00000000   0.00000006   0.00000000          0.00      0.01      0.00
   0.00000000   0.00000000   0.00000006          0.00      0.00      0.01


     number of scf cycles    =   6
     number of bfgs steps    =   5

     enthalpy old            =    -234.5755931302 Ry
     enthalpy new            =    -234.5755932723 Ry

     CASE: enthalpy_new < enthalpy_old

     small trust_radius: resetting bfgs history

     new trust radius        =       0.0000045438 bohr
     new conv_thr            =            1.0E-12 Ry

     new unit-cell volume =    234.87169 a.u.^3 (    34.80439 Ang^3 )
     density =      6.71638 g/cm^3

CELL_PARAMETERS (alat=  1.88972599)
  -3.264961419   0.000000000   0.000000000
   0.000000000   0.000000000   3.264961419
   0.000000000   3.264961419   0.000000000

ATOMIC_POSITIONS (angstrom)
Ti      -1.632480710   1.632480710   1.632480710
Nb      -3.264961419   3.264961419   3.264961419


     NEW-OLD atomic charge density approx. for the potential
     extrapolated charge   25.00011, renormalised to   25.00000

     total cpu time spent up to now is     1378.9 secs

     Self-consistent Calculation

     iteration #  1     ecut=    50.00 Ry     beta= 0.60
     Davidson diagonalization with overlap
     ethr =  1.00E-06,  avg # of iterations =  2.0

     Threshold (ethr) on eigenvalues was too large:
     Diagonalizing with lowered threshold

     Davidson diagonalization with overlap
     ethr =  1.04E-11,  avg # of iterations =  1.2

     total cpu time spent up to now is     1393.5 secs

     total energy              =    -234.57559327 Ry
     Harris-Foulkes estimate   =    -234.57542131 Ry
     estimated scf accuracy    <          2.7E-09 Ry

     iteration #  2     ecut=    50.00 Ry     beta= 0.60
     Davidson diagonalization with overlap
     ethr =  1.09E-11,  avg # of iterations =  4.6

     total cpu time spent up to now is     1404.0 secs

     total energy              =    -234.57559327 Ry
     Harris-Foulkes estimate   =    -234.57559328 Ry
     estimated scf accuracy    <       0.00000004 Ry

     iteration #  3     ecut=    50.00 Ry     beta= 0.60
     Davidson diagonalization with overlap
     ethr =  1.09E-11,  avg # of iterations =  3.9

     total cpu time spent up to now is     1412.7 secs

     total energy              =    -234.57559327 Ry
     Harris-Foulkes estimate   =    -234.57559327 Ry
     estimated scf accuracy    <          1.1E-09 Ry

     iteration #  4     ecut=    50.00 Ry     beta= 0.60
     Davidson diagonalization with overlap
     ethr =  4.48E-12,  avg # of iterations =  1.5

     total cpu time spent up to now is     1419.5 secs

     total energy              =    -234.57559327 Ry
     Harris-Foulkes estimate   =    -234.57559327 Ry
     estimated scf accuracy    <          6.5E-10 Ry

     iteration #  5     ecut=    50.00 Ry     beta= 0.60
     Davidson diagonalization with overlap
     ethr =  2.62E-12,  avg # of iterations =  1.2

     total cpu time spent up to now is     1426.3 secs

     total energy              =    -234.57559327 Ry
     Harris-Foulkes estimate   =    -234.57559327 Ry
     estimated scf accuracy    <          3.9E-10 Ry

     iteration #  6     ecut=    50.00 Ry     beta= 0.60
     Davidson diagonalization with overlap
     ethr =  1.58E-12,  avg # of iterations =  2.7

     total cpu time spent up to now is     1433.8 secs

     total energy              =    -234.57559327 Ry
     Harris-Foulkes estimate   =    -234.57559327 Ry
     estimated scf accuracy    <          3.7E-11 Ry

     iteration #  7     ecut=    50.00 Ry     beta= 0.60
     Davidson diagonalization with overlap
     ethr =  1.47E-13,  avg # of iterations =  3.7

     total cpu time spent up to now is     1442.6 secs

     total energy              =    -234.57559327 Ry
     Harris-Foulkes estimate   =    -234.57559327 Ry
     estimated scf accuracy    <          1.4E-11 Ry

     iteration #  8     ecut=    50.00 Ry     beta= 0.60
     Davidson diagonalization with overlap
     ethr =  1.00E-13,  avg # of iterations =  1.0

     total cpu time spent up to now is     1449.2 secs

     total energy              =    -234.57559327 Ry
     Harris-Foulkes estimate   =    -234.57559327 Ry
     estimated scf accuracy    <          5.9E-12 Ry

     iteration #  9     ecut=    50.00 Ry     beta= 0.60
     Davidson diagonalization with overlap
[...]

     new unit-cell volume =    234.87192 a.u.^3 (    34.80443 Ang^3 )
     density =      6.71638 g/cm^3

CELL_PARAMETERS (alat=  1.88972599)
  -3.264962495   0.000000000   0.000000000
   0.000000000   0.000000000   3.264962495
   0.000000000   3.264962495   0.000000000

ATOMIC_POSITIONS (angstrom)
Ti      -1.632481247   1.632481247   1.632481247
Nb      -3.264962495   3.264962495   3.264962495


     NEW-OLD atomic charge density approx. for the potential
     extrapolated charge   25.00002, renormalised to   25.00000

     total cpu time spent up to now is     1487.7 secs

     Self-consistent Calculation

     iteration #  1     ecut=    50.00 Ry     beta= 0.60
     Davidson diagonalization with overlap
     ethr =  1.00E-06,  avg # of iterations =  1.0

     Threshold (ethr) on eigenvalues was too large:
     Diagonalizing with lowered threshold

     Davidson diagonalization with overlap
     ethr =  3.53E-13,  avg # of iterations =  3.0

     total cpu time spent up to now is     1501.8 secs

     total energy              =    -234.57559327 Ry
     Harris-Foulkes estimate   =    -234.57555506 Ry
     estimated scf accuracy    <          1.2E-10 Ry

     iteration #  2     ecut=    50.00 Ry     beta= 0.60
     Davidson diagonalization with overlap
     ethr =  4.99E-13,  avg # of iterations =  4.6

     total cpu time spent up to now is     1512.4 secs

     total energy              =    -234.57559327 Ry
     Harris-Foulkes estimate   =    -234.57559327 Ry
     estimated scf accuracy    <          1.7E-09 Ry

     iteration #  3     ecut=    50.00 Ry     beta= 0.60
     Davidson diagonalization with overlap
     ethr =  4.99E-13,  avg # of iterations =  3.8

     total cpu time spent up to now is     1521.1 secs

     total energy              =    -234.57559327 Ry
     Harris-Foulkes estimate   =    -234.57559327 Ry
     estimated scf accuracy    <          5.6E-11 Ry

     iteration #  4     ecut=    50.00 Ry     beta= 0.60
     Davidson diagonalization with overlap
     ethr =  2.24E-13,  avg # of iterations =  1.6

     total cpu time spent up to now is     1528.0 secs

     total energy              =    -234.57559327 Ry
     Harris-Foulkes estimate   =    -234.57559327 Ry
     estimated scf accuracy    <          3.4E-11 Ry

     iteration #  5     ecut=    50.00 Ry     beta= 0.60
     Davidson diagonalization with overlap
     ethr =  1.38E-13,  avg # of iterations =  1.3

     total cpu time spent up to now is     1534.8 secs

     total energy              =    -234.57559327 Ry
     Harris-Foulkes estimate   =    -234.57559327 Ry
     estimated scf accuracy    <          1.9E-11 Ry

     iteration #  6     ecut=    50.00 Ry     beta= 0.60
     Davidson diagonalization with overlap
     ethr =  1.00E-13,  avg # of iterations =  2.5

     total cpu time spent up to now is     1542.1 secs

     total energy              =    -234.57559327 Ry
     Harris-Foulkes estimate   =    -234.57559327 Ry
     estimated scf accuracy    <          1.1E-12 Ry

     iteration #  7     ecut=    50.00 Ry     beta= 0.60
     Davidson diagonalization with overlap
     ethr =  1.00E-13,  avg # of iterations =  1.0

     total cpu time spent up to now is     1548.8 secs

     End of self-consistent calculation

     Number of k-points >= 100: set verbosity='high' to print the bands.

     the Fermi energy is    15.9292 ev

!    total energy              =    -234.57559327 Ry
     Harris-Foulkes estimate   =    -234.57559327 Ry
     estimated scf accuracy    <          4.8E-13 Ry

     The total energy is the sum of the following terms:

     one-electron contribution =     -56.08087363 Ry
     hartree contribution      =      38.99453019 Ry
     xc contribution           =     -32.99868330 Ry
     ewald contribution        =    -184.48937538 Ry
     smearing contrib. (-TS)   =      -0.00119115 Ry

     convergence has been achieved in   7 iterations

     Forces acting on atoms (cartesian axes, Ry/au):

     atom    1 type  2   force =     0.00000000    0.00000000    0.00000000
     atom    2 type  1   force =     0.00000000    0.00000000    0.00000000

     Total force =     0.000000     Total SCF correction =     0.000000


     Computing stress (Cartesian axis) and pressure

          total   stress  (Ry/bohr**3)                   (kbar)     P=    0.00
   0.00000001   0.00000000   0.00000000          0.00      0.00      0.00
   0.00000000   0.00000001   0.00000000          0.00      0.00      0.00
   0.00000000   0.00000000   0.00000001          0.00      0.00      0.00


     bfgs converged in   8 scf cycles and   7 bfgs steps
     (criteria: energy <  1.0E-10 Ry, force <  1.0E-05Ry/Bohr, cell <  1.0E-03kbar)

     End of BFGS Geometry Optimization

     Final enthalpy =    -234.5755932723 Ry
Begin final coordinates
     new unit-cell volume =    234.87192 a.u.^3 (    34.80443 Ang^3 )
     density =      6.71638 g/cm^3

CELL_PARAMETERS (alat=  1.88972599)
  -3.264962495   0.000000000   0.000000000
   0.000000000   0.000000000   3.264962495
   0.000000000   3.264962495   0.000000000

ATOMIC_POSITIONS (angstrom)
Ti      -1.632481247   1.632481247   1.632481247
Nb      -3.264962495   3.264962495   3.264962495
End final coordinates



     A final scf calculation at the relaxed structure.
     The G-vectors are recalculated for the final unit cell
     Results may differ from those at the preceding step.
 
     G-vector sticks info
     --------------------
     sticks:   dense  smooth     PW     G-vecs:    dense   smooth      PW
     Sum        1513     593    185                44299    11075    1935
 


     bravais-lattice index     =            0
     lattice parameter (alat)  =       1.8897  a.u.
     unit-cell volume          =     234.8719 (a.u.)^3
     number of atoms/cell      =            2
     number of atomic types    =            2
     number of electrons       =        25.00
     number of Kohn-Sham states=           17
     kinetic-energy cutoff     =      50.0000  Ry
     charge density cutoff     =     500.0000  Ry
     convergence threshold     =      1.0E-12
     mixing beta               =       0.6000
     number of iterations used =            8  plain     mixing
     Exchange-correlation      = SLA PW PBE PBE ( 1  4  3  4 0 0)

     celldm(1)=   1.889726  celldm(2)=   0.000000  celldm(3)=   0.000000
     celldm(4)=   0.000000  celldm(5)=   0.000000  celldm(6)=   0.000000

     crystal axes: (cart. coord. in units of alat)
               a(1) = (  -3.264962   0.000000   0.000000 )  
               a(2) = (   0.000000   0.000000   3.264962 )  
               a(3) = (   0.000000   3.264962   0.000000 )  

     reciprocal axes: (cart. coord. in units 2 pi/alat)
               b(1) = ( -0.306282  0.000000  0.000000 )  
               b(2) = (  0.000000  0.000000  0.306282 )  
               b(3) = (  0.000000  0.306282  0.000000 )  


     PseudoPot. # 1 for Nb read from file:
     /home/u16/abhishekkt/fp/krishna/calculations/pseudopotentials/Nb.pbe-nsp-van.UPF
     MD5 check sum: c44c1a86bf31974e1e832c2ec821fd5f
     Pseudo is Ultrasoft + core correction, Zval = 13.0
     Generated by new atomic code, or converted to UPF format
     Using radial grid of  887 points,  6 beta functions with: 
                l(1) =   0
                l(2) =   0
                l(3) =   1
                l(4) =   1
                l(5) =   2
                l(6) =   2
     Q(r) pseudized with  6 coefficients,  rinner =    1.000   1.000   1.000
                                                       1.000   1.000

     PseudoPot. # 2 for Ti read from file:
     /home/u16/abhishekkt/fp/krishna/calculations/pseudopotentials/Ti.pbe-sp-van_ak.UPF
     MD5 check sum: 84d3ec9e8983e94242673103c800fb48
     Pseudo is Ultrasoft, Zval = 12.0
     Generated by new atomic code, or converted to UPF format
     Using radial grid of  851 points,  6 beta functions with: 
                l(1) =   0
                l(2) =   0
                l(3) =   1
                l(4) =   1
                l(5) =   2
                l(6) =   2
     Q(r) pseudized with  8 coefficients,  rinner =    1.000   1.000   1.000
                                                       1.000   1.000

     atomic species   valence    mass     pseudopotential
        Nb            13.00    92.90638     Nb( 1.00)
        Ti            12.00    47.86700     Ti( 1.00)

     48 Sym. Ops., with inversion, found



   Cartesian axes

     site n.     atom                  positions (alat units)
         1           Ti  tau(   1) = (  -1.6324814   1.6324814   1.6324814  )
         2           Nb  tau(   2) = (  -3.2649627   3.2649627   3.2649627  )

     number of k points=   165  Marzari-Vanderbilt smearing, width (Ry)=  0.0200

     Number of k-points >= 100: set verbosity='high' to print them.

     Dense  grid:    44299 G-vectors     FFT dimensions: (  45,  45,  45)

     Smooth grid:    11075 G-vectors     FFT dimensions: (  27,  27,  27)

     Estimated max dynamical RAM per process >     225.80 MB

     Initial potential from superposition of free atoms

     starting charge   23.99722, renormalised to   25.00000
     Starting wfcs are   23 randomized atomic wfcs

     total cpu time spent up to now is     1561.1 secs

     Self-consistent Calculation

     iteration #  1     ecut=    50.00 Ry     beta= 0.60
     Davidson diagonalization with overlap
     ethr =  1.00E-06,  avg # of iterations =  9.7

     total cpu time spent up to now is     1576.9 secs

     total energy              =    -233.29364309 Ry
     Harris-Foulkes estimate   =    -235.05314641 Ry
     estimated scf accuracy    <       2.29375467 Ry

     iteration #  2     ecut=    50.00 Ry     beta= 0.60
     Davidson diagonalization with overlap
     ethr =  9.18E-03,  avg # of iterations =  4.1

     total cpu time spent up to now is     1585.7 secs

     total energy              =    -233.77877799 Ry
     Harris-Foulkes estimate   =    -236.45617663 Ry
     estimated scf accuracy    <       7.59607591 Ry

     iteration #  3     ecut=    50.00 Ry     beta= 0.60
     Davidson diagonalization with overlap
     ethr =  9.18E-03,  avg # of iterations =  3.9

     total cpu time spent up to now is     1592.9 secs

     total energy              =    -234.66792660 Ry
     Harris-Foulkes estimate   =    -234.60645039 Ry
     estimated scf accuracy    <       0.28831950 Ry

     iteration #  4     ecut=    50.00 Ry     beta= 0.60
     Davidson diagonalization with overlap
     ethr =  1.15E-03,  avg # of iterations =  3.0

     total cpu time spent up to now is     1599.3 secs

     total energy              =    -234.48383176 Ry
     Harris-Foulkes estimate   =    -234.68551795 Ry
     estimated scf accuracy    <       0.47322615 Ry

     iteration #  5     ecut=    50.00 Ry     beta= 0.60
     Davidson diagonalization with overlap
     ethr =  1.15E-03,  avg # of iterations =  4.2

     total cpu time spent up to now is     1607.1 secs

     total energy              =    -234.56851840 Ry
     Harris-Foulkes estimate   =    -234.58354789 Ry
     estimated scf accuracy    <       0.07662165 Ry

     iteration #  6     ecut=    50.00 Ry     beta= 0.60
     Davidson diagonalization with overlap
     ethr =  3.06E-04,  avg # of iterations =  1.8

     total cpu time spent up to now is     1612.9 secs

     total energy              =    -234.57434062 Ry
     Harris-Foulkes estimate   =    -234.57385847 Ry
     estimated scf accuracy    <       0.00710794 Ry

     iteration #  7     ecut=    50.00 Ry     beta= 0.60
     Davidson diagonalization with overlap
     ethr =  2.84E-05,  avg # of iterations =  4.4

     total cpu time spent up to now is     1620.7 secs

     total energy              =    -234.57471319 Ry
     Harris-Foulkes estimate   =    -234.57667145 Ry
     estimated scf accuracy    <       0.00625508 Ry

     iteration #  8     ecut=    50.00 Ry     beta= 0.60
     Davidson diagonalization with overlap
     ethr =  2.50E-05,  avg # of iterations =  2.7

     total cpu time spent up to now is     1626.9 secs

     total energy              =    -234.57523154 Ry
     Harris-Foulkes estimate   =    -234.57530094 Ry
     estimated scf accuracy    <       0.00027113 Ry

     iteration #  9     ecut=    50.00 Ry     beta= 0.60
     Davidson diagonalization with overlap
     ethr =  1.08E-06,  avg # of iterations =  4.0

     total cpu time spent up to now is     1634.9 secs

     total energy              =    -234.57535955 Ry
     Harris-Foulkes estimate   =    -234.57536744 Ry
     estimated scf accuracy    <       0.00004286 Ry

     iteration # 10     ecut=    50.00 Ry     beta= 0.60
     Davidson diagonalization with overlap
     ethr =  1.71E-07,  avg # of iterations =  2.3

     total cpu time spent up to now is     1641.0 secs

     total energy              =    -234.57535440 Ry
     Harris-Foulkes estimate   =    -234.57536254 Ry
     estimated scf accuracy    <       0.00003178 Ry

     iteration # 11     ecut=    50.00 Ry     beta= 0.60
     Davidson diagonalization with overlap
     ethr =  1.27E-07,  avg # of iterations =  2.5

     total cpu time spent up to now is     1647.3 secs

     total energy              =    -234.57535843 Ry
     Harris-Foulkes estimate   =    -234.57535850 Ry
     estimated scf accuracy    <       0.00000018 Ry

     iteration # 12     ecut=    50.00 Ry     beta= 0.60
     Davidson diagonalization with overlap
     ethr =  7.09E-10,  avg # of iterations =  4.6

     total cpu time spent up to now is     1656.0 secs

     total energy              =    -234.57535871 Ry
     Harris-Foulkes estimate   =    -234.57535874 Ry
     estimated scf accuracy    <       0.00000009 Ry

     iteration # 13     ecut=    50.00 Ry     beta= 0.60
     Davidson diagonalization with overlap
     ethr =  3.56E-10,  avg # of iterations =  3.4

     total cpu time spent up to now is     1662.7 secs

     total energy              =    -234.57535873 Ry
     Harris-Foulkes estimate   =    -234.57535873 Ry
     estimated scf accuracy    <       0.00000003 Ry

     iteration # 14     ecut=    50.00 Ry     beta= 0.60
     Davidson diagonalization with overlap
     ethr =  1.15E-10,  avg # of iterations =  2.9

     total cpu time spent up to now is     1668.9 secs

     total energy              =    -234.57535873 Ry
     Harris-Foulkes estimate   =    -234.57535873 Ry
     estimated scf accuracy    <          6.8E-10 Ry

     iteration # 15     ecut=    50.00 Ry     beta= 0.60
     Davidson diagonalization with overlap
     ethr =  2.71E-12,  avg # of iterations =  4.2

     total cpu time spent up to now is     1676.3 secs

     total energy              =    -234.57535873 Ry
     Harris-Foulkes estimate   =    -234.57535873 Ry
     estimated scf accuracy    <          3.0E-09 Ry

     iteration # 16     ecut=    50.00 Ry     beta= 0.60
     Davidson diagonalization with overlap
     ethr =  2.71E-12,  avg # of iterations =  3.5

     total cpu time spent up to now is     1683.1 secs

     total energy              =    -234.57535873 Ry
     Harris-Foulkes estimate   =    -234.57535873 Ry
     estimated scf accuracy    <          4.4E-11 Ry

     iteration # 17     ecut=    50.00 Ry     beta= 0.60
     Davidson diagonalization with overlap
     ethr =  1.75E-13,  avg # of iterations =  2.6

     total cpu time spent up to now is     1689.7 secs

     total energy              =    -234.57535873 Ry
     Harris-Foulkes estimate   =    -234.57535873 Ry
     estimated scf accuracy    <          1.5E-11 Ry

     iteration # 18     ecut=    50.00 Ry     beta= 0.60
     Davidson diagonalization with overlap
     ethr =  1.00E-13,  avg # of iterations =  1.2

     total cpu time spent up to now is     1695.4 secs

     total energy              =    -234.57535873 Ry
     Harris-Foulkes estimate   =    -234.57535873 Ry
     estimated scf accuracy    <          1.7E-12 Ry

     iteration # 19     ecut=    50.00 Ry     beta= 0.60
     Davidson diagonalization with overlap
     ethr =  1.00E-13,  avg # of iterations =  1.4

     total cpu time spent up to now is     1701.1 secs

     End of self-consistent calculation

     Number of k-points >= 100: set verbosity='high' to print the bands.

     the Fermi energy is    15.9295 ev

!    total energy              =    -234.57535873 Ry
     Harris-Foulkes estimate   =    -234.57535873 Ry
     estimated scf accuracy    <          4.1E-13 Ry

     The total energy is the sum of the following terms:

     one-electron contribution =     -56.08066299 Ry
     hartree contribution      =      38.99469068 Ry
     xc contribution           =     -32.99881982 Ry
     ewald contribution        =    -184.48937538 Ry
     smearing contrib. (-TS)   =      -0.00119122 Ry

     convergence has been achieved in  19 iterations

     Forces acting on atoms (cartesian axes, Ry/au):

     atom    1 type  2   force =     0.00000000    0.00000000    0.00000000
     atom    2 type  1   force =     0.00000000    0.00000000    0.00000000

     Total force =     0.000000     Total SCF correction =     0.000000


     Computing stress (Cartesian axis) and pressure

          total   stress  (Ry/bohr**3)                   (kbar)     P=   -0.74
  -0.00000505   0.00000000   0.00000000         -0.74      0.00      0.00
   0.00000000  -0.00000505   0.00000000          0.00     -0.74      0.00
   0.00000000   0.00000000  -0.00000505          0.00      0.00     -0.74

 
     init_run     :      9.12s CPU      9.53s WALL (       2 calls)
     electrons    :   1521.18s CPU   1599.27s WALL (       9 calls)
     update_pot   :     18.82s CPU     18.84s WALL (       7 calls)
     forces       :     18.29s CPU     19.90s WALL (       9 calls)
     stress       :     49.23s CPU     54.15s WALL (       9 calls)

     Called by init_run:
     wfcinit      :      5.50s CPU      5.56s WALL (       2 calls)
     potinit      :      0.85s CPU      0.86s WALL (       2 calls)
     hinit0       :      2.45s CPU      2.46s WALL (       2 calls)

     Called by electrons:
     c_bands      :   1234.67s CPU   1245.28s WALL (     201 calls)
     sum_band     :    246.20s CPU    278.99s WALL (     201 calls)
     v_of_rho     :      9.72s CPU     10.38s WALL (     207 calls)
     newd         :     30.53s CPU     65.87s WALL (     207 calls)
     mix_rho      :      1.19s CPU      1.21s WALL (     201 calls)

     Called by c_bands:
     init_us_2    :     59.48s CPU     59.74s WALL (   69630 calls)
     cegterg      :   1042.62s CPU   1050.22s WALL (   33165 calls)

     Called by sum_band:
     sum_band:bec :      0.31s CPU      0.33s WALL (   33165 calls)
     addusdens    :     39.44s CPU     70.91s WALL (     201 calls)

     Called by *egterg:
     h_psi        :    805.38s CPU    811.30s WALL (  129195 calls)
     s_psi        :     30.37s CPU     30.59s WALL (  129195 calls)
     g_psi        :     12.05s CPU     11.96s WALL (   95700 calls)
     cdiaghg      :     69.87s CPU     70.13s WALL (  127215 calls)

     Called by h_psi:
     h_psi:pot    :    800.53s CPU    806.27s WALL (  129195 calls)
     h_psi:calbec :     30.53s CPU     30.31s WALL (  129195 calls)
     vloc_psi     :    739.02s CPU    744.42s WALL (  129195 calls)
     add_vuspsi   :     30.50s CPU     30.86s WALL (  129195 calls)

     General routines
     calbec       :     43.31s CPU     43.01s WALL (  169785 calls)
     fft          :      3.38s CPU      3.41s WALL (    2917 calls)
     ffts         :      0.09s CPU      0.10s WALL (     408 calls)
     fftw         :    775.75s CPU    780.71s WALL ( 3394287 calls)
     interpolate  :      0.35s CPU      0.35s WALL (     207 calls)
 
     Parallel routines
 
     PWSCF        : 26m58.25s CPU    28m25.30s WALL

 
   This run was terminated on:  18:14:37  13Jan2020            

=------------------------------------------------------------------------------=
   JOB DONE.
=------------------------------------------------------------------------------=
