
     Program PWSCF v.6.3MaX starts on 13Jan2020 at 23:52:42 

     This program is part of the open-source Quantum ESPRESSO suite
     for quantum simulation of materials; please cite
         "P. Giannozzi et al., J. Phys.:Condens. Matter 21 395502 (2009);
         "P. Giannozzi et al., J. Phys.:Condens. Matter 29 465901 (2017);
          URL http://www.quantum-espresso.org", 
     in publications or presentations arising from this work. More details at
     http://www.quantum-espresso.org/quote

     Parallel version (MPI), running on     1 processors

     MPI processes distributed on     1 nodes
     Waiting for input...
     Reading input from standard input

     Current dimensions of program PWSCF are:
     Max number of different atomic species (ntypx) = 10
     Max number of k-points (npk) =  40000
     Max angular momentum in pseudopotentials (lmaxx) =  3
     Message from routine iosys:
     minimal I/O required, wf_collect reset to FALSE

     Subspace diagonalization in iterative solution of the eigenvalue problem:
     a serial algorithm will be used

 
     G-vector sticks info
     --------------------
     sticks:   dense  smooth     PW     G-vecs:    dense   smooth      PW
     Sum        3049    1213    367                83129    21025    3477
 


     bravais-lattice index     =            0
     lattice parameter (alat)  =       1.8897  a.u.
     unit-cell volume          =     440.0051 (a.u.)^3
     number of atoms/cell      =            3
     number of atomic types    =            2
     number of electrons       =        37.00
     number of Kohn-Sham states=           23
     kinetic-energy cutoff     =      50.0000  Ry
     charge density cutoff     =     500.0000  Ry
     convergence threshold     =      1.0E-10
     mixing beta               =       0.6000
     number of iterations used =            8  plain     mixing
     Exchange-correlation      = SLA PW PBE PBE ( 1  4  3  4 0 0)
     nstep                     =           50


     celldm(1)=   1.889726  celldm(2)=   0.000000  celldm(3)=   0.000000
     celldm(4)=   0.000000  celldm(5)=   0.000000  celldm(6)=   0.000000

     crystal axes: (cart. coord. in units of alat)
               a(1) = (   0.000000  -3.516063  -3.516063 )  
               a(2) = (  -3.516063   3.516063   0.000000 )  
               a(3) = (   1.758031   1.758031  -1.758031 )  

     reciprocal axes: (cart. coord. in units 2 pi/alat)
               b(1) = ( -0.094803 -0.094803 -0.189606 )  
               b(2) = ( -0.189606  0.094803 -0.094803 )  
               b(3) = (  0.189606  0.189606 -0.189606 )  


     PseudoPot. # 1 for Nb read from file:
     /home/u16/abhishekkt/fp/krishna/calculations/pseudopotentials/Nb.pbe-nsp-van.UPF
     MD5 check sum: c44c1a86bf31974e1e832c2ec821fd5f
     Pseudo is Ultrasoft + core correction, Zval = 13.0
     Generated by new atomic code, or converted to UPF format
     Using radial grid of  887 points,  6 beta functions with: 
                l(1) =   0
                l(2) =   0
                l(3) =   1
                l(4) =   1
                l(5) =   2
                l(6) =   2
     Q(r) pseudized with  6 coefficients,  rinner =    1.000   1.000   1.000
                                                       1.000   1.000

     PseudoPot. # 2 for Ti read from file:
     /home/u16/abhishekkt/fp/krishna/calculations/pseudopotentials/Ti.pbe-sp-van_ak.UPF
     MD5 check sum: 84d3ec9e8983e94242673103c800fb48
     Pseudo is Ultrasoft, Zval = 12.0
     Generated by new atomic code, or converted to UPF format
     Using radial grid of  851 points,  6 beta functions with: 
                l(1) =   0
                l(2) =   0
                l(3) =   1
                l(4) =   1
                l(5) =   2
                l(6) =   2
     Q(r) pseudized with  8 coefficients,  rinner =    1.000   1.000   1.000
                                                       1.000   1.000

     atomic species   valence    mass     pseudopotential
        Nb            13.00    92.90638     Nb( 1.00)
        Ti            12.00    47.86700     Ti( 1.00)

     12 Sym. Ops., with inversion, found ( 6 have fractional translation)



   Cartesian axes

     site n.     atom                  positions (alat units)
         1           Ti  tau(   1) = (  -1.7580316   1.7580316  -5.2740949  )
         2           Ti  tau(   2) = (   0.0000000   0.0000000  -3.5160633  )
         3           Nb  tau(   3) = (  -1.7580316   1.7580316  -1.7580316  )

     number of k points=   298  Marzari-Vanderbilt smearing, width (Ry)=  0.0200

     Number of k-points >= 100: set verbosity='high' to print them.

     Dense  grid:    83129 G-vectors     FFT dimensions: (  72,  72,  45)

     Smooth grid:    21025 G-vectors     FFT dimensions: (  45,  45,  25)

     Estimated max dynamical RAM per process >     587.60 MB

     Initial potential from superposition of free atoms

     starting charge   34.99718, renormalised to   37.00000
     Starting wfcs are   33 randomized atomic wfcs

     total cpu time spent up to now is       21.4 secs

     Self-consistent Calculation

     iteration #  1     ecut=    50.00 Ry     beta= 0.60
     Davidson diagonalization with overlap
     ethr =  1.00E-02,  avg # of iterations =  3.5

     total cpu time spent up to now is       62.5 secs

     total energy              =    -348.51278519 Ry
     Harris-Foulkes estimate   =    -352.21100171 Ry
     estimated scf accuracy    <       4.80339561 Ry

     iteration #  2     ecut=    50.00 Ry     beta= 0.60
     Davidson diagonalization with overlap
     ethr =  1.00E-02,  avg # of iterations =  4.8

     total cpu time spent up to now is      112.2 secs

     total energy              =    -348.65830851 Ry
     Harris-Foulkes estimate   =    -357.22793892 Ry
     estimated scf accuracy    <      29.07648608 Ry

     iteration #  3     ecut=    50.00 Ry     beta= 0.60
     Davidson diagonalization with overlap
     ethr =  1.00E-02,  avg # of iterations =  4.2

     total cpu time spent up to now is      153.2 secs

     total energy              =    -351.09917890 Ry
     Harris-Foulkes estimate   =    -351.15568958 Ry
     estimated scf accuracy    <       0.28479110 Ry

     iteration #  4     ecut=    50.00 Ry     beta= 0.60
     Davidson diagonalization with overlap
     ethr =  7.70E-04,  avg # of iterations =  6.4

     total cpu time spent up to now is      203.0 secs

     total energy              =    -351.16260385 Ry
     Harris-Foulkes estimate   =    -351.18822864 Ry
     estimated scf accuracy    <       0.12721700 Ry

     iteration #  5     ecut=    50.00 Ry     beta= 0.60
     Davidson diagonalization with overlap
     ethr =  3.44E-04,  avg # of iterations =  5.0

     total cpu time spent up to now is      246.1 secs

     total energy              =    -351.22029080 Ry
     Harris-Foulkes estimate   =    -351.23111221 Ry
     estimated scf accuracy    <       0.60661908 Ry

     iteration #  6     ecut=    50.00 Ry     beta= 0.60
     Davidson diagonalization with overlap
     ethr =  3.44E-04,  avg # of iterations =  1.0

     total cpu time spent up to now is      276.3 secs

     total energy              =    -351.14680420 Ry
     Harris-Foulkes estimate   =    -351.22082744 Ry
     estimated scf accuracy    <       0.53962363 Ry

     iteration #  7     ecut=    50.00 Ry     beta= 0.60
     Davidson diagonalization with overlap
     ethr =  3.44E-04,  avg # of iterations =  3.1

     total cpu time spent up to now is      310.4 secs

     total energy              =    -351.14555156 Ry
     Harris-Foulkes estimate   =    -351.16400150 Ry
     estimated scf accuracy    <       0.08800871 Ry

     iteration #  8     ecut=    50.00 Ry     beta= 0.60
     Davidson diagonalization with overlap
     ethr =  2.38E-04,  avg # of iterations =  4.4

     total cpu time spent up to now is      347.6 secs

     total energy              =    -351.15826124 Ry
     Harris-Foulkes estimate   =    -351.15886973 Ry
     estimated scf accuracy    <       0.00338501 Ry

     iteration #  9     ecut=    50.00 Ry     beta= 0.60
     Davidson diagonalization with overlap
     c_bands:  1 eigenvalues not converged
     ethr =  9.15E-06,  avg # of iterations =  8.1

     total cpu time spent up to now is      398.6 secs

     total energy              =    -351.15968788 Ry
     Harris-Foulkes estimate   =    -351.15997049 Ry
     estimated scf accuracy    <       0.00137949 Ry

     iteration # 10     ecut=    50.00 Ry     beta= 0.60
     Davidson diagonalization with overlap
     c_bands:  1 eigenvalues not converged
     ethr =  3.73E-06,  avg # of iterations =  2.8

     total cpu time spent up to now is      431.5 secs

     total energy              =    -351.15983321 Ry
     Harris-Foulkes estimate   =    -351.15987907 Ry
     estimated scf accuracy    <       0.00015151 Ry

     iteration # 11     ecut=    50.00 Ry     beta= 0.60
     Davidson diagonalization with overlap
     ethr =  4.09E-07,  avg # of iterations =  4.2

     total cpu time spent up to now is      471.9 secs

     total energy              =    -351.15989127 Ry
     Harris-Foulkes estimate   =    -351.15988882 Ry
     estimated scf accuracy    <       0.00003150 Ry

     iteration # 12     ecut=    50.00 Ry     beta= 0.60
     Davidson diagonalization with overlap
     ethr =  8.51E-08,  avg # of iterations =  4.0

     total cpu time spent up to now is      510.2 secs

     total energy              =    -351.15987629 Ry
     Harris-Foulkes estimate   =    -351.15990255 Ry
     estimated scf accuracy    <       0.00024717 Ry

     iteration # 13     ecut=    50.00 Ry     beta= 0.60
     Davidson diagonalization with overlap
     ethr =  8.51E-08,  avg # of iterations =  3.8

     total cpu time spent up to now is      548.0 secs

     total energy              =    -351.15988375 Ry
     Harris-Foulkes estimate   =    -351.15988537 Ry
     estimated scf accuracy    <       0.00001576 Ry

     iteration # 14     ecut=    50.00 Ry     beta= 0.60
     Davidson diagonalization with overlap
     ethr =  4.26E-08,  avg # of iterations =  2.1

     total cpu time spent up to now is      579.4 secs

     total energy              =    -351.15988387 Ry
     Harris-Foulkes estimate   =    -351.15988443 Ry
     estimated scf accuracy    <       0.00000357 Ry

     iteration # 15     ecut=    50.00 Ry     beta= 0.60
     Davidson diagonalization with overlap
     ethr =  9.64E-09,  avg # of iterations =  4.1

     total cpu time spent up to now is      619.5 secs

     total energy              =    -351.15988475 Ry
     Harris-Foulkes estimate   =    -351.15988482 Ry
     estimated scf accuracy    <       0.00000163 Ry

     iteration # 16     ecut=    50.00 Ry     beta= 0.60
     Davidson diagonalization with overlap
     ethr =  4.40E-09,  avg # of iterations =  1.0

     total cpu time spent up to now is      649.7 secs

     total energy              =    -351.15988459 Ry
     Harris-Foulkes estimate   =    -351.15988476 Ry
     estimated scf accuracy    <       0.00000099 Ry

     iteration # 17     ecut=    50.00 Ry     beta= 0.60
     Davidson diagonalization with overlap
     ethr =  2.67E-09,  avg # of iterations =  3.0

     total cpu time spent up to now is      684.5 secs

     total energy              =    -351.15988469 Ry
     Harris-Foulkes estimate   =    -351.15988472 Ry
     estimated scf accuracy    <       0.00000018 Ry

     iteration # 18     ecut=    50.00 Ry     beta= 0.60
     Davidson diagonalization with overlap
     ethr =  4.76E-10,  avg # of iterations =  2.8

     total cpu time spent up to now is      718.4 secs

     total energy              =    -351.15988472 Ry
     Harris-Foulkes estimate   =    -351.15988472 Ry
     estimated scf accuracy    <          7.7E-10 Ry

     iteration # 19     ecut=    50.00 Ry     beta= 0.60
     Davidson diagonalization with overlap
     ethr =  2.08E-12,  avg # of iterations =  6.0

     total cpu time spent up to now is      771.8 secs

     total energy              =    -351.15988472 Ry
     Harris-Foulkes estimate   =    -351.15988472 Ry
     estimated scf accuracy    <       0.00000001 Ry

     iteration # 20     ecut=    50.00 Ry     beta= 0.60
     Davidson diagonalization with overlap
     ethr =  2.08E-12,  avg # of iterations =  4.9

     total cpu time spent up to now is      815.8 secs

     End of self-consistent calculation

     Number of k-points >= 100: set verbosity='high' to print the bands.

     the Fermi energy is    11.4274 ev

!    total energy              =    -351.15988472 Ry
     Harris-Foulkes estimate   =    -351.15988472 Ry
     estimated scf accuracy    <          9.3E-11 Ry

     The total energy is the sum of the following terms:

     one-electron contribution =    -126.32595181 Ry
     hartree contribution      =      72.27684595 Ry
     xc contribution           =     -46.99847175 Ry
     ewald contribution        =    -250.11188705 Ry
     smearing contrib. (-TS)   =      -0.00042006 Ry

     convergence has been achieved in  20 iterations

     Forces acting on atoms (cartesian axes, Ry/au):

     atom    1 type  2   force =     0.00436076    0.00436076   -0.00436076
     atom    2 type  2   force =    -0.00436076   -0.00436076    0.00436076
     atom    3 type  1   force =    -0.00000000    0.00000000   -0.00000000

     Total force =     0.010682     Total SCF correction =     0.000002


     Computing stress (Cartesian axis) and pressure

          total   stress  (Ry/bohr**3)                   (kbar)     P= -189.55
  -0.00128851  -0.00001751   0.00001751       -189.55     -2.58      2.58
  -0.00001751  -0.00128851   0.00001751         -2.58   -189.55      2.58
   0.00001751   0.00001751  -0.00128851          2.58      2.58   -189.55


     BFGS Geometry Optimization

     number of scf cycles    =   1
     number of bfgs steps    =   0

     enthalpy new            =    -351.1598847189 Ry

     new trust radius        =       0.1351657633 bohr
     new conv_thr            =            1.0E-10 Ry

     new unit-cell volume =    398.83857 a.u.^3 (    59.10178 Ang^3 )
     density =      5.30009 g/cm^3

CELL_PARAMETERS (alat=  1.88972599)
  -0.000000000  -3.404340165  -3.404340165
  -3.404340165   3.404340165  -0.000000000
   1.699861301   1.699861301  -1.699861301

ATOMIC_POSITIONS (angstrom)
Ti      -1.702247602   1.702092563  -5.106432728
Ti      -0.003770449  -0.003770449  -3.400569715
Nb      -1.702939676   1.701400489  -1.701400489


     NEW-OLD atomic charge density approx. for the potential
     extrapolated charge   33.38773, renormalised to   37.00000

     total cpu time spent up to now is      840.8 secs

     Self-consistent Calculation

     iteration #  1     ecut=    50.00 Ry     beta= 0.60
     Davidson diagonalization with overlap
     c_bands:  1 eigenvalues not converged
     c_bands:  1 eigenvalues not converged
     c_bands:  1 eigenvalues not converged
     c_bands:  1 eigenvalues not converged
     c_bands:  1 eigenvalues not converged
     c_bands:  1 eigenvalues not converged
     c_bands:  1 eigenvalues not converged
     c_bands:  2 eigenvalues not converged
     ethr =  1.00E-06,  avg # of iterations = 15.0

     total cpu time spent up to now is      950.4 secs

     total energy              =    -338.91283968 Ry
     Harris-Foulkes estimate   =    -360.17585825 Ry
     estimated scf accuracy    <      13.41800978 Ry

     iteration #  2     ecut=    50.00 Ry     beta= 0.60
     Davidson diagonalization with overlap
     ethr =  1.00E-02,  avg # of iterations =  5.3

     total cpu time spent up to now is     1010.8 secs

     total energy              =    -350.81317987 Ry
     Harris-Foulkes estimate   =    -367.88261211 Ry
     estimated scf accuracy    <      50.47730295 Ry

     iteration #  3     ecut=    50.00 Ry     beta= 0.60
     Davidson diagonalization with overlap
     ethr =  1.00E-02,  avg # of iterations =  3.3

     total cpu time spent up to now is     1056.1 secs

     total energy              =    -351.99869319 Ry
     Harris-Foulkes estimate   =    -353.98275025 Ry
     estimated scf accuracy    <       9.14596105 Ry

     iteration #  4     ecut=    50.00 Ry     beta= 0.60
     Davidson diagonalization with overlap
     ethr =  1.00E-02,  avg # of iterations =  1.4

     total cpu time spent up to now is     1086.9 secs

     total energy              =    -351.09664616 Ry
     Harris-Foulkes estimate   =    -352.14185840 Ry
     estimated scf accuracy    <       5.37104148 Ry

     iteration #  5     ecut=    50.00 Ry     beta= 0.60
     Davidson diagonalization with overlap
     ethr =  1.00E-02,  avg # of iterations =  2.4

     total cpu time spent up to now is     1120.1 secs

     total energy              =    -351.60632453 Ry
     Harris-Foulkes estimate   =    -351.37667402 Ry
     estimated scf accuracy    <       1.14932697 Ry

     iteration #  6     ecut=    50.00 Ry     beta= 0.60
     Davidson diagonalization with overlap
     ethr =  3.11E-03,  avg # of iterations =  1.8

     total cpu time spent up to now is     1151.5 secs

     total energy              =    -351.53506311 Ry
     Harris-Foulkes estimate   =    -351.69623298 Ry
     estimated scf accuracy    <       2.81126592 Ry

     iteration #  7     ecut=    50.00 Ry     beta= 0.60
     Davidson diagonalization with overlap
     ethr =  3.11E-03,  avg # of iterations =  1.1

     total cpu time spent up to now is     1182.2 secs

     total energy              =    -351.40349271 Ry
     Harris-Foulkes estimate   =    -351.54669942 Ry
     estimated scf accuracy    <       2.21862073 Ry

     iteration #  8     ecut=    50.00 Ry     beta= 0.60
     Davidson diagonalization with overlap
     ethr =  3.11E-03,  avg # of iterations =  1.2

     total cpu time spent up to now is     1212.8 secs

     total energy              =    -351.22107479 Ry
     Harris-Foulkes estimate   =    -351.41415800 Ry
     estimated scf accuracy    <       1.60091903 Ry

     iteration #  9     ecut=    50.00 Ry     beta= 0.60
     Davidson diagonalization with overlap
     ethr =  3.11E-03,  avg # of iterations =  1.4

     total cpu time spent up to now is     1243.8 secs

     total energy              =    -351.25938714 Ry
     Harris-Foulkes estimate   =    -351.25151240 Ry
     estimated scf accuracy    <       0.64291079 Ry

     iteration # 10     ecut=    50.00 Ry     beta= 0.60
     Davidson diagonalization with overlap
     ethr =  1.74E-03,  avg # of iterations =  1.5

     total cpu time spent up to now is     1274.8 secs

     total energy              =    -350.98750644 Ry
     Harris-Foulkes estimate   =    -351.26654191 Ry
     estimated scf accuracy    <       0.67129248 Ry

     iteration # 11     ecut=    50.00 Ry     beta= 0.60
     Davidson diagonalization with overlap
     ethr =  1.74E-03,  avg # of iterations =  5.2

     total cpu time spent up to now is     1320.0 secs

     total energy              =    -351.30901693 Ry
     Harris-Foulkes estimate   =    -351.33663940 Ry
     estimated scf accuracy    <       1.72240957 Ry

     iteration # 12     ecut=    50.00 Ry     beta= 0.60
     Davidson diagonalization with overlap
     ethr =  1.74E-03,  avg # of iterations =  1.1

     total cpu time spent up to now is     1350.6 secs

     total energy              =    -351.33204508 Ry
     Harris-Foulkes estimate   =    -351.31290105 Ry
     estimated scf accuracy    <       1.45805175 Ry

     iteration # 13     ecut=    50.00 Ry     beta= 0.60
     Davidson diagonalization with overlap
     ethr =  1.74E-03,  avg # of iterations =  1.1

     total cpu time spent up to now is     1381.2 secs

     total energy              =    -351.14166192 Ry
     Harris-Foulkes estimate   =    -351.33321237 Ry
     estimated scf accuracy    <       1.62430211 Ry

     iteration # 14     ecut=    50.00 Ry     beta= 0.60
     Davidson diagonalization with overlap
     ethr =  1.74E-03,  avg # of iterations =  1.0

     total cpu time spent up to now is     1411.7 secs

     total energy              =    -351.22268300 Ry
     Harris-Foulkes estimate   =    -351.18647371 Ry
     estimated scf accuracy    <       0.37986079 Ry

     iteration # 15     ecut=    50.00 Ry     beta= 0.60
     Davidson diagonalization with overlap
     ethr =  1.03E-03,  avg # of iterations =  1.0

     total cpu time spent up to now is     1442.2 secs

     total energy              =    -351.21290039 Ry
     Harris-Foulkes estimate   =    -351.23218132 Ry
     estimated scf accuracy    <       0.69591039 Ry

     iteration # 16     ecut=    50.00 Ry     beta= 0.60
     Davidson diagonalization with overlap
     ethr =  1.03E-03,  avg # of iterations =  1.0

     total cpu time spent up to now is     1472.7 secs

     total energy              =    -351.17987525 Ry
     Harris-Foulkes estimate   =    -351.21665340 Ry
     estimated scf accuracy    <       0.48593375 Ry

     iteration # 17     ecut=    50.00 Ry     beta= 0.60
     Davidson diagonalization with overlap
     ethr =  1.03E-03,  avg # of iterations =  1.4

     total cpu time spent up to now is     1503.7 secs

     total energy              =    -351.17044032 Ry
     Harris-Foulkes estimate   =    -351.19278585 Ry
     estimated scf accuracy    <       0.16809182 Ry

     iteration # 18     ecut=    50.00 Ry     beta= 0.60
     Davidson diagonalization with overlap
     ethr =  4.54E-04,  avg # of iterations =  4.2

     total cpu time spent up to now is     1542.9 secs

     total energy              =    -351.20646025 Ry
     Harris-Foulkes estimate   =    -351.20872167 Ry
     estimated scf accuracy    <       0.03739666 Ry

     iteration # 19     ecut=    50.00 Ry     beta= 0.60
     Davidson diagonalization with overlap
     ethr =  1.01E-04,  avg # of iterations =  2.6

     total cpu time spent up to now is     1575.6 secs

     total energy              =    -351.20419962 Ry
     Harris-Foulkes estimate   =    -351.20737360 Ry
     estimated scf accuracy    <       0.02629740 Ry

     iteration # 20     ecut=    50.00 Ry     beta= 0.60
     Davidson diagonalization with overlap
     ethr =  7.11E-05,  avg # of iterations =  1.3

     total cpu time spent up to now is     1606.4 secs

     total energy              =    -351.20361743 Ry
     Harris-Foulkes estimate   =    -351.20495795 Ry
     estimated scf accuracy    <       0.00640403 Ry

     iteration # 21     ecut=    50.00 Ry     beta= 0.60
     Davidson diagonalization with overlap
     ethr =  1.73E-05,  avg # of iterations =  5.9

     total cpu time spent up to now is     1650.2 secs

     total energy              =    -351.20530188 Ry
     Harris-Foulkes estimate   =    -351.20526612 Ry
     estimated scf accuracy    <       0.00254086 Ry

     iteration # 22     ecut=    50.00 Ry     beta= 0.60
     Davidson diagonalization with overlap
     c_bands:  1 eigenvalues not converged
     c_bands:  1 eigenvalues not converged
     ethr =  6.87E-06,  avg # of iterations =  1.7

     total cpu time spent up to now is     1681.5 secs

     total energy              =    -351.20544454 Ry
     Harris-Foulkes estimate   =    -351.20533122 Ry
     estimated scf accuracy    <       0.00324654 Ry

     iteration # 23     ecut=    50.00 Ry     beta= 0.60
     Davidson diagonalization with overlap
     ethr =  6.87E-06,  avg # of iterations =  1.0

     total cpu time spent up to now is     1712.0 secs

     total energy              =    -351.20515889 Ry
     Harris-Foulkes estimate   =    -351.20547196 Ry
     estimated scf accuracy    <       0.00429464 Ry

     iteration # 24     ecut=    50.00 Ry     beta= 0.60
     Davidson diagonalization with overlap
     ethr =  6.87E-06,  avg # of iterations =  1.0

     total cpu time spent up to now is     1742.6 secs

     total energy              =    -351.20499568 Ry
     Harris-Foulkes estimate   =    -351.20519846 Ry
     estimated scf accuracy    <       0.00225033 Ry

     iteration # 25     ecut=    50.00 Ry     beta= 0.60
     Davidson diagonalization with overlap
     ethr =  6.08E-06,  avg # of iterations =  1.0

     total cpu time spent up to now is     1773.1 secs

     total energy              =    -351.20500210 Ry
     Harris-Foulkes estimate   =    -351.20504275 Ry
     estimated scf accuracy    <       0.00064785 Ry

     iteration # 26     ecut=    50.00 Ry     beta= 0.60
     Davidson diagonalization with overlap
     c_bands:  1 eigenvalues not converged
     c_bands:  1 eigenvalues not converged
     ethr =  1.75E-06,  avg # of iterations =  2.2

     total cpu time spent up to now is     1804.9 secs

     total energy              =    -351.20498399 Ry
     Harris-Foulkes estimate   =    -351.20502109 Ry
     estimated scf accuracy    <       0.00030716 Ry

     iteration # 27     ecut=    50.00 Ry     beta= 0.60
     Davidson diagonalization with overlap
     ethr =  8.30E-07,  avg # of iterations =  4.5

     total cpu time spent up to now is     1844.4 secs

     total energy              =    -351.20505125 Ry
     Harris-Foulkes estimate   =    -351.20505581 Ry
     estimated scf accuracy    <       0.00005907 Ry

     iteration # 28     ecut=    50.00 Ry     beta= 0.60
     Davidson diagonalization with overlap
     c_bands:  1 eigenvalues not converged
     ethr =  1.60E-07,  avg # of iterations =  2.0

     total cpu time spent up to now is     1876.1 secs

     total energy              =    -351.20504870 Ry
     Harris-Foulkes estimate   =    -351.20505318 Ry
     estimated scf accuracy    <       0.00002623 Ry

     iteration # 29     ecut=    50.00 Ry     beta= 0.60
     Davidson diagonalization with overlap
     ethr =  7.09E-08,  avg # of iterations =  2.8

     total cpu time spent up to now is     1911.3 secs

     total energy              =    -351.20505213 Ry
     Harris-Foulkes estimate   =    -351.20505237 Ry
     estimated scf accuracy    <       0.00000230 Ry

     iteration # 30     ecut=    50.00 Ry     beta= 0.60
     Davidson diagonalization with overlap
     ethr =  6.23E-09,  avg # of iterations =  3.2

     total cpu time spent up to now is     1946.4 secs

     total energy              =    -351.20505230 Ry
     Harris-Foulkes estimate   =    -351.20505235 Ry
     estimated scf accuracy    <       0.00000068 Ry

     iteration # 31     ecut=    50.00 Ry     beta= 0.60
     Davidson diagonalization with overlap
     ethr =  1.83E-09,  avg # of iterations =  2.3

     total cpu time spent up to now is     1978.7 secs

     total energy              =    -351.20505230 Ry
     Harris-Foulkes estimate   =    -351.20505233 Ry
     estimated scf accuracy    <       0.00000019 Ry

     iteration # 32     ecut=    50.00 Ry     beta= 0.60
     Davidson diagonalization with overlap
     ethr =  5.11E-10,  avg # of iterations =  3.8

     total cpu time spent up to now is     2016.1 secs

     total energy              =    -351.20505233 Ry
     Harris-Foulkes estimate   =    -351.20505233 Ry
     estimated scf accuracy    <          5.3E-10 Ry

     iteration # 33     ecut=    50.00 Ry     beta= 0.60
     Davidson diagonalization with overlap
     ethr =  1.42E-12,  avg # of iterations =  6.1

     total cpu time spent up to now is     2069.8 secs

     total energy              =    -351.20505233 Ry
     Harris-Foulkes estimate   =    -351.20505233 Ry
     estimated scf accuracy    <          1.3E-09 Ry

     iteration # 34     ecut=    50.00 Ry     beta= 0.60
     Davidson diagonalization with overlap
     ethr =  1.42E-12,  avg # of iterations =  1.0

     total cpu time spent up to now is     2100.4 secs

     total energy              =    -351.20505233 Ry
     Harris-Foulkes estimate   =    -351.20505233 Ry
     estimated scf accuracy    <          6.3E-10 Ry

     iteration # 35     ecut=    50.00 Ry     beta= 0.60
     Davidson diagonalization with overlap
     ethr =  1.42E-12,  avg # of iterations =  3.6

     total cpu time spent up to now is     2138.4 secs

     total energy              =    -351.20505233 Ry
     Harris-Foulkes estimate   =    -351.20505233 Ry
     estimated scf accuracy    <          2.2E-10 Ry

     iteration # 36     ecut=    50.00 Ry     beta= 0.60
     Davidson diagonalization with overlap
     ethr =  5.92E-13,  avg # of iterations =  1.1

     total cpu time spent up to now is     2168.9 secs

     End of self-consistent calculation

     Number of k-points >= 100: set verbosity='high' to print the bands.

     the Fermi energy is    12.8936 ev

!    total energy              =    -351.20505233 Ry
     Harris-Foulkes estimate   =    -351.20505233 Ry
     estimated scf accuracy    <          5.9E-11 Ry

     The total energy is the sum of the following terms:

     one-electron contribution =    -113.90183571 Ry
     hartree contribution      =      68.34546735 Ry
     xc contribution           =     -47.21276687 Ry
     ewald contribution        =    -258.43560137 Ry
     smearing contrib. (-TS)   =      -0.00031573 Ry

     convergence has been achieved in  36 iterations

     Forces acting on atoms (cartesian axes, Ry/au):

     atom    1 type  2   force =     0.00448439    0.00448439   -0.00448439
     atom    2 type  2   force =    -0.00448439   -0.00448439    0.00448439
     atom    3 type  1   force =     0.00000000    0.00000000    0.00000000

     Total force =     0.010984     Total SCF correction =     0.000002


     Computing stress (Cartesian axis) and pressure

          total   stress  (Ry/bohr**3)                   (kbar)     P= -126.51
  -0.00086002  -0.00001518   0.00001518       -126.51     -2.23      2.23
  -0.00001518  -0.00086002   0.00001518         -2.23   -126.51      2.23
   0.00001518   0.00001518  -0.00086002          2.23      2.23   -126.51


     number of scf cycles    =   2
     number of bfgs steps    =   1

     enthalpy old            =    -351.1598847189 Ry
     enthalpy new            =    -351.2050523322 Ry

     CASE: enthalpy_new < enthalpy_old

     new trust radius        =       0.1994613703 bohr
     new conv_thr            =            1.0E-10 Ry

     new unit-cell volume =    342.03889 a.u.^3 (    50.68493 Ang^3 )
     density =      6.18023 g/cm^3

CELL_PARAMETERS (alat=  1.88972599)
  -0.000000000  -3.237548574  -3.237548574
  -3.237548574   3.237548574  -0.000000000
   1.611851919   1.611851919  -1.611851919

ATOMIC_POSITIONS (angstrom)
Ti      -1.618536377   1.619012197  -4.856560771
Ti      -0.011775191  -0.011775191  -3.225773384
Nb      -1.621081743   1.616466831  -1.616466831


     NEW-OLD atomic charge density approx. for the potential
     extrapolated charge   31.18830, renormalised to   37.00000

     total cpu time spent up to now is     2194.9 secs

     Self-consistent Calculation

     iteration #  1     ecut=    50.00 Ry     beta= 0.60
     Davidson diagonalization with overlap
     c_bands:  1 eigenvalues not converged
     c_bands:  1 eigenvalues not converged
     c_bands:  1 eigenvalues not converged
     c_bands:  1 eigenvalues not converged
     c_bands:  1 eigenvalues not converged
     c_bands:  1 eigenvalues not converged
     c_bands:  1 eigenvalues not converged
     c_bands:  1 eigenvalues not converged
     c_bands:  1 eigenvalues not converged
     c_bands:  1 eigenvalues not converged
     c_bands:  1 eigenvalues not converged
     c_bands:  1 eigenvalues not converged
     c_bands:  1 eigenvalues not converged
     c_bands:  1 eigenvalues not converged
     c_bands:  1 eigenvalues not converged
     c_bands:  1 eigenvalues not converged
     c_bands:  1 eigenvalues not converged
     c_bands:  1 eigenvalues not converged
     c_bands:  1 eigenvalues not converged
     c_bands:  1 eigenvalues not converged
     c_bands:  1 eigenvalues not converged
     c_bands:  1 eigenvalues not converged
     c_bands:  1 eigenvalues not converged
     c_bands:  1 eigenvalues not converged
     c_bands:  1 eigenvalues not converged
     c_bands:  1 eigenvalues not converged
     c_bands:  1 eigenvalues not converged
     c_bands:  1 eigenvalues not converged
     c_bands:  2 eigenvalues not converged
     ethr =  1.00E-06,  avg # of iterations = 15.0

     total cpu time spent up to now is     2304.0 secs

     total energy              =    -330.09937310 Ry
     Harris-Foulkes estimate   =    -364.34017225 Ry
     estimated scf accuracy    <      22.90750700 Ry

     iteration #  2     ecut=    50.00 Ry     beta= 0.60
     Davidson diagonalization with overlap
     ethr =  1.00E-02,  avg # of iterations =  6.2

     total cpu time spent up to now is     2367.1 secs

     total energy              =    -349.81713869 Ry
     Harris-Foulkes estimate   =    -375.65720039 Ry
     estimated scf accuracy    <      72.31149552 Ry

     iteration #  3     ecut=    50.00 Ry     beta= 0.60
     Davidson diagonalization with overlap
     ethr =  1.00E-02,  avg # of iterations =  3.7

     total cpu time spent up to now is     2416.3 secs

     total energy              =    -352.12598164 Ry
     Harris-Foulkes estimate   =    -355.09155809 Ry
     estimated scf accuracy    <      12.13381494 Ry

     iteration #  4     ecut=    50.00 Ry     beta= 0.60
     Davidson diagonalization with overlap
     ethr =  1.00E-02,  avg # of iterations =  1.3

     total cpu time spent up to now is     2447.1 secs

     total energy              =    -351.15100599 Ry
     Harris-Foulkes estimate   =    -352.36891067 Ry
     estimated scf accuracy    <       5.70926368 Ry

     iteration #  5     ecut=    50.00 Ry     beta= 0.60
     Davidson diagonalization with overlap
     ethr =  1.00E-02,  avg # of iterations =  2.4

     total cpu time spent up to now is     2480.9 secs

     total energy              =    -351.78714241 Ry
     Harris-Foulkes estimate   =    -351.50435647 Ry
     estimated scf accuracy    <       1.14101984 Ry

     iteration #  6     ecut=    50.00 Ry     beta= 0.60
     Davidson diagonalization with overlap
     ethr =  3.08E-03,  avg # of iterations =  1.9

     total cpu time spent up to now is     2512.8 secs

     total energy              =    -351.60045005 Ry
     Harris-Foulkes estimate   =    -351.91185344 Ry
     estimated scf accuracy    <       3.12227815 Ry

     iteration #  7     ecut=    50.00 Ry     beta= 0.60
     Davidson diagonalization with overlap
     ethr =  3.08E-03,  avg # of iterations =  1.0

     total cpu time spent up to now is     2543.4 secs

     total energy              =    -351.40034274 Ry
     Harris-Foulkes estimate   =    -351.62116207 Ry
     estimated scf accuracy    <       2.16105001 Ry

     iteration #  8     ecut=    50.00 Ry     beta= 0.60
     Davidson diagonalization with overlap
     ethr =  3.08E-03,  avg # of iterations =  1.1

     total cpu time spent up to now is     2574.0 secs

     total energy              =    -351.34037103 Ry
     Harris-Foulkes estimate   =    -351.42013177 Ry
     estimated scf accuracy    <       1.29077804 Ry

     iteration #  9     ecut=    50.00 Ry     beta= 0.60
     Davidson diagonalization with overlap
     ethr =  3.08E-03,  avg # of iterations =  1.0

     total cpu time spent up to now is     2604.6 secs

     total energy              =    -351.20187723 Ry
     Harris-Foulkes estimate   =    -351.35072997 Ry
     estimated scf accuracy    <       0.91376035 Ry

     iteration # 10     ecut=    50.00 Ry     beta= 0.60
     Davidson diagonalization with overlap
     ethr =  2.47E-03,  avg # of iterations =  1.6

     total cpu time spent up to now is     2635.7 secs

     total energy              =    -351.10060027 Ry
     Harris-Foulkes estimate   =    -351.23372497 Ry
     estimated scf accuracy    <       0.24894223 Ry

     iteration # 11     ecut=    50.00 Ry     beta= 0.60
     Davidson diagonalization with overlap
     ethr =  6.73E-04,  avg # of iterations =  4.8

     total cpu time spent up to now is     2684.9 secs

     total energy              =    -351.29293767 Ry
     Harris-Foulkes estimate   =    -351.31956648 Ry
     estimated scf accuracy    <       1.01665919 Ry

     iteration # 12     ecut=    50.00 Ry     beta= 0.60
     Davidson diagonalization with overlap
     ethr =  6.73E-04,  avg # of iterations =  1.0

     total cpu time spent up to now is     2715.4 secs

     total energy              =    -351.35541468 Ry
     Harris-Foulkes estimate   =    -351.29559235 Ry
     estimated scf accuracy    <       0.76612065 Ry

     iteration # 13     ecut=    50.00 Ry     beta= 0.60
     Davidson diagonalization with overlap
     ethr =  6.73E-04,  avg # of iterations =  1.0

     total cpu time spent up to now is     2746.0 secs

     total energy              =    -351.42975491 Ry
     Harris-Foulkes estimate   =    -351.36305170 Ry
     estimated scf accuracy    <       1.29960363 Ry

     iteration # 14     ecut=    50.00 Ry     beta= 0.60
     Davidson diagonalization with overlap
     ethr =  6.73E-04,  avg # of iterations =  1.9

     total cpu time spent up to now is     2777.9 secs

     total energy              =    -351.35645334 Ry
     Harris-Foulkes estimate   =    -351.44105089 Ry
     estimated scf accuracy    <       2.13293752 Ry

     iteration # 15     ecut=    50.00 Ry     beta= 0.60
     Davidson diagonalization with overlap
     ethr =  6.73E-04,  avg # of iterations =  1.0

     total cpu time spent up to now is     2809.3 secs

     total energy              =    -351.24191986 Ry
     Harris-Foulkes estimate   =    -351.36257112 Ry
     estimated scf accuracy    <       1.56823951 Ry

     iteration # 16     ecut=    50.00 Ry     beta= 0.60
     Davidson diagonalization with overlap
     ethr =  6.73E-04,  avg # of iterations =  2.7

     total cpu time spent up to now is     2842.7 secs

     total energy              =    -351.19861915 Ry
     Harris-Foulkes estimate   =    -351.26499363 Ry
     estimated scf accuracy    <       0.59974248 Ry

     iteration # 17     ecut=    50.00 Ry     beta= 0.60
     Davidson diagonalization with overlap
     ethr =  6.73E-04,  avg # of iterations =  2.9

     total cpu time spent up to now is     2877.5 secs

     total energy              =    -351.21569158 Ry
     Harris-Foulkes estimate   =    -351.22685327 Ry
     estimated scf accuracy    <       0.08152783 Ry

     iteration # 18     ecut=    50.00 Ry     beta= 0.60
     Davidson diagonalization with overlap
     ethr =  2.20E-04,  avg # of iterations =  3.3

     total cpu time spent up to now is     2912.5 secs

     total energy              =    -351.22393162 Ry
     Harris-Foulkes estimate   =    -351.22498892 Ry
     estimated scf accuracy    <       0.00268377 Ry

     iteration # 19     ecut=    50.00 Ry     beta= 0.60
     Davidson diagonalization with overlap
     ethr =  7.25E-06,  avg # of iterations =  6.0

     total cpu time spent up to now is     2964.6 secs

     total energy              =    -351.22602475 Ry
     Harris-Foulkes estimate   =    -351.22716554 Ry
     estimated scf accuracy    <       0.01237312 Ry

     iteration # 20     ecut=    50.00 Ry     beta= 0.60
     Davidson diagonalization with overlap
     ethr =  7.25E-06,  avg # of iterations =  1.0

     total cpu time spent up to now is     2995.1 secs

     total energy              =    -351.22622539 Ry
     Harris-Foulkes estimate   =    -351.22621218 Ry
     estimated scf accuracy    <       0.00501914 Ry

     iteration # 21     ecut=    50.00 Ry     beta= 0.60
     Davidson diagonalization with overlap
     ethr =  7.25E-06,  avg # of iterations =  1.0

     total cpu time spent up to now is     3025.9 secs

     total energy              =    -351.22565134 Ry
     Harris-Foulkes estimate   =    -351.22625613 Ry
     estimated scf accuracy    <       0.00493957 Ry

     iteration # 22     ecut=    50.00 Ry     beta= 0.60
     Davidson diagonalization with overlap
     ethr =  7.25E-06,  avg # of iterations =  3.2

     total cpu time spent up to now is     3060.8 secs

     total energy              =    -351.22599094 Ry
     Harris-Foulkes estimate   =    -351.22598331 Ry
     estimated scf accuracy    <       0.00021689 Ry

     iteration # 23     ecut=    50.00 Ry     beta= 0.60
     Davidson diagonalization with overlap
     ethr =  5.86E-07,  avg # of iterations =  4.5

     total cpu time spent up to now is     3100.0 secs

     total energy              =    -351.22607261 Ry
     Harris-Foulkes estimate   =    -351.22604993 Ry
     estimated scf accuracy    <       0.00010983 Ry

     iteration # 24     ecut=    50.00 Ry     beta= 0.60
     Davidson diagonalization with overlap
     ethr =  2.97E-07,  avg # of iterations =  3.0

     total cpu time spent up to now is     3134.9 secs

     total energy              =    -351.22607160 Ry
     Harris-Foulkes estimate   =    -351.22608938 Ry
     estimated scf accuracy    <       0.00050436 Ry

     iteration # 25     ecut=    50.00 Ry     beta= 0.60
     Davidson diagonalization with overlap
     ethr =  2.97E-07,  avg # of iterations =  1.0

     total cpu time spent up to now is     3165.4 secs

     total energy              =    -351.22604308 Ry
     Harris-Foulkes estimate   =    -351.22607317 Ry
     estimated scf accuracy    <       0.00039127 Ry

     iteration # 26     ecut=    50.00 Ry     beta= 0.60
     Davidson diagonalization with overlap
     ethr =  2.97E-07,  avg # of iterations =  1.7

     total cpu time spent up to now is     3196.9 secs

     total energy              =    -351.22602202 Ry
     Harris-Foulkes estimate   =    -351.22604834 Ry
     estimated scf accuracy    <       0.00016163 Ry

     iteration # 27     ecut=    50.00 Ry     beta= 0.60
     Davidson diagonalization with overlap
     ethr =  2.97E-07,  avg # of iterations =  2.6

     total cpu time spent up to now is     3230.0 secs

     total energy              =    -351.22603241 Ry
     Harris-Foulkes estimate   =    -351.22603330 Ry
     estimated scf accuracy    <       0.00000433 Ry

     iteration # 28     ecut=    50.00 Ry     beta= 0.60
     Davidson diagonalization with overlap
     ethr =  1.17E-08,  avg # of iterations =  4.7

     total cpu time spent up to now is     3272.9 secs

     total energy              =    -351.22603589 Ry
     Harris-Foulkes estimate   =    -351.22603638 Ry
     estimated scf accuracy    <       0.00000614 Ry

     iteration # 29     ecut=    50.00 Ry     beta= 0.60
     Davidson diagonalization with overlap
     ethr =  1.17E-08,  avg # of iterations =  1.0

     total cpu time spent up to now is     3303.4 secs

     total energy              =    -351.22603540 Ry
     Harris-Foulkes estimate   =    -351.22603597 Ry
     estimated scf accuracy    <       0.00000277 Ry

     iteration # 30     ecut=    50.00 Ry     beta= 0.60
     Davidson diagonalization with overlap
     ethr =  7.48E-09,  avg # of iterations =  2.7

     total cpu time spent up to now is     3338.6 secs

     total energy              =    -351.22603582 Ry
     Harris-Foulkes estimate   =    -351.22603585 Ry
     estimated scf accuracy    <       0.00000034 Ry

     iteration # 31     ecut=    50.00 Ry     beta= 0.60
     Davidson diagonalization with overlap
     ethr =  9.17E-10,  avg # of iterations =  2.1

     total cpu time spent up to now is     3371.1 secs

     total energy              =    -351.22603581 Ry
     Harris-Foulkes estimate   =    -351.22603583 Ry
     estimated scf accuracy    <       0.00000014 Ry

     iteration # 32     ecut=    50.00 Ry     beta= 0.60
     Davidson diagonalization with overlap
     ethr =  3.68E-10,  avg # of iterations =  2.5

     total cpu time spent up to now is     3404.0 secs

     total energy              =    -351.22603582 Ry
     Harris-Foulkes estimate   =    -351.22603582 Ry
     estimated scf accuracy    <          5.4E-09 Ry

     iteration # 33     ecut=    50.00 Ry     beta= 0.60
     Davidson diagonalization with overlap
     ethr =  1.47E-11,  avg # of iterations =  4.6

     total cpu time spent up to now is     3446.6 secs

     total energy              =    -351.22603583 Ry
     Harris-Foulkes estimate   =    -351.22603583 Ry
     estimated scf accuracy    <          1.5E-09 Ry

     iteration # 34     ecut=    50.00 Ry     beta= 0.60
     Davidson diagonalization with overlap
     ethr =  4.02E-12,  avg # of iterations =  1.3

     total cpu time spent up to now is     3477.4 secs

     End of self-consistent calculation

     Number of k-points >= 100: set verbosity='high' to print the bands.

     the Fermi energy is    15.4681 ev

!    total energy              =    -351.22603583 Ry
     Harris-Foulkes estimate   =    -351.22603583 Ry
     estimated scf accuracy    <          7.1E-11 Ry

     The total energy is the sum of the following terms:

     one-electron contribution =     -93.96599518 Ry
     hartree contribution      =      62.35859603 Ry
     xc contribution           =     -47.60777010 Ry
     ewald contribution        =    -272.01066761 Ry
     smearing contrib. (-TS)   =      -0.00019897 Ry

     convergence has been achieved in  34 iterations

     Forces acting on atoms (cartesian axes, Ry/au):

     atom    1 type  2   force =     0.00430843    0.00430843   -0.00430843
     atom    2 type  2   force =    -0.00430843   -0.00430843    0.00430843
     atom    3 type  1   force =     0.00000000    0.00000000    0.00000000

     Total force =     0.010553     Total SCF correction =     0.000001


     Computing stress (Cartesian axis) and pressure

          total   stress  (Ry/bohr**3)                   (kbar)     P=   39.18
   0.00026634  -0.00000193   0.00000193         39.18     -0.28      0.28
  -0.00000193   0.00026634   0.00000193         -0.28     39.18      0.28
   0.00000193   0.00000193   0.00026634          0.28      0.28     39.18


     number of scf cycles    =   3
     number of bfgs steps    =   2

     enthalpy old            =    -351.2050523322 Ry
     enthalpy new            =    -351.2260358264 Ry

     CASE: enthalpy_new < enthalpy_old

     new trust radius        =       0.0417294348 bohr
     new conv_thr            =            1.0E-10 Ry

     new unit-cell volume =    353.74528 a.u.^3 (    52.41964 Ang^3 )
     density =      5.97571 g/cm^3

CELL_PARAMETERS (alat=  1.88972599)
  -0.000000000  -3.273728033  -3.273728033
  -3.273728033   3.273728033  -0.000000000
   1.630375697   1.630375697  -1.630375697

ATOMIC_POSITIONS (angstrom)
Ti      -1.635217698   1.638510334  -4.912238367
Ti      -0.012460183  -0.012460183  -3.261267849
Nb      -1.639026789   1.634701243  -1.634701243


     NEW-OLD atomic charge density approx. for the potential
     extrapolated charge   38.15815, renormalised to   37.00000

     total cpu time spent up to now is     3503.5 secs

     Self-consistent Calculation

     iteration #  1     ecut=    50.00 Ry     beta= 0.60
     Davidson diagonalization with overlap
     ethr =  1.00E-06,  avg # of iterations = 12.0

     total cpu time spent up to now is     3589.5 secs

     total energy              =    -350.98796983 Ry
     Harris-Foulkes estimate   =    -349.05401534 Ry
     estimated scf accuracy    <       0.20384888 Ry

     iteration #  2     ecut=    50.00 Ry     beta= 0.60
     Davidson diagonalization with overlap
     ethr =  5.51E-04,  avg # of iterations =  5.1

     total cpu time spent up to now is     3648.0 secs

     total energy              =    -350.93755984 Ry
     Harris-Foulkes estimate   =    -351.66251107 Ry
     estimated scf accuracy    <       4.20875844 Ry

     iteration #  3     ecut=    50.00 Ry     beta= 0.60
     Davidson diagonalization with overlap
     ethr =  5.51E-04,  avg # of iterations =  4.8

     total cpu time spent up to now is     3695.5 secs

     total energy              =    -351.22096635 Ry
     Harris-Foulkes estimate   =    -351.26871446 Ry
     estimated scf accuracy    <       0.14488679 Ry

     iteration #  4     ecut=    50.00 Ry     beta= 0.60
     Davidson diagonalization with overlap
     ethr =  3.92E-04,  avg # of iterations =  2.0

     total cpu time spent up to now is     3728.3 secs

     total energy              =    -351.22959198 Ry
     Harris-Foulkes estimate   =    -351.23771033 Ry
     estimated scf accuracy    <       0.04986902 Ry

     iteration #  5     ecut=    50.00 Ry     beta= 0.60
     Davidson diagonalization with overlap
     ethr =  1.35E-04,  avg # of iterations =  2.0

     total cpu time spent up to now is     3760.6 secs

     total energy              =    -351.22928126 Ry
     Harris-Foulkes estimate   =    -351.23173908 Ry
     estimated scf accuracy    <       0.02333545 Ry

     iteration #  6     ecut=    50.00 Ry     beta= 0.60
     Davidson diagonalization with overlap
     ethr =  6.31E-05,  avg # of iterations =  1.2

     total cpu time spent up to now is     3791.3 secs

     total energy              =    -351.22790584 Ry
     Harris-Foulkes estimate   =    -351.22984619 Ry
     estimated scf accuracy    <       0.01502061 Ry

     iteration #  7     ecut=    50.00 Ry     beta= 0.60
     Davidson diagonalization with overlap
     ethr =  4.06E-05,  avg # of iterations =  1.5

     total cpu time spent up to now is     3822.4 secs

     total energy              =    -351.22809087 Ry
     Harris-Foulkes estimate   =    -351.22833259 Ry
     estimated scf accuracy    <       0.00679272 Ry

     iteration #  8     ecut=    50.00 Ry     beta= 0.60
     Davidson diagonalization with overlap
     ethr =  1.84E-05,  avg # of iterations =  1.3

     total cpu time spent up to now is     3853.2 secs

     total energy              =    -351.22712772 Ry
     Harris-Foulkes estimate   =    -351.22819223 Ry
     estimated scf accuracy    <       0.00579978 Ry

     iteration #  9     ecut=    50.00 Ry     beta= 0.60
     Davidson diagonalization with overlap
     ethr =  1.57E-05,  avg # of iterations =  1.8

     total cpu time spent up to now is     3884.6 secs

     total energy              =    -351.22717160 Ry
     Harris-Foulkes estimate   =    -351.22739035 Ry
     estimated scf accuracy    <       0.00149806 Ry

     iteration # 10     ecut=    50.00 Ry     beta= 0.60
     Davidson diagonalization with overlap
     ethr =  4.05E-06,  avg # of iterations =  4.2

     total cpu time spent up to now is     3923.2 secs

     total energy              =    -351.22733184 Ry
     Harris-Foulkes estimate   =    -351.22738997 Ry
     estimated scf accuracy    <       0.00012901 Ry

     iteration # 11     ecut=    50.00 Ry     beta= 0.60
     Davidson diagonalization with overlap
     ethr =  3.49E-07,  avg # of iterations =  4.8

     total cpu time spent up to now is     3965.9 secs

     total energy              =    -351.22739170 Ry
     Harris-Foulkes estimate   =    -351.22738643 Ry
     estimated scf accuracy    <       0.00009684 Ry

     iteration # 12     ecut=    50.00 Ry     beta= 0.60
     Davidson diagonalization with overlap
     ethr =  2.62E-07,  avg # of iterations =  1.0

     total cpu time spent up to now is     3996.5 secs

     total energy              =    -351.22738949 Ry
     Harris-Foulkes estimate   =    -351.22739311 Ry
     estimated scf accuracy    <       0.00013456 Ry

     iteration # 13     ecut=    50.00 Ry     beta= 0.60
     Davidson diagonalization with overlap
     ethr =  2.62E-07,  avg # of iterations =  1.0

     total cpu time spent up to now is     4027.0 secs

     total energy              =    -351.22738544 Ry
     Harris-Foulkes estimate   =    -351.22738985 Ry
     estimated scf accuracy    <       0.00011203 Ry

     iteration # 14     ecut=    50.00 Ry     beta= 0.60
     Davidson diagonalization with overlap
     ethr =  2.62E-07,  avg # of iterations =  1.0

     total cpu time spent up to now is     4057.5 secs

     total energy              =    -351.22738156 Ry
     Harris-Foulkes estimate   =    -351.22738575 Ry
     estimated scf accuracy    <       0.00008333 Ry

     iteration # 15     ecut=    50.00 Ry     beta= 0.60
     Davidson diagonalization with overlap
     ethr =  2.25E-07,  avg # of iterations =  1.0

     total cpu time spent up to now is     4088.0 secs

     total energy              =    -351.22737573 Ry
     Harris-Foulkes estimate   =    -351.22738202 Ry
     estimated scf accuracy    <       0.00005194 Ry

     iteration # 16     ecut=    50.00 Ry     beta= 0.60
     Davidson diagonalization with overlap
     ethr =  1.40E-07,  avg # of iterations =  1.0

     total cpu time spent up to now is     4118.5 secs

     total energy              =    -351.22737885 Ry
     Harris-Foulkes estimate   =    -351.22737741 Ry
     estimated scf accuracy    <       0.00001230 Ry

     iteration # 17     ecut=    50.00 Ry     beta= 0.60
     Davidson diagonalization with overlap
     ethr =  3.32E-08,  avg # of iterations =  1.9

     total cpu time spent up to now is     4150.3 secs

     total energy              =    -351.22737719 Ry
     Harris-Foulkes estimate   =    -351.22737940 Ry
     estimated scf accuracy    <       0.00002107 Ry

     iteration # 18     ecut=    50.00 Ry     beta= 0.60
     Davidson diagonalization with overlap
     ethr =  3.32E-08,  avg # of iterations =  1.2

     total cpu time spent up to now is     4180.9 secs

     total energy              =    -351.22737417 Ry
     Harris-Foulkes estimate   =    -351.22737756 Ry
     estimated scf accuracy    <       0.00000879 Ry

     iteration # 19     ecut=    50.00 Ry     beta= 0.60
     Davidson diagonalization with overlap
     ethr =  2.38E-08,  avg # of iterations =  4.0

     total cpu time spent up to now is     4221.5 secs

     total energy              =    -351.22737588 Ry
     Harris-Foulkes estimate   =    -351.22737810 Ry
     estimated scf accuracy    <       0.00001157 Ry

     iteration # 20     ecut=    50.00 Ry     beta= 0.60
     Davidson diagonalization with overlap
     ethr =  2.38E-08,  avg # of iterations =  1.0

     total cpu time spent up to now is     4252.0 secs

     total energy              =    -351.22737655 Ry
     Harris-Foulkes estimate   =    -351.22737665 Ry
     estimated scf accuracy    <       0.00000075 Ry

     iteration # 21     ecut=    50.00 Ry     beta= 0.60
     Davidson diagonalization with overlap
     ethr =  2.03E-09,  avg # of iterations =  4.3

     total cpu time spent up to now is     4294.0 secs

     total energy              =    -351.22737694 Ry
     Harris-Foulkes estimate   =    -351.22737709 Ry
     estimated scf accuracy    <       0.00000080 Ry

     iteration # 22     ecut=    50.00 Ry     beta= 0.60
     Davidson diagonalization with overlap
     ethr =  2.03E-09,  avg # of iterations =  1.0

     total cpu time spent up to now is     4325.3 secs

     total energy              =    -351.22737699 Ry
     Harris-Foulkes estimate   =    -351.22737699 Ry
     estimated scf accuracy    <       0.00000004 Ry

     iteration # 23     ecut=    50.00 Ry     beta= 0.60
     Davidson diagonalization with overlap
     ethr =  1.00E-10,  avg # of iterations =  4.6

     total cpu time spent up to now is     4368.2 secs

     total energy              =    -351.22737702 Ry
     Harris-Foulkes estimate   =    -351.22737703 Ry
     estimated scf accuracy    <       0.00000008 Ry

     iteration # 24     ecut=    50.00 Ry     beta= 0.60
     Davidson diagonalization with overlap
     ethr =  1.00E-10,  avg # of iterations =  1.0

     total cpu time spent up to now is     4398.7 secs

     total energy              =    -351.22737702 Ry
     Harris-Foulkes estimate   =    -351.22737702 Ry
     estimated scf accuracy    <       0.00000003 Ry

     iteration # 25     ecut=    50.00 Ry     beta= 0.60
     Davidson diagonalization with overlap
     ethr =  7.42E-11,  avg # of iterations =  1.1

     total cpu time spent up to now is     4429.3 secs

     total energy              =    -351.22737702 Ry
     Harris-Foulkes estimate   =    -351.22737702 Ry
     estimated scf accuracy    <       0.00000001 Ry

     iteration # 26     ecut=    50.00 Ry     beta= 0.60
     Davidson diagonalization with overlap
     ethr =  3.10E-11,  avg # of iterations =  3.3

     total cpu time spent up to now is     4463.8 secs

     total energy              =    -351.22737702 Ry
     Harris-Foulkes estimate   =    -351.22737702 Ry
     estimated scf accuracy    <          1.8E-09 Ry

     iteration # 27     ecut=    50.00 Ry     beta= 0.60
     Davidson diagonalization with overlap
     ethr =  4.74E-12,  avg # of iterations =  3.9

     total cpu time spent up to now is     4502.2 secs

     total energy              =    -351.22737702 Ry
     Harris-Foulkes estimate   =    -351.22737702 Ry
     estimated scf accuracy    <          4.2E-10 Ry

     iteration # 28     ecut=    50.00 Ry     beta= 0.60
     Davidson diagonalization with overlap
     ethr =  1.12E-12,  avg # of iterations =  2.6

     total cpu time spent up to now is     4535.0 secs

     total energy              =    -351.22737702 Ry
     Harris-Foulkes estimate   =    -351.22737702 Ry
     estimated scf accuracy    <          3.3E-10 Ry

     iteration # 29     ecut=    50.00 Ry     beta= 0.60
     Davidson diagonalization with overlap
     ethr =  8.85E-13,  avg # of iterations =  1.8

     total cpu time spent up to now is     4566.7 secs

     End of self-consistent calculation

     Number of k-points >= 100: set verbosity='high' to print the bands.

     the Fermi energy is    14.8715 ev

!    total energy              =    -351.22737702 Ry
     Harris-Foulkes estimate   =    -351.22737702 Ry
     estimated scf accuracy    <          1.6E-11 Ry

     The total energy is the sum of the following terms:

     one-electron contribution =     -98.39151324 Ry
     hartree contribution      =      63.65518725 Ry
     xc contribution           =     -47.51502943 Ry
     ewald contribution        =    -268.97585049 Ry
     smearing contrib. (-TS)   =      -0.00017111 Ry

     convergence has been achieved in  29 iterations

     Forces acting on atoms (cartesian axes, Ry/au):

     atom    1 type  2   force =     0.00426830    0.00426830   -0.00426830
     atom    2 type  2   force =    -0.00426830   -0.00426830    0.00426830
     atom    3 type  1   force =     0.00000000    0.00000000    0.00000000

     Total force =     0.010455     Total SCF correction =     0.000001


     Computing stress (Cartesian axis) and pressure

          total   stress  (Ry/bohr**3)                   (kbar)     P=   -5.43
  -0.00003688  -0.00000533   0.00000533         -5.43     -0.78      0.78
  -0.00000533  -0.00003688   0.00000533         -0.78     -5.43      0.78
   0.00000533   0.00000533  -0.00003688          0.78      0.78     -5.43


     number of scf cycles    =   4
     number of bfgs steps    =   3

     enthalpy old            =    -351.2260358264 Ry
     enthalpy new            =    -351.2273770183 Ry

     CASE: enthalpy_new < enthalpy_old

     new trust radius        =       0.0062559771 bohr
     new conv_thr            =            1.0E-10 Ry

     new unit-cell volume =    352.42363 a.u.^3 (    52.22379 Ang^3 )
     density =      5.99812 g/cm^3

CELL_PARAMETERS (alat=  1.88972599)
  -0.000000000  -3.270070227  -3.270070227
  -3.270070227   3.270070227  -0.000000000
   1.627920127   1.627920127  -1.627920127

ATOMIC_POSITIONS (angstrom)
Ti      -1.632119264   1.637950963  -4.908021190
Ti      -0.014774161  -0.014774161  -3.255296066
Nb      -1.637406776   1.632663451  -1.632663451


     NEW-OLD atomic charge density approx. for the potential
     extrapolated charge   36.86875, renormalised to   37.00000

     total cpu time spent up to now is     4594.0 secs

     Self-consistent Calculation

     iteration #  1     ecut=    50.00 Ry     beta= 0.60
     Davidson diagonalization with overlap
     ethr =  1.00E-06,  avg # of iterations =  4.6

     total cpu time spent up to now is     4652.1 secs

     total energy              =    -351.22344798 Ry
     Harris-Foulkes estimate   =    -351.47788995 Ry
     estimated scf accuracy    <       0.00366030 Ry

     iteration #  2     ecut=    50.00 Ry     beta= 0.60
     Davidson diagonalization with overlap
     ethr =  9.89E-06,  avg # of iterations =  5.1

     total cpu time spent up to now is     4710.0 secs

     total energy              =    -351.22256019 Ry
     Harris-Foulkes estimate   =    -351.23508183 Ry
     estimated scf accuracy    <       0.07221203 Ry

     iteration #  3     ecut=    50.00 Ry     beta= 0.60
     Davidson diagonalization with overlap
     ethr =  9.89E-06,  avg # of iterations =  4.8

     total cpu time spent up to now is     4757.5 secs

     total energy              =    -351.22748962 Ry
     Harris-Foulkes estimate   =    -351.22827161 Ry
     estimated scf accuracy    <       0.00227067 Ry

     iteration #  4     ecut=    50.00 Ry     beta= 0.60
     Davidson diagonalization with overlap
     ethr =  6.14E-06,  avg # of iterations =  2.0

     total cpu time spent up to now is     4790.0 secs

     total energy              =    -351.22752119 Ry
     Harris-Foulkes estimate   =    -351.22770205 Ry
     estimated scf accuracy    <       0.00104184 Ry

     iteration #  5     ecut=    50.00 Ry     beta= 0.60
     Davidson diagonalization with overlap
     ethr =  2.82E-06,  avg # of iterations =  2.0

     total cpu time spent up to now is     4822.7 secs

     total energy              =    -351.22749851 Ry
     Harris-Foulkes estimate   =    -351.22757125 Ry
     estimated scf accuracy    <       0.00047679 Ry

     iteration #  6     ecut=    50.00 Ry     beta= 0.60
     Davidson diagonalization with overlap
     ethr =  1.29E-06,  avg # of iterations =  1.7

     total cpu time spent up to now is     4854.0 secs

     total energy              =    -351.22747863 Ry
     Harris-Foulkes estimate   =    -351.22751695 Ry
     estimated scf accuracy    <       0.00020977 Ry

     iteration #  7     ecut=    50.00 Ry     beta= 0.60
     Davidson diagonalization with overlap
     ethr =  5.67E-07,  avg # of iterations =  2.4

     total cpu time spent up to now is     4887.5 secs

     total energy              =    -351.22749550 Ry
     Harris-Foulkes estimate   =    -351.22749596 Ry
     estimated scf accuracy    <       0.00003662 Ry

     iteration #  8     ecut=    50.00 Ry     beta= 0.60
     Davidson diagonalization with overlap
     ethr =  9.90E-08,  avg # of iterations =  2.7

     total cpu time spent up to now is     4920.9 secs

     total energy              =    -351.22749491 Ry
     Harris-Foulkes estimate   =    -351.22749784 Ry
     estimated scf accuracy    <       0.00002184 Ry

     iteration #  9     ecut=    50.00 Ry     beta= 0.60
     Davidson diagonalization with overlap
     ethr =  5.90E-08,  avg # of iterations =  2.9

     total cpu time spent up to now is     4954.1 secs

     total energy              =    -351.22749625 Ry
     Harris-Foulkes estimate   =    -351.22749636 Ry
     estimated scf accuracy    <       0.00000493 Ry

     iteration # 10     ecut=    50.00 Ry     beta= 0.60
     Davidson diagonalization with overlap
     ethr =  1.33E-08,  avg # of iterations =  3.8

     total cpu time spent up to now is     4992.5 secs

     total energy              =    -351.22749649 Ry
     Harris-Foulkes estimate   =    -351.22749714 Ry
     estimated scf accuracy    <       0.00000139 Ry

     iteration # 11     ecut=    50.00 Ry     beta= 0.60
     Davidson diagonalization with overlap
     ethr =  3.75E-09,  avg # of iterations =  3.5

     total cpu time spent up to now is     5031.0 secs

     total energy              =    -351.22749677 Ry
     Harris-Foulkes estimate   =    -351.22749679 Ry
     estimated scf accuracy    <       0.00000014 Ry

     iteration # 12     ecut=    50.00 Ry     beta= 0.60
     Davidson diagonalization with overlap
     ethr =  3.88E-10,  avg # of iterations =  2.7

     total cpu time spent up to now is     5067.3 secs

     total energy              =    -351.22749679 Ry
     Harris-Foulkes estimate   =    -351.22749680 Ry
     estimated scf accuracy    <       0.00000010 Ry

     iteration # 13     ecut=    50.00 Ry     beta= 0.60
     Davidson diagonalization with overlap
     ethr =  2.59E-10,  avg # of iterations =  1.0

     total cpu time spent up to now is     5097.8 secs

     total energy              =    -351.22749679 Ry
     Harris-Foulkes estimate   =    -351.22749679 Ry
     estimated scf accuracy    <       0.00000004 Ry

     iteration # 14     ecut=    50.00 Ry     beta= 0.60
     Davidson diagonalization with overlap
     ethr =  9.55E-11,  avg # of iterations =  1.9

     total cpu time spent up to now is     5129.4 secs

     total energy              =    -351.22749678 Ry
     Harris-Foulkes estimate   =    -351.22749679 Ry
     estimated scf accuracy    <       0.00000001 Ry

     iteration # 15     ecut=    50.00 Ry     beta= 0.60
     Davidson diagonalization with overlap
     ethr =  3.69E-11,  avg # of iterations =  3.4

     total cpu time spent up to now is     5166.3 secs

     total energy              =    -351.22749679 Ry
     Harris-Foulkes estimate   =    -351.22749679 Ry
     estimated scf accuracy    <          1.1E-09 Ry

     iteration # 16     ecut=    50.00 Ry     beta= 0.60
     Davidson diagonalization with overlap
     ethr =  2.88E-12,  avg # of iterations =  3.7

     total cpu time spent up to now is     5204.7 secs

     total energy              =    -351.22749679 Ry
     Harris-Foulkes estimate   =    -351.22749679 Ry
     estimated scf accuracy    <          2.0E-10 Ry

     iteration # 17     ecut=    50.00 Ry     beta= 0.60
     Davidson diagonalization with overlap
     ethr =  5.43E-13,  avg # of iterations =  2.5

     total cpu time spent up to now is     5237.7 secs

     End of self-consistent calculation

     Number of k-points >= 100: set verbosity='high' to print the bands.

     the Fermi energy is    14.9360 ev

!    total energy              =    -351.22749679 Ry
     Harris-Foulkes estimate   =    -351.22749679 Ry
     estimated scf accuracy    <          5.9E-11 Ry

     The total energy is the sum of the following terms:

     one-electron contribution =     -97.90446298 Ry
     hartree contribution      =      63.51238945 Ry
     xc contribution           =     -47.52534805 Ry
     ewald contribution        =    -269.30990488 Ry
     smearing contrib. (-TS)   =      -0.00017033 Ry

     convergence has been achieved in  17 iterations

     Forces acting on atoms (cartesian axes, Ry/au):

     atom    1 type  2   force =     0.00413661    0.00413661   -0.00413661
     atom    2 type  2   force =    -0.00413661   -0.00413661    0.00413661
     atom    3 type  1   force =     0.00000000    0.00000000    0.00000000

     Total force =     0.010133     Total SCF correction =     0.000002


     Computing stress (Cartesian axis) and pressure

          total   stress  (Ry/bohr**3)                   (kbar)     P=   -0.67
  -0.00000454  -0.00000402   0.00000402         -0.67     -0.59      0.59
  -0.00000402  -0.00000454   0.00000402         -0.59     -0.67      0.59
   0.00000402   0.00000402  -0.00000454          0.59      0.59     -0.67


     number of scf cycles    =   5
     number of bfgs steps    =   4

     enthalpy old            =    -351.2273770183 Ry
     enthalpy new            =    -351.2274967860 Ry

     CASE: enthalpy_new < enthalpy_old

     new trust radius        =       0.0093698322 bohr
     new conv_thr            =            1.0E-10 Ry

     new unit-cell volume =    351.66985 a.u.^3 (    52.11210 Ang^3 )
     density =      6.01098 g/cm^3

CELL_PARAMETERS (alat=  1.88972599)
  -0.000000000  -3.268264470  -3.268264470
  -3.268264470   3.268264470  -0.000000000
   1.626233838   1.626233838  -1.626233838

ATOMIC_POSITIONS (angstrom)
Ti      -1.629150474   1.639113996  -4.907378466
Ti      -0.018145755  -0.018145755  -3.250118715
Nb      -1.636765034   1.631499436  -1.631499436


     NEW-OLD atomic charge density approx. for the potential
     extrapolated charge   36.92499, renormalised to   37.00000

     total cpu time spent up to now is     5264.1 secs

     Self-consistent Calculation

     iteration #  1     ecut=    50.00 Ry     beta= 0.60
     Davidson diagonalization with overlap
     ethr =  1.00E-06,  avg # of iterations =  4.2

     total cpu time spent up to now is     5323.0 secs

     total energy              =    -351.22643344 Ry
     Harris-Foulkes estimate   =    -351.37023392 Ry
     estimated scf accuracy    <       0.00105132 Ry

     iteration #  2     ecut=    50.00 Ry     beta= 0.60
     Davidson diagonalization with overlap
     ethr =  2.84E-06,  avg # of iterations =  5.1

     total cpu time spent up to now is     5381.1 secs

     total energy              =    -351.22631393 Ry
     Harris-Foulkes estimate   =    -351.22962558 Ry
     estimated scf accuracy    <       0.01860564 Ry

     iteration #  3     ecut=    50.00 Ry     beta= 0.60
     Davidson diagonalization with overlap
     ethr =  2.84E-06,  avg # of iterations =  4.7

     total cpu time spent up to now is     5428.3 secs

     total energy              =    -351.22760784 Ry
     Harris-Foulkes estimate   =    -351.22786917 Ry
     estimated scf accuracy    <       0.00075052 Ry

     iteration #  4     ecut=    50.00 Ry     beta= 0.60
     Davidson diagonalization with overlap
     ethr =  2.03E-06,  avg # of iterations =  2.0

     total cpu time spent up to now is     5461.4 secs

     total energy              =    -351.22761274 Ry
     Harris-Foulkes estimate   =    -351.22768755 Ry
     estimated scf accuracy    <       0.00029586 Ry

     iteration #  5     ecut=    50.00 Ry     beta= 0.60
     Davidson diagonalization with overlap
     ethr =  8.00E-07,  avg # of iterations =  2.2

     total cpu time spent up to now is     5494.2 secs

     total energy              =    -351.22762018 Ry
     Harris-Foulkes estimate   =    -351.22763470 Ry
     estimated scf accuracy    <       0.00008165 Ry

     iteration #  6     ecut=    50.00 Ry     beta= 0.60
     Davidson diagonalization with overlap
     ethr =  2.21E-07,  avg # of iterations =  2.4

     total cpu time spent up to now is     5527.5 secs

     total energy              =    -351.22762187 Ry
     Harris-Foulkes estimate   =    -351.22762665 Ry
     estimated scf accuracy    <       0.00002528 Ry

     iteration #  7     ecut=    50.00 Ry     beta= 0.60
     Davidson diagonalization with overlap
     ethr =  6.83E-08,  avg # of iterations =  3.0

     total cpu time spent up to now is     5562.4 secs

     total energy              =    -351.22762490 Ry
     Harris-Foulkes estimate   =    -351.22762521 Ry
     estimated scf accuracy    <       0.00000263 Ry

     iteration #  8     ecut=    50.00 Ry     beta= 0.60
     Davidson diagonalization with overlap
     ethr =  7.10E-09,  avg # of iterations =  3.7

     total cpu time spent up to now is     5599.5 secs

     total energy              =    -351.22762532 Ry
     Harris-Foulkes estimate   =    -351.22762531 Ry
     estimated scf accuracy    <       0.00000084 Ry

     iteration #  9     ecut=    50.00 Ry     beta= 0.60
     Davidson diagonalization with overlap
     ethr =  2.26E-09,  avg # of iterations =  1.4

     total cpu time spent up to now is     5630.5 secs

     total energy              =    -351.22762515 Ry
     Harris-Foulkes estimate   =    -351.22762535 Ry
     estimated scf accuracy    <       0.00000091 Ry

     iteration # 10     ecut=    50.00 Ry     beta= 0.60
     Davidson diagonalization with overlap
     ethr =  2.26E-09,  avg # of iterations =  3.0

     total cpu time spent up to now is     5667.0 secs

     total energy              =    -351.22762522 Ry
     Harris-Foulkes estimate   =    -351.22762528 Ry
     estimated scf accuracy    <       0.00000048 Ry

     iteration # 11     ecut=    50.00 Ry     beta= 0.60
     Davidson diagonalization with overlap
     ethr =  1.30E-09,  avg # of iterations =  1.0

     total cpu time spent up to now is     5697.6 secs

     total energy              =    -351.22762521 Ry
     Harris-Foulkes estimate   =    -351.22762524 Ry
     estimated scf accuracy    <       0.00000020 Ry

     iteration # 12     ecut=    50.00 Ry     beta= 0.60
     Davidson diagonalization with overlap
     ethr =  5.33E-10,  avg # of iterations =  3.0

     total cpu time spent up to now is     5732.5 secs

     total energy              =    -351.22762522 Ry
     Harris-Foulkes estimate   =    -351.22762523 Ry
     estimated scf accuracy    <       0.00000001 Ry

     iteration # 13     ecut=    50.00 Ry     beta= 0.60
     Davidson diagonalization with overlap
     ethr =  3.59E-11,  avg # of iterations =  4.4

     total cpu time spent up to now is     5774.1 secs

     total energy              =    -351.22762522 Ry
     Harris-Foulkes estimate   =    -351.22762522 Ry
     estimated scf accuracy    <          2.6E-09 Ry

     iteration # 14     ecut=    50.00 Ry     beta= 0.60
     Davidson diagonalization with overlap
     ethr =  6.98E-12,  avg # of iterations =  1.9

     total cpu time spent up to now is     5805.7 secs

     total energy              =    -351.22762522 Ry
     Harris-Foulkes estimate   =    -351.22762522 Ry
     estimated scf accuracy    <          2.8E-09 Ry

     iteration # 15     ecut=    50.00 Ry     beta= 0.60
     Davidson diagonalization with overlap
     ethr =  6.98E-12,  avg # of iterations =  1.0

     total cpu time spent up to now is     5836.2 secs

     total energy              =    -351.22762522 Ry
     Harris-Foulkes estimate   =    -351.22762522 Ry
     estimated scf accuracy    <          9.9E-10 Ry

     iteration # 16     ecut=    50.00 Ry     beta= 0.60
     Davidson diagonalization with overlap
     ethr =  2.69E-12,  avg # of iterations =  3.0

     total cpu time spent up to now is     5871.2 secs

     End of self-consistent calculation

     Number of k-points >= 100: set verbosity='high' to print the bands.

     the Fermi energy is    14.9723 ev

!    total energy              =    -351.22762522 Ry
     Harris-Foulkes estimate   =    -351.22762522 Ry
     estimated scf accuracy    <          2.4E-11 Ry

     The total energy is the sum of the following terms:

     one-electron contribution =     -97.62933775 Ry
     hartree contribution      =      63.43260123 Ry
     xc contribution           =     -47.53143339 Ry
     ewald contribution        =    -269.49928558 Ry
     smearing contrib. (-TS)   =      -0.00016974 Ry

     convergence has been achieved in  16 iterations

     Forces acting on atoms (cartesian axes, Ry/au):

     atom    1 type  2   force =     0.00393292    0.00393292   -0.00393292
     atom    2 type  2   force =    -0.00393292   -0.00393292    0.00393292
     atom    3 type  1   force =    -0.00000000    0.00000000   -0.00000000

     Total force =     0.009634     Total SCF correction =     0.000001


     Computing stress (Cartesian axis) and pressure

          total   stress  (Ry/bohr**3)                   (kbar)     P=    2.09
   0.00001424  -0.00000243   0.00000243          2.09     -0.36      0.36
  -0.00000243   0.00001424   0.00000243         -0.36      2.09      0.36
   0.00000243   0.00000243   0.00001424          0.36      0.36      2.09


     number of scf cycles    =   6
     number of bfgs steps    =   5

     enthalpy old            =    -351.2274967860 Ry
     enthalpy new            =    -351.2276252239 Ry

     CASE: enthalpy_new < enthalpy_old

     new trust radius        =       0.0140401896 bohr
     new conv_thr            =            1.0E-10 Ry

     new unit-cell volume =    351.09771 a.u.^3 (    52.02731 Ang^3 )
     density =      6.02077 g/cm^3

CELL_PARAMETERS (alat=  1.88972599)
  -0.000000000  -3.267168215  -3.267168215
  -3.267168215   3.267168215  -0.000000000
   1.624677768   1.624677768  -1.624677768

ATOMIC_POSITIONS (angstrom)
Ti      -1.625337151   1.641831064  -4.908999279
Ti      -0.023090855  -0.023090855  -3.244077360
Nb      -1.636552888   1.630615328  -1.630615328


     NEW-OLD atomic charge density approx. for the potential
     extrapolated charge   36.94297, renormalised to   37.00000

     total cpu time spent up to now is     5897.2 secs

     Self-consistent Calculation

     iteration #  1     ecut=    50.00 Ry     beta= 0.60
     Davidson diagonalization with overlap
     ethr =  1.00E-06,  avg # of iterations =  4.5

     total cpu time spent up to now is     5958.4 secs

     total energy              =    -351.22717073 Ry
     Harris-Foulkes estimate   =    -351.33599226 Ry
     estimated scf accuracy    <       0.00054579 Ry

     iteration #  2     ecut=    50.00 Ry     beta= 0.60
     Davidson diagonalization with overlap
     ethr =  1.48E-06,  avg # of iterations =  5.0

     total cpu time spent up to now is     6016.9 secs

     total energy              =    -351.22721294 Ry
     Harris-Foulkes estimate   =    -351.22869167 Ry
     estimated scf accuracy    <       0.00783535 Ry

     iteration #  3     ecut=    50.00 Ry     beta= 0.60
     Davidson diagonalization with overlap
     ethr =  1.48E-06,  avg # of iterations =  4.6

     total cpu time spent up to now is     6062.2 secs

     total energy              =    -351.22777161 Ry
     Harris-Foulkes estimate   =    -351.22793654 Ry
     estimated scf accuracy    <       0.00048694 Ry

     iteration #  4     ecut=    50.00 Ry     beta= 0.60
     Davidson diagonalization with overlap
     ethr =  1.32E-06,  avg # of iterations =  2.1

     total cpu time spent up to now is     6095.9 secs

     total energy              =    -351.22778435 Ry
     Harris-Foulkes estimate   =    -351.22782986 Ry
     estimated scf accuracy    <       0.00014954 Ry

     iteration #  5     ecut=    50.00 Ry     beta= 0.60
     Davidson diagonalization with overlap
     ethr =  4.04E-07,  avg # of iterations =  2.9

     total cpu time spent up to now is     6130.7 secs

     total energy              =    -351.22779337 Ry
     Harris-Foulkes estimate   =    -351.22780002 Ry
     estimated scf accuracy    <       0.00003218 Ry

     iteration #  6     ecut=    50.00 Ry     beta= 0.60
     Davidson diagonalization with overlap
     ethr =  8.70E-08,  avg # of iterations =  2.4

     total cpu time spent up to now is     6163.5 secs

     total energy              =    -351.22779630 Ry
     Harris-Foulkes estimate   =    -351.22779674 Ry
     estimated scf accuracy    <       0.00000411 Ry

     iteration #  7     ecut=    50.00 Ry     beta= 0.60
     Davidson diagonalization with overlap
     ethr =  1.11E-08,  avg # of iterations =  3.7

     total cpu time spent up to now is     6201.4 secs

     total energy              =    -351.22779691 Ry
     Harris-Foulkes estimate   =    -351.22779708 Ry
     estimated scf accuracy    <       0.00000064 Ry

     iteration #  8     ecut=    50.00 Ry     beta= 0.60
     Davidson diagonalization with overlap
     ethr =  1.72E-09,  avg # of iterations =  3.1

     total cpu time spent up to now is     6237.0 secs

     total energy              =    -351.22779696 Ry
     Harris-Foulkes estimate   =    -351.22779699 Ry
     estimated scf accuracy    <       0.00000010 Ry

     iteration #  9     ecut=    50.00 Ry     beta= 0.60
     Davidson diagonalization with overlap
     ethr =  2.77E-10,  avg # of iterations =  3.9

     total cpu time spent up to now is     6277.2 secs

     total energy              =    -351.22779699 Ry
     Harris-Foulkes estimate   =    -351.22779699 Ry
     estimated scf accuracy    <       0.00000002 Ry

     iteration # 10     ecut=    50.00 Ry     beta= 0.60
     Davidson diagonalization with overlap
     ethr =  4.38E-11,  avg # of iterations =  2.2

     total cpu time spent up to now is     6310.1 secs

     total energy              =    -351.22779699 Ry
     Harris-Foulkes estimate   =    -351.22779699 Ry
     estimated scf accuracy    <          7.1E-09 Ry

[...]
  -0.00000001   0.00000001   0.00000001         -0.00      0.00      0.00
   0.00000001   0.00000001   0.00000001          0.00      0.00      0.00


     bfgs converged in  20 scf cycles and  19 bfgs steps
     (criteria: energy <  1.0E-10 Ry, force <  1.0E-05Ry/Bohr, cell <  1.0E-03kbar)

     End of BFGS Geometry Optimization

     Final enthalpy =    -351.2287106298 Ry
Begin final coordinates
     new unit-cell volume =    352.56590 a.u.^3 (    52.24488 Ang^3 )
     density =      5.99570 g/cm^3

CELL_PARAMETERS (alat=  1.88972599)
  -0.000000000  -3.265074367  -3.265074367
  -3.265074367   3.265074367  -0.000000000
   1.633564869   1.633564869  -1.633564869

ATOMIC_POSITIONS (angstrom)
Ti      -1.573363867   1.691710500  -4.956784867
Ti      -0.057460508  -0.057460508  -3.207613859
Nb      -1.632194622   1.632879745  -1.632879745
End final coordinates



     A final scf calculation at the relaxed structure.
     The G-vectors are recalculated for the final unit cell
     Results may differ from those at the preceding step.
 
     G-vector sticks info
     --------------------
     sticks:   dense  smooth     PW     G-vecs:    dense   smooth      PW
     Sum        2623    1045    313                66573    16729    2833
 


     bravais-lattice index     =            0
     lattice parameter (alat)  =       1.8897  a.u.
     unit-cell volume          =     352.5659 (a.u.)^3
     number of atoms/cell      =            3
     number of atomic types    =            2
     number of electrons       =        37.00
     number of Kohn-Sham states=           23
     kinetic-energy cutoff     =      50.0000  Ry
     charge density cutoff     =     500.0000  Ry
     convergence threshold     =      1.0E-12
     mixing beta               =       0.6000
     number of iterations used =            8  plain     mixing
     Exchange-correlation      = SLA PW PBE PBE ( 1  4  3  4 0 0)

     celldm(1)=   1.889726  celldm(2)=   0.000000  celldm(3)=   0.000000
     celldm(4)=   0.000000  celldm(5)=   0.000000  celldm(6)=   0.000000

     crystal axes: (cart. coord. in units of alat)
               a(1) = (  -0.000000  -3.265074  -3.265074 )  
               a(2) = (  -3.265074   3.265074  -0.000000 )  
               a(3) = (   1.633565   1.633565  -1.633565 )  

     reciprocal axes: (cart. coord. in units 2 pi/alat)
               b(1) = ( -0.102091 -0.102091 -0.204181 )  
               b(2) = ( -0.204181  0.102091 -0.102091 )  
               b(3) = (  0.204053  0.204053 -0.204053 )  


     PseudoPot. # 1 for Nb read from file:
     /home/u16/abhishekkt/fp/krishna/calculations/pseudopotentials/Nb.pbe-nsp-van.UPF
     MD5 check sum: c44c1a86bf31974e1e832c2ec821fd5f
     Pseudo is Ultrasoft + core correction, Zval = 13.0
     Generated by new atomic code, or converted to UPF format
     Using radial grid of  887 points,  6 beta functions with: 
                l(1) =   0
                l(2) =   0
                l(3) =   1
                l(4) =   1
                l(5) =   2
                l(6) =   2
     Q(r) pseudized with  6 coefficients,  rinner =    1.000   1.000   1.000
                                                       1.000   1.000

     PseudoPot. # 2 for Ti read from file:
     /home/u16/abhishekkt/fp/krishna/calculations/pseudopotentials/Ti.pbe-sp-van_ak.UPF
     MD5 check sum: 84d3ec9e8983e94242673103c800fb48
     Pseudo is Ultrasoft, Zval = 12.0
     Generated by new atomic code, or converted to UPF format
     Using radial grid of  851 points,  6 beta functions with: 
                l(1) =   0
                l(2) =   0
                l(3) =   1
                l(4) =   1
                l(5) =   2
                l(6) =   2
     Q(r) pseudized with  8 coefficients,  rinner =    1.000   1.000   1.000
                                                       1.000   1.000

     atomic species   valence    mass     pseudopotential
        Nb            13.00    92.90638     Nb( 1.00)
        Ti            12.00    47.86700     Ti( 1.00)

     12 Sym. Ops., with inversion, found ( 6 have fractional translation)



   Cartesian axes

     site n.     atom                  positions (alat units)
         1           Ti  tau(   1) = (  -1.5733640   1.6917106  -4.9567852  )
         2           Ti  tau(   2) = (  -0.0574605  -0.0574605  -3.2076141  )
         3           Nb  tau(   3) = (  -1.6321947   1.6328799  -1.6328799  )

     number of k points=   298  Marzari-Vanderbilt smearing, width (Ry)=  0.0200

     Number of k-points >= 100: set verbosity='high' to print them.

     Dense  grid:    66573 G-vectors     FFT dimensions: (  64,  64,  40)

     Smooth grid:    16729 G-vectors     FFT dimensions: (  40,  40,  25)

     Estimated max dynamical RAM per process >     470.82 MB

     Initial potential from superposition of free atoms

     starting charge   34.99718, renormalised to   37.00000
     Starting wfcs are   33 randomized atomic wfcs

     total cpu time spent up to now is    13511.4 secs

     Self-consistent Calculation

     iteration #  1     ecut=    50.00 Ry     beta= 0.60
     Davidson diagonalization with overlap
     c_bands:  1 eigenvalues not converged
     c_bands:  1 eigenvalues not converged
     c_bands:  1 eigenvalues not converged
     c_bands:  1 eigenvalues not converged
     c_bands:  1 eigenvalues not converged
     c_bands:  1 eigenvalues not converged
     c_bands:  1 eigenvalues not converged
     c_bands:  1 eigenvalues not converged
     c_bands:  1 eigenvalues not converged
     c_bands:  1 eigenvalues not converged
     c_bands:  1 eigenvalues not converged
     c_bands:  1 eigenvalues not converged
     c_bands:  1 eigenvalues not converged
     c_bands:  1 eigenvalues not converged
     c_bands:  1 eigenvalues not converged
     c_bands:  1 eigenvalues not converged
     c_bands:  1 eigenvalues not converged
     c_bands:  1 eigenvalues not converged
     c_bands:  1 eigenvalues not converged
     c_bands:  1 eigenvalues not converged
     c_bands:  1 eigenvalues not converged
     c_bands:  1 eigenvalues not converged
     c_bands:  1 eigenvalues not converged
     c_bands:  1 eigenvalues not converged
     c_bands:  1 eigenvalues not converged
     c_bands:  1 eigenvalues not converged
     c_bands:  1 eigenvalues not converged
     c_bands:  1 eigenvalues not converged
     c_bands:  1 eigenvalues not converged
     c_bands:  1 eigenvalues not converged
     c_bands:  1 eigenvalues not converged
     c_bands:  1 eigenvalues not converged
     c_bands:  1 eigenvalues not converged
     c_bands:  1 eigenvalues not converged
     c_bands:  1 eigenvalues not converged
     c_bands:  1 eigenvalues not converged
     c_bands:  1 eigenvalues not converged
     c_bands:  1 eigenvalues not converged
     c_bands:  1 eigenvalues not converged
     c_bands:  1 eigenvalues not converged
     c_bands:  1 eigenvalues not converged
     c_bands:  1 eigenvalues not converged
     c_bands:  1 eigenvalues not converged
     c_bands:  1 eigenvalues not converged
     c_bands:  1 eigenvalues not converged
     c_bands:  1 eigenvalues not converged
     c_bands:  1 eigenvalues not converged
     c_bands:  1 eigenvalues not converged
     c_bands:  1 eigenvalues not converged
     c_bands:  1 eigenvalues not converged
     c_bands:  1 eigenvalues not converged
     c_bands:  1 eigenvalues not converged
     c_bands:  1 eigenvalues not converged
     c_bands:  1 eigenvalues not converged
     c_bands:  1 eigenvalues not converged
     c_bands:  1 eigenvalues not converged
     c_bands:  1 eigenvalues not converged
     c_bands:  1 eigenvalues not converged
     c_bands:  1 eigenvalues not converged
     c_bands:  1 eigenvalues not converged
     c_bands:  1 eigenvalues not converged
     c_bands:  1 eigenvalues not converged
     c_bands:  1 eigenvalues not converged
     c_bands:  1 eigenvalues not converged
     c_bands:  1 eigenvalues not converged
     c_bands:  1 eigenvalues not converged
     c_bands:  1 eigenvalues not converged
     c_bands:  1 eigenvalues not converged
     c_bands:  1 eigenvalues not converged
     c_bands:  1 eigenvalues not converged
     c_bands:  1 eigenvalues not converged
     c_bands:  1 eigenvalues not converged
     c_bands:  1 eigenvalues not converged
     c_bands:  1 eigenvalues not converged
     c_bands:  1 eigenvalues not converged
     c_bands:  1 eigenvalues not converged
     c_bands:  1 eigenvalues not converged
     c_bands:  1 eigenvalues not converged
     c_bands:  1 eigenvalues not converged
     c_bands:  1 eigenvalues not converged
     ethr =  1.00E-06,  avg # of iterations = 14.8

     total cpu time spent up to now is    13586.7 secs

     total energy              =    -349.09209679 Ry
     Harris-Foulkes estimate   =    -352.12593144 Ry
     estimated scf accuracy    <       3.96458748 Ry

     iteration #  2     ecut=    50.00 Ry     beta= 0.60
     Davidson diagonalization with overlap
     ethr =  1.00E-02,  avg # of iterations =  4.3

     total cpu time spent up to now is    13622.2 secs

     total energy              =    -348.78564766 Ry
     Harris-Foulkes estimate   =    -355.70136939 Ry
     estimated scf accuracy    <      23.42410535 Ry

     iteration #  3     ecut=    50.00 Ry     beta= 0.60
     Davidson diagonalization with overlap
     ethr =  1.00E-02,  avg # of iterations =  4.1

     total cpu time spent up to now is    13652.3 secs

     total energy              =    -351.15425128 Ry
     Harris-Foulkes estimate   =    -351.19953390 Ry
     estimated scf accuracy    <       0.11542523 Ry

     iteration #  4     ecut=    50.00 Ry     beta= 0.60
     Davidson diagonalization with overlap
     ethr =  3.12E-04,  avg # of iterations =  6.2

     total cpu time spent up to now is    13694.3 secs

     total energy              =    -351.21775160 Ry
     Harris-Foulkes estimate   =    -351.23547370 Ry
     estimated scf accuracy    <       0.06037012 Ry

     iteration #  5     ecut=    50.00 Ry     beta= 0.60
     Davidson diagonalization with overlap
     ethr =  1.63E-04,  avg # of iterations =  4.3

     total cpu time spent up to now is    13724.2 secs

     total energy              =    -351.23954192 Ry
     Harris-Foulkes estimate   =    -351.23634817 Ry
     estimated scf accuracy    <       0.05055524 Ry

     iteration #  6     ecut=    50.00 Ry     beta= 0.60
     Davidson diagonalization with overlap
     ethr =  1.37E-04,  avg # of iterations =  1.1

     total cpu time spent up to now is    13746.4 secs

     total energy              =    -351.21850087 Ry
     Harris-Foulkes estimate   =    -351.24000834 Ry
     estimated scf accuracy    <       0.06786398 Ry

     iteration #  7     ecut=    50.00 Ry     beta= 0.60
     Davidson diagonalization with overlap
     ethr =  1.37E-04,  avg # of iterations =  3.0

     total cpu time spent up to now is    13773.5 secs

     total energy              =    -351.22792133 Ry
     Harris-Foulkes estimate   =    -351.22826923 Ry
     estimated scf accuracy    <       0.00188926 Ry

     iteration #  8     ecut=    50.00 Ry     beta= 0.60
     Davidson diagonalization with overlap
     ethr =  5.11E-06,  avg # of iterations =  5.6

     total cpu time spent up to now is    13807.5 secs

     total energy              =    -351.22822460 Ry
     Harris-Foulkes estimate   =    -351.22852486 Ry
     estimated scf accuracy    <       0.00154118 Ry

     iteration #  9     ecut=    50.00 Ry     beta= 0.60
     Davidson diagonalization with overlap
     ethr =  4.17E-06,  avg # of iterations =  2.4

     total cpu time spent up to now is    13831.4 secs

     total energy              =    -351.22834905 Ry
     Harris-Foulkes estimate   =    -351.22839611 Ry
     estimated scf accuracy    <       0.00012272 Ry

     iteration # 10     ecut=    50.00 Ry     beta= 0.60
     Davidson diagonalization with overlap
     ethr =  3.32E-07,  avg # of iterations =  5.0

     total cpu time spent up to now is    13864.4 secs

     total energy              =    -351.22837286 Ry
     Harris-Foulkes estimate   =    -351.22842642 Ry
     estimated scf accuracy    <       0.00043778 Ry

     iteration # 11     ecut=    50.00 Ry     beta= 0.60
     Davidson diagonalization with overlap
     ethr =  3.32E-07,  avg # of iterations =  2.5

     total cpu time spent up to now is    13889.6 secs

     total energy              =    -351.22836955 Ry
     Harris-Foulkes estimate   =    -351.22838685 Ry
     estimated scf accuracy    <       0.00009514 Ry

     iteration # 12     ecut=    50.00 Ry     beta= 0.60
     Davidson diagonalization with overlap
     ethr =  2.57E-07,  avg # of iterations =  3.5

     total cpu time spent up to now is    13916.5 secs

     total energy              =    -351.22838335 Ry
     Harris-Foulkes estimate   =    -351.22838418 Ry
     estimated scf accuracy    <       0.00000545 Ry

     iteration # 13     ecut=    50.00 Ry     beta= 0.60
     Davidson diagonalization with overlap
     ethr =  1.47E-08,  avg # of iterations =  3.6

     total cpu time spent up to now is    13943.0 secs

     total energy              =    -351.22838407 Ry
     Harris-Foulkes estimate   =    -351.22838445 Ry
     estimated scf accuracy    <       0.00000210 Ry

     iteration # 14     ecut=    50.00 Ry     beta= 0.60
     Davidson diagonalization with overlap
     ethr =  5.69E-09,  avg # of iterations =  3.2

     total cpu time spent up to now is    13969.2 secs

     total energy              =    -351.22838436 Ry
     Harris-Foulkes estimate   =    -351.22838436 Ry
     estimated scf accuracy    <       0.00000003 Ry

     iteration # 15     ecut=    50.00 Ry     beta= 0.60
     Davidson diagonalization with overlap
     ethr =  8.27E-11,  avg # of iterations =  4.7

     total cpu time spent up to now is    14000.5 secs

     total energy              =    -351.22838438 Ry
     Harris-Foulkes estimate   =    -351.22838438 Ry
     estimated scf accuracy    <       0.00000004 Ry

     iteration # 16     ecut=    50.00 Ry     beta= 0.60
     Davidson diagonalization with overlap
     ethr =  8.27E-11,  avg # of iterations =  1.0

     total cpu time spent up to now is    14022.7 secs

     total energy              =    -351.22838438 Ry
     Harris-Foulkes estimate   =    -351.22838438 Ry
     estimated scf accuracy    <       0.00000001 Ry

     iteration # 17     ecut=    50.00 Ry     beta= 0.60
     Davidson diagonalization with overlap
     ethr =  3.81E-11,  avg # of iterations =  3.3

     total cpu time spent up to now is    14050.2 secs

     total energy              =    -351.22838438 Ry
     Harris-Foulkes estimate   =    -351.22838438 Ry
     estimated scf accuracy    <          3.5E-09 Ry

     iteration # 18     ecut=    50.00 Ry     beta= 0.60
     Davidson diagonalization with overlap
     ethr =  9.42E-12,  avg # of iterations =  1.3

     total cpu time spent up to now is    14072.8 secs

     total energy              =    -351.22838438 Ry
     Harris-Foulkes estimate   =    -351.22838438 Ry
     estimated scf accuracy    <          5.9E-10 Ry

     iteration # 19     ecut=    50.00 Ry     beta= 0.60
     Davidson diagonalization with overlap
     ethr =  1.59E-12,  avg # of iterations =  3.8

     total cpu time spent up to now is    14101.3 secs

     total energy              =    -351.22838438 Ry
     Harris-Foulkes estimate   =    -351.22838438 Ry
     estimated scf accuracy    <          6.3E-11 Ry

     iteration # 20     ecut=    50.00 Ry     beta= 0.60
     Davidson diagonalization with overlap
     ethr =  1.71E-13,  avg # of iterations =  2.3

     total cpu time spent up to now is    14125.5 secs

     total energy              =    -351.22838438 Ry
     Harris-Foulkes estimate   =    -351.22838438 Ry
     estimated scf accuracy    <          4.6E-11 Ry

     iteration # 21     ecut=    50.00 Ry     beta= 0.60
     Davidson diagonalization with overlap
     ethr =  1.25E-13,  avg # of iterations =  2.6

     total cpu time spent up to now is    14149.6 secs

     End of self-consistent calculation

     Number of k-points >= 100: set verbosity='high' to print the bands.

     the Fermi energy is    14.9085 ev

!    total energy              =    -351.22838438 Ry
     Harris-Foulkes estimate   =    -351.22838438 Ry
     estimated scf accuracy    <          2.6E-13 Ry

     The total energy is the sum of the following terms:

     one-electron contribution =     -98.14070859 Ry
     hartree contribution      =      63.62093608 Ry
     xc contribution           =     -47.53054462 Ry
     ewald contribution        =    -269.17805548 Ry
     smearing contrib. (-TS)   =      -0.00001178 Ry

     convergence has been achieved in  21 iterations

     Forces acting on atoms (cartesian axes, Ry/au):

     atom    1 type  2   force =     0.00001525    0.00001525   -0.00001525
     atom    2 type  2   force =    -0.00001525   -0.00001525    0.00001525
     atom    3 type  1   force =     0.00000000    0.00000000    0.00000000

     Total force =     0.000037     Total SCF correction =     0.000000


     Computing stress (Cartesian axis) and pressure

          total   stress  (Ry/bohr**3)                   (kbar)     P=   -0.45
  -0.00000304  -0.00000007   0.00000007         -0.45     -0.01      0.01
  -0.00000007  -0.00000304   0.00000007         -0.01     -0.45      0.01
   0.00000007   0.00000007  -0.00000304          0.01      0.01     -0.45

 
     init_run     :     33.24s CPU     33.80s WALL (       2 calls)
     electrons    :  13333.68s CPU  13594.28s WALL (      21 calls)
     update_pot   :     80.47s CPU     80.56s WALL (      19 calls)
     forces       :    105.08s CPU    110.86s WALL (      21 calls)
     stress       :    305.79s CPU    323.12s WALL (      21 calls)

     Called by init_run:
     wfcinit      :     26.72s CPU     26.95s WALL (       2 calls)
     potinit      :      1.35s CPU      1.38s WALL (       2 calls)
     hinit0       :      4.58s CPU      4.59s WALL (       2 calls)

     Called by electrons:
     c_bands      :  11150.06s CPU  11214.11s WALL (     361 calls)
     sum_band     :   2006.35s CPU   2101.10s WALL (     361 calls)
     v_of_rho     :     37.52s CPU     40.13s WALL (     377 calls)
     newd         :    143.84s CPU    241.70s WALL (     377 calls)
     mix_rho      :      3.85s CPU      3.86s WALL (     361 calls)

     Called by c_bands:
     init_us_2    :    315.31s CPU    316.74s WALL (  228268 calls)
     cegterg      :   9816.66s CPU   9850.15s WALL (  107578 calls)

     Called by sum_band:
     sum_band:bec :      1.89s CPU      1.55s WALL (  107578 calls)
     addusdens    :    169.67s CPU    259.10s WALL (     361 calls)

     Called by *egterg:
     h_psi        :   8068.66s CPU   8095.73s WALL (  437903 calls)
     s_psi        :    271.62s CPU    272.22s WALL (  437903 calls)
     g_psi        :     83.58s CPU     83.34s WALL (  329729 calls)
     cdiaghg      :    425.97s CPU    426.72s WALL (  430155 calls)

     Called by h_psi:
     h_psi:pot    :   8043.36s CPU   8069.54s WALL (  437903 calls)
     h_psi:calbec :    267.33s CPU    268.62s WALL (  437903 calls)
     vloc_psi     :   7501.77s CPU   7525.74s WALL (  437903 calls)
     add_vuspsi   :    272.66s CPU    272.89s WALL (  437903 calls)

     General routines
     calbec       :    388.70s CPU    389.89s WALL (  576771 calls)
     fft          :     15.82s CPU     15.81s WALL (    5429 calls)
     ffts         :      0.39s CPU      0.39s WALL (     738 calls)
     fftw         :   8075.03s CPU   8067.58s WALL (15294344 calls)
     interpolate  :      1.49s CPU      1.49s WALL (     377 calls)
 
     Parallel routines
 
     PWSCF        :     3h51m CPU       51h 3m WALL

      56h
 
   This run was terminated on:   3:48:44  14Jan2020            

=------------------------------------------------------------------------------=
   JOB DONE.
=------------------------------------------------------------------------------=
