
     Program PWSCF v.6.3MaX starts on 23Jan2020 at 15:37:35 

     This program is part of the open-source Quantum ESPRESSO suite
     for quantum simulation of materials; please cite
         "P. Giannozzi et al., J. Phys.:Condens. Matter 21 395502 (2009);
         "P. Giannozzi et al., J. Phys.:Condens. Matter 29 465901 (2017);
          URL http://www.quantum-espresso.org", 
     in publications or presentations arising from this work. More details at
     http://www.quantum-espresso.org/quote

     Parallel version (MPI), running on     4 processors

     MPI processes distributed on     1 nodes
     R & G space division:  proc/nbgrp/npool/nimage =       4
     Waiting for input...
     Reading input from standard input

     Current dimensions of program PWSCF are:
     Max number of different atomic species (ntypx) = 10
     Max number of k-points (npk) =  40000
     Max angular momentum in pseudopotentials (lmaxx) =  3
     Message from routine iosys:
     minimal I/O required, wf_collect reset to FALSE

     Subspace diagonalization in iterative solution of the eigenvalue problem:
     a serial algorithm will be used

 
     Parallelization info
     --------------------
     sticks:   dense  smooth     PW     G-vecs:    dense   smooth      PW
     Min        1281     514    159                34640     8741    1516
     Max        1282     515    160                34641     8742    1517
     Sum        5125    2057    637               138561    34965    6067
 


     bravais-lattice index     =            0
     lattice parameter (alat)  =       1.8897  a.u.
     unit-cell volume          =     733.3418 (a.u.)^3
     number of atoms/cell      =            5
     number of atomic types    =            2
     number of electrons       =        63.00
     number of Kohn-Sham states=           38
     kinetic-energy cutoff     =      50.0000  Ry
     charge density cutoff     =     500.0000  Ry
     convergence threshold     =      1.0E-10
     mixing beta               =       0.6000
     number of iterations used =            8  plain     mixing
     Exchange-correlation      = SLA PW PBE PBE ( 1  4  3  4 0 0)
     nstep                     =           50


     celldm(1)=   1.889726  celldm(2)=   0.000000  celldm(3)=   0.000000
     celldm(4)=   0.000000  celldm(5)=   0.000000  celldm(6)=   0.000000

     crystal axes: (cart. coord. in units of alat)
               a(1) = (   5.274095   1.758031   5.274095 )  
               a(2) = (   1.758031   5.274095   5.274095 )  
               a(3) = (  -1.758031  -1.758031   1.758031 )  

     reciprocal axes: (cart. coord. in units 2 pi/alat)
               b(1) = (  0.170645 -0.113764  0.056882 )  
               b(2) = ( -0.113764  0.170645  0.056882 )  
               b(3) = ( -0.170645 -0.170645  0.227527 )  


     PseudoPot. # 1 for Nb read from file:
     ./Nb.pbe-nsp-van.UPF
     MD5 check sum: 0a22fc7fb0ba19a08ca5db297a5d2854
     Pseudo is Ultrasoft + core correction, Zval = 13.0
     Generated by new atomic code, or converted to UPF format
     Using radial grid of  887 points,  6 beta functions with: 
                l(1) =   0
                l(2) =   0
                l(3) =   1
                l(4) =   1
                l(5) =   2
                l(6) =   2
     Q(r) pseudized with  6 coefficients,  rinner =    1.000   1.000   1.000
                                                       1.000   1.000

     PseudoPot. # 2 for Ti read from file:
     ./Ti.pbe-sp-van_ak.UPF
     MD5 check sum: f98fea3e8887528921fefa5636a534ca
     Pseudo is Ultrasoft, Zval = 12.0
     Generated by new atomic code, or converted to UPF format
     Using radial grid of  851 points,  6 beta functions with: 
                l(1) =   0
                l(2) =   0
                l(3) =   1
                l(4) =   1
                l(5) =   2
                l(6) =   2
     Q(r) pseudized with  8 coefficients,  rinner =    1.000   1.000   1.000
                                                       1.000   1.000

     atomic species   valence    mass     pseudopotential
        Nb            13.00    92.90638     Nb( 1.00)
        Ti            12.00    47.86700     Ti( 1.00)

      2 Sym. Ops. (no inversion) found



   Cartesian axes

     site n.     atom                  positions (alat units)
         1           Ti  tau(   1) = (   0.0000000   0.0000000   3.5160633  )
         2           Ti  tau(   2) = (   1.7580316   1.7580316   5.2740949  )
         3           Nb  tau(   3) = (   3.5160633   3.5160633   7.0321265  )
         4           Nb  tau(   4) = (   5.2740949   5.2740949   8.7901582  )
         5           Nb  tau(   5) = (   5.2740949   5.2740949  12.3062214  )

     number of k points=   500  Marzari-Vanderbilt smearing, width (Ry)=  0.0200

     Number of k-points >= 100: set verbosity='high' to print them.

     Dense  grid:   138561 G-vectors     FFT dimensions: ( 108, 108,  45)

     Smooth grid:    34965 G-vectors     FFT dimensions: (  72,  72,  25)

     Estimated max dynamical RAM per process >     452.59 MB

     Estimated total dynamical RAM >       1.77 GB

     Initial potential from superposition of free atoms

     starting charge   60.99171, renormalised to   63.00000
     Starting wfcs are   59 randomized atomic wfcs

     total cpu time spent up to now is       33.9 secs

     Self-consistent Calculation

     iteration #  1     ecut=    50.00 Ry     beta= 0.60
     Davidson diagonalization with overlap
     ethr =  1.00E-02,  avg # of iterations =  3.0

     total cpu time spent up to now is      101.0 secs

     total energy              =    -560.45320399 Ry
     Harris-Foulkes estimate   =    -590.01708684 Ry
     estimated scf accuracy    <      36.97934935 Ry

     iteration #  2     ecut=    50.00 Ry     beta= 0.60
     Davidson diagonalization with overlap
     ethr =  1.00E-02,  avg # of iterations =  6.8

     total cpu time spent up to now is      224.8 secs

     total energy              =    -559.48801932 Ry
     Harris-Foulkes estimate   =    -633.57991357 Ry
     estimated scf accuracy    <     258.67377398 Ry

     iteration #  3     ecut=    50.00 Ry     beta= 0.60
     Davidson diagonalization with overlap
     ethr =  1.00E-02,  avg # of iterations =  5.0

     total cpu time spent up to now is      325.7 secs

     total energy              =    -587.28077529 Ry
     Harris-Foulkes estimate   =    -593.69541923 Ry
     estimated scf accuracy    <      35.79310759 Ry

     iteration #  4     ecut=    50.00 Ry     beta= 0.60
     Davidson diagonalization with overlap
     ethr =  1.00E-02,  avg # of iterations =  2.2

     total cpu time spent up to now is      385.6 secs

     total energy              =    -588.55855668 Ry
     Harris-Foulkes estimate   =    -589.26234376 Ry
     estimated scf accuracy    <      11.54384629 Ry

     iteration #  5     ecut=    50.00 Ry     beta= 0.60
     Davidson diagonalization with overlap
     ethr =  1.00E-02,  avg # of iterations =  1.0

     total cpu time spent up to now is      437.7 secs

     total energy              =    -588.37784964 Ry
     Harris-Foulkes estimate   =    -588.61344192 Ry
     estimated scf accuracy    <       8.80814401 Ry

     iteration #  6     ecut=    50.00 Ry     beta= 0.60
     Davidson diagonalization with overlap
     ethr =  1.00E-02,  avg # of iterations =  1.0

     total cpu time spent up to now is      489.4 secs

     total energy              =    -586.68833679 Ry
     Harris-Foulkes estimate   =    -588.39285738 Ry
     estimated scf accuracy    <       8.20768992 Ry

     iteration #  7     ecut=    50.00 Ry     beta= 0.60
     Davidson diagonalization with overlap
     ethr =  1.00E-02,  avg # of iterations =  2.1

     total cpu time spent up to now is      543.9 secs

     total energy              =    -586.59129898 Ry
     Harris-Foulkes estimate   =    -586.92272875 Ry
     estimated scf accuracy    <       2.81697222 Ry

     iteration #  8     ecut=    50.00 Ry     beta= 0.60
     Davidson diagonalization with overlap
     ethr =  4.47E-03,  avg # of iterations =  4.7

     total cpu time spent up to now is      615.9 secs

     total energy              =    -586.96454676 Ry
     Harris-Foulkes estimate   =    -586.97898886 Ry
     estimated scf accuracy    <       0.15848628 Ry

     iteration #  9     ecut=    50.00 Ry     beta= 0.60
     Davidson diagonalization with overlap
     ethr =  2.52E-04,  avg # of iterations =  5.7

     total cpu time spent up to now is      708.1 secs

     total energy              =    -586.88563327 Ry
     Harris-Foulkes estimate   =    -587.04628056 Ry
     estimated scf accuracy    <       1.10232715 Ry

     iteration # 10     ecut=    50.00 Ry     beta= 0.60
     Davidson diagonalization with overlap
     ethr =  2.52E-04,  avg # of iterations =  5.9

     total cpu time spent up to now is      798.8 secs

     total energy              =    -586.95217523 Ry
     Harris-Foulkes estimate   =    -587.02738172 Ry
     estimated scf accuracy    <       0.97876058 Ry

     iteration # 11     ecut=    50.00 Ry     beta= 0.60
     Davidson diagonalization with overlap
     ethr =  2.52E-04,  avg # of iterations =  3.6

     total cpu time spent up to now is      858.6 secs

     total energy              =    -586.98271112 Ry
     Harris-Foulkes estimate   =    -586.98802219 Ry
     estimated scf accuracy    <       0.13096023 Ry

     iteration # 12     ecut=    50.00 Ry     beta= 0.60
     Davidson diagonalization with overlap
     ethr =  2.08E-04,  avg # of iterations =  1.8

     total cpu time spent up to now is      911.9 secs

     total energy              =    -587.00470986 Ry
     Harris-Foulkes estimate   =    -586.98666540 Ry
     estimated scf accuracy    <       0.08278133 Ry

     iteration # 13     ecut=    50.00 Ry     beta= 0.60
     Davidson diagonalization with overlap
     ethr =  1.31E-04,  avg # of iterations =  6.7

     total cpu time spent up to now is      993.5 secs

     total energy              =    -587.03272928 Ry
     Harris-Foulkes estimate   =    -587.02717558 Ry
     estimated scf accuracy    <       0.64001769 Ry

     iteration # 14     ecut=    50.00 Ry     beta= 0.60
     Davidson diagonalization with overlap
     ethr =  1.31E-04,  avg # of iterations =  1.0

     total cpu time spent up to now is     1045.5 secs

     total energy              =    -586.94653806 Ry
     Harris-Foulkes estimate   =    -587.03358327 Ry
     estimated scf accuracy    <       0.70545777 Ry

     iteration # 15     ecut=    50.00 Ry     beta= 0.60
     Davidson diagonalization with overlap
     ethr =  1.31E-04,  avg # of iterations =  5.3

     total cpu time spent up to now is     1125.6 secs

     total energy              =    -586.98322705 Ry
     Harris-Foulkes estimate   =    -586.98314862 Ry
     estimated scf accuracy    <       0.00260446 Ry

     iteration # 16     ecut=    50.00 Ry     beta= 0.60
     Davidson diagonalization with overlap
     ethr =  4.13E-06,  avg # of iterations =  5.7

     total cpu time spent up to now is     1203.6 secs

     total energy              =    -586.98242396 Ry
     Harris-Foulkes estimate   =    -586.98381145 Ry
     estimated scf accuracy    <       0.01015614 Ry

     iteration # 17     ecut=    50.00 Ry     beta= 0.60
     Davidson diagonalization with overlap
     ethr =  4.13E-06,  avg # of iterations =  4.4

     total cpu time spent up to now is     1268.8 secs

     total energy              =    -586.98307225 Ry
     Harris-Foulkes estimate   =    -586.98309524 Ry
     estimated scf accuracy    <       0.00026144 Ry

     iteration # 18     ecut=    50.00 Ry     beta= 0.60
     Davidson diagonalization with overlap
     ethr =  4.15E-07,  avg # of iterations =  5.1

     total cpu time spent up to now is     1346.5 secs

     total energy              =    -586.98309952 Ry
     Harris-Foulkes estimate   =    -586.98314841 Ry
     estimated scf accuracy    <       0.00028021 Ry

     iteration # 19     ecut=    50.00 Ry     beta= 0.60
     Davidson diagonalization with overlap
     ethr =  4.15E-07,  avg # of iterations =  1.9

     total cpu time spent up to now is     1400.7 secs

     total energy              =    -586.98312524 Ry
     Harris-Foulkes estimate   =    -586.98312742 Ry
     estimated scf accuracy    <       0.00001069 Ry

     iteration # 20     ecut=    50.00 Ry     beta= 0.60
     Davidson diagonalization with overlap
     ethr =  1.70E-08,  avg # of iterations =  5.0

     total cpu time spent up to now is     1482.6 secs

     total energy              =    -586.98313190 Ry
     Harris-Foulkes estimate   =    -586.98313304 Ry
     estimated scf accuracy    <       0.00001949 Ry

     iteration # 21     ecut=    50.00 Ry     beta= 0.60
     Davidson diagonalization with overlap
     ethr =  1.70E-08,  avg # of iterations =  1.0

     total cpu time spent up to now is     1534.3 secs

     total energy              =    -586.98313085 Ry
     Harris-Foulkes estimate   =    -586.98313212 Ry
     estimated scf accuracy    <       0.00000913 Ry

     iteration # 22     ecut=    50.00 Ry     beta= 0.60
     Davidson diagonalization with overlap
     ethr =  1.45E-08,  avg # of iterations =  2.7

     total cpu time spent up to now is     1594.3 secs

     total energy              =    -586.98313173 Ry
     Harris-Foulkes estimate   =    -586.98313183 Ry
     estimated scf accuracy    <       0.00000116 Ry

     iteration # 23     ecut=    50.00 Ry     beta= 0.60
     Davidson diagonalization with overlap
     ethr =  1.84E-09,  avg # of iterations =  2.2

     total cpu time spent up to now is     1652.3 secs

     total energy              =    -586.98313177 Ry
     Harris-Foulkes estimate   =    -586.98313181 Ry
     estimated scf accuracy    <       0.00000033 Ry

     iteration # 24     ecut=    50.00 Ry     beta= 0.60
     Davidson diagonalization with overlap
     ethr =  5.20E-10,  avg # of iterations =  3.0

     total cpu time spent up to now is     1711.0 secs

     total energy              =    -586.98313179 Ry
     Harris-Foulkes estimate   =    -586.98313180 Ry
     estimated scf accuracy    <          6.7E-09 Ry

     iteration # 25     ecut=    50.00 Ry     beta= 0.60
     Davidson diagonalization with overlap
     ethr =  1.07E-11,  avg # of iterations =  5.1

     total cpu time spent up to now is     1796.8 secs

     total energy              =    -586.98313180 Ry
     Harris-Foulkes estimate   =    -586.98313180 Ry
     estimated scf accuracy    <       0.00000001 Ry

     iteration # 26     ecut=    50.00 Ry     beta= 0.60
     Davidson diagonalization with overlap
     ethr =  1.07E-11,  avg # of iterations =  2.7

     total cpu time spent up to now is     1853.6 secs

     total energy              =    -586.98313180 Ry
     Harris-Foulkes estimate   =    -586.98313180 Ry
     estimated scf accuracy    <          2.8E-10 Ry

     iteration # 27     ecut=    50.00 Ry     beta= 0.60
     Davidson diagonalization with overlap
     ethr =  4.38E-13,  avg # of iterations =  4.9

     total cpu time spent up to now is     1937.4 secs

     total energy              =    -586.98313180 Ry
     Harris-Foulkes estimate   =    -586.98313180 Ry
     estimated scf accuracy    <          1.6E-10 Ry

     iteration # 28     ecut=    50.00 Ry     beta= 0.60
     Davidson diagonalization with overlap
     ethr =  2.56E-13,  avg # of iterations =  1.3

     total cpu time spent up to now is     1990.2 secs

     End of self-consistent calculation

     Number of k-points >= 100: set verbosity='high' to print the bands.

     the Fermi energy is    12.6135 ev

!    total energy              =    -586.98313180 Ry
     Harris-Foulkes estimate   =    -586.98313180 Ry
     estimated scf accuracy    <          5.2E-11 Ry

     The total energy is the sum of the following terms:

     one-electron contribution =    -175.26703704 Ry
     hartree contribution      =     106.82231086 Ry
     xc contribution           =     -83.49243377 Ry
     ewald contribution        =    -435.04617065 Ry
     smearing contrib. (-TS)   =       0.00019880 Ry

     convergence has been achieved in  28 iterations

     Forces acting on atoms (cartesian axes, Ry/au):

     atom    1 type  2   force =    -0.00484980   -0.00484980   -0.00388740
     atom    2 type  2   force =     0.00484492    0.00484492    0.00387745
     atom    3 type  1   force =     0.01024263    0.01024263   -0.00797747
     atom    4 type  1   force =     0.00000143    0.00000143    0.00000278
     atom    5 type  1   force =    -0.01023917   -0.01023917    0.00798464

     Total force =     0.025904     Total SCF correction =     0.000028


     Computing stress (Cartesian axis) and pressure

          total   stress  (Ry/bohr**3)                   (kbar)     P= -204.84
  -0.00139667  -0.00003545   0.00000770       -205.46     -5.21      1.13
  -0.00003545  -0.00139667   0.00000770         -5.21   -205.46      1.13
   0.00000770   0.00000770  -0.00138407          1.13      1.13   -203.60


     BFGS Geometry Optimization

     number of scf cycles    =   1
     number of bfgs steps    =   0

     enthalpy new            =    -586.9831318001 Ry

     new trust radius        =       0.1891744294 bohr
     new conv_thr            =            1.0E-10 Ry

     new unit-cell volume =    659.38979 a.u.^3 (    97.71148 Ang^3 )
     density =      6.36357 g/cm^3

CELL_PARAMETERS (alat=  1.88972599)
   5.089398067   1.692988457   5.092955556
   1.692988457   5.089398067   5.092955556
  -1.694750564  -1.694750564   1.696523762

ATOMIC_POSITIONS (angstrom)
Ti      -0.001798061  -0.001798061   3.392414302
Ti       1.698576696   1.698576696   5.094260549
Nb       3.396756983   3.396756983   6.786082835
Nb       5.086959834   5.086959834   8.488035064
Nb       5.082412430   5.082412430  11.886511874


     NEW-OLD atomic charge density approx. for the potential
     extrapolated charge   56.15964, renormalised to   63.00000

     total cpu time spent up to now is     2012.6 secs

     Self-consistent Calculation

     iteration #  1     ecut=    50.00 Ry     beta= 0.60
     Davidson diagonalization with overlap
     c_bands:  1 eigenvalues not converged
     c_bands:  1 eigenvalues not converged
     c_bands:  1 eigenvalues not converged
     c_bands:  1 eigenvalues not converged
     c_bands:  1 eigenvalues not converged
     c_bands:  1 eigenvalues not converged
     c_bands:  1 eigenvalues not converged
     c_bands:  1 eigenvalues not converged
     c_bands:  1 eigenvalues not converged
     c_bands:  1 eigenvalues not converged
     c_bands:  1 eigenvalues not converged
     c_bands:  1 eigenvalues not converged
     c_bands:  1 eigenvalues not converged
     c_bands:  1 eigenvalues not converged
     c_bands:  1 eigenvalues not converged
     c_bands:  1 eigenvalues not converged
     c_bands:  1 eigenvalues not converged
     c_bands:  1 eigenvalues not converged
     c_bands:  1 eigenvalues not converged
     c_bands:  2 eigenvalues not converged
     c_bands:  1 eigenvalues not converged
     c_bands:  1 eigenvalues not converged
     c_bands:  1 eigenvalues not converged
     c_bands:  1 eigenvalues not converged
     c_bands:  1 eigenvalues not converged
     c_bands:  1 eigenvalues not converged
     c_bands:  1 eigenvalues not converged
     c_bands:  1 eigenvalues not converged
     c_bands:  1 eigenvalues not converged
     c_bands:  1 eigenvalues not converged
     c_bands:  1 eigenvalues not converged
     c_bands:  1 eigenvalues not converged
     c_bands:  1 eigenvalues not converged
     c_bands:  1 eigenvalues not converged
     c_bands:  1 eigenvalues not converged
     c_bands:  1 eigenvalues not converged
     c_bands:  1 eigenvalues not converged
     ethr =  1.00E-06,  avg # of iterations = 16.6

     total cpu time spent up to now is     2241.0 secs

     total energy              =    -549.01112029 Ry
     Harris-Foulkes estimate   =    -600.43509238 Ry
     estimated scf accuracy    <      43.20068671 Ry

     iteration #  2     ecut=    50.00 Ry     beta= 0.60
     Davidson diagonalization with overlap
     ethr =  1.00E-02,  avg # of iterations =  6.2

     total cpu time spent up to now is     2357.2 secs

     total energy              =    -571.71899081 Ry
     Harris-Foulkes estimate   =    -644.68989172 Ry
     estimated scf accuracy    <     237.85646116 Ry

     iteration #  3     ecut=    50.00 Ry     beta= 0.60
     Davidson diagonalization with overlap
     ethr =  1.00E-02,  avg # of iterations =  5.0

     total cpu time spent up to now is     2459.7 secs

     total energy              =    -589.63091877 Ry
     Harris-Foulkes estimate   =    -594.29320081 Ry
     estimated scf accuracy    <      24.78656134 Ry

     iteration #  4     ecut=    50.00 Ry     beta= 0.60
     Davidson diagonalization with overlap
     ethr =  1.00E-02,  avg # of iterations =  3.1

     total cpu time spent up to now is     2523.3 secs

     total energy              =    -588.17092148 Ry
     Harris-Foulkes estimate   =    -592.75563871 Ry
     estimated scf accuracy    <      34.25534167 Ry

     iteration #  5     ecut=    50.00 Ry     beta= 0.60
     Davidson diagonalization with overlap
     ethr =  1.00E-02,  avg # of iterations =  1.7

     total cpu time spent up to now is     2577.4 secs

     total energy              =    -588.32103891 Ry
     Harris-Foulkes estimate   =    -589.47972020 Ry
     estimated scf accuracy    <       8.97963016 Ry

     iteration #  6     ecut=    50.00 Ry     beta= 0.60
     Davidson diagonalization with overlap
     ethr =  1.00E-02,  avg # of iterations =  1.0

     total cpu time spent up to now is     2629.8 secs

     total energy              =    -587.00842287 Ry
     Harris-Foulkes estimate   =    -588.41911963 Ry
     estimated scf accuracy    <       6.49067325 Ry

     iteration #  7     ecut=    50.00 Ry     beta= 0.60
     Davidson diagonalization with overlap
     ethr =  1.00E-02,  avg # of iterations =  1.8

     total cpu time spent up to now is     2684.3 secs

     total energy              =    -587.37656410 Ry
     Harris-Foulkes estimate   =    -587.21379685 Ry
     estimated scf accuracy    <       2.53414731 Ry

     iteration #  8     ecut=    50.00 Ry     beta= 0.60
     Davidson diagonalization with overlap
     ethr =  4.02E-03,  avg # of iterations =  1.7

     total cpu time spent up to now is     2738.4 secs

     total energy              =    -587.27598137 Ry
     Harris-Foulkes estimate   =    -587.43016468 Ry
     estimated scf accuracy    <       2.87504529 Ry

     iteration #  9     ecut=    50.00 Ry     beta= 0.60
     Davidson diagonalization with overlap
     ethr =  4.02E-03,  avg # of iterations =  1.1

     total cpu time spent up to now is     2790.9 secs

     total energy              =    -587.16272929 Ry
     Harris-Foulkes estimate   =    -587.29996061 Ry
     estimated scf accuracy    <       2.37851852 Ry

     iteration # 10     ecut=    50.00 Ry     beta= 0.60
     Davidson diagonalization with overlap
     ethr =  3.78E-03,  avg # of iterations =  1.1

     total cpu time spent up to now is     2843.4 secs

     total energy              =    -586.41469275 Ry
     Harris-Foulkes estimate   =    -587.19013646 Ry
     estimated scf accuracy    <       1.73279580 Ry

     iteration # 11     ecut=    50.00 Ry     beta= 0.60
     Davidson diagonalization with overlap
     ethr =  2.75E-03,  avg # of iterations =  4.4

     total cpu time spent up to now is     2934.5 secs

     total energy              =    -587.65205010 Ry
     Harris-Foulkes estimate   =    -587.98486762 Ry
     estimated scf accuracy    <      18.45883462 Ry

     iteration # 12     ecut=    50.00 Ry     beta= 0.60
     Davidson diagonalization with overlap
     ethr =  2.75E-03,  avg # of iterations =  1.0

     total cpu time spent up to now is     2986.5 secs

     total energy              =    -587.75907218 Ry
     Harris-Foulkes estimate   =    -587.67687454 Ry
     estimated scf accuracy    <      13.60319270 Ry

     iteration # 13     ecut=    50.00 Ry     beta= 0.60
     Davidson diagonalization with overlap
     ethr =  2.75E-03,  avg # of iterations =  1.0

     total cpu time spent up to now is     3038.3 secs

     total energy              =    -587.58821073 Ry
     Harris-Foulkes estimate   =    -587.76414004 Ry
     estimated scf accuracy    <      14.76108202 Ry

     iteration # 14     ecut=    50.00 Ry     beta= 0.60
     Davidson diagonalization with overlap
     ethr =  2.75E-03,  avg # of iterations =  1.0

     total cpu time spent up to now is     3090.2 secs

     total energy              =    -587.38068873 Ry
     Harris-Foulkes estimate   =    -587.60169051 Ry
     estimated scf accuracy    <      11.92993580 Ry

     iteration # 15     ecut=    50.00 Ry     beta= 0.60
     Davidson diagonalization with overlap
     ethr =  2.75E-03,  avg # of iterations =  1.0

     total cpu time spent up to now is     3142.2 secs

     total energy              =    -586.66959121 Ry
     Harris-Foulkes estimate   =    -587.41317772 Ry
     estimated scf accuracy    <       7.78319593 Ry

     iteration # 16     ecut=    50.00 Ry     beta= 0.60
     Davidson diagonalization with overlap
     ethr =  2.75E-03,  avg # of iterations =  4.2

     total cpu time spent up to now is     3207.2 secs

     total energy              =    -587.03825741 Ry
     Harris-Foulkes estimate   =    -587.04765720 Ry
     estimated scf accuracy    <       0.04817510 Ry

     iteration # 17     ecut=    50.00 Ry     beta= 0.60
     Davidson diagonalization with overlap
     ethr =  7.65E-05,  avg # of iterations =  6.2

     total cpu time spent up to now is     3308.7 secs

     total energy              =    -587.07719765 Ry
     Harris-Foulkes estimate   =    -587.08187860 Ry
     estimated scf accuracy    <       0.13700962 Ry

     iteration # 18     ecut=    50.00 Ry     beta= 0.60
     Davidson diagonalization with overlap
     ethr =  7.65E-05,  avg # of iterations =  1.0

     total cpu time spent up to now is     3360.4 secs

     total energy              =    -587.06323070 Ry
     Harris-Foulkes estimate   =    -587.07775258 Ry
     estimated scf accuracy    <       0.11204789 Ry

     iteration # 19     ecut=    50.00 Ry     beta= 0.60
     Davidson diagonalization with overlap
     ethr =  7.65E-05,  avg # of iterations =  3.2

     total cpu time spent up to now is     3418.1 secs

     total energy              =    -587.06607295 Ry
     Harris-Foulkes estimate   =    -587.06731324 Ry
     estimated scf accuracy    <       0.01483235 Ry

     iteration # 20     ecut=    50.00 Ry     beta= 0.60
     Davidson diagonalization with overlap
     ethr =  2.35E-05,  avg # of iterations =  5.4

     total cpu time spent up to now is     3493.0 secs

     total energy              =    -587.06748185 Ry
     Harris-Foulkes estimate   =    -587.06815809 Ry
     estimated scf accuracy    <       0.00176685 Ry

     iteration # 21     ecut=    50.00 Ry     beta= 0.60
     Davidson diagonalization with overlap
     ethr =  2.80E-06,  avg # of iterations =  5.9

     total cpu time spent up to now is     3589.2 secs

     total energy              =    -587.06827795 Ry
     Harris-Foulkes estimate   =    -587.06855439 Ry
     estimated scf accuracy    <       0.00602979 Ry

     iteration # 22     ecut=    50.00 Ry     beta= 0.60
     Davidson diagonalization with overlap
     ethr =  2.80E-06,  avg # of iterations =  1.0

     total cpu time spent up to now is     3640.2 secs

     total energy              =    -587.06829333 Ry
     Harris-Foulkes estimate   =    -587.06838477 Ry
     estimated scf accuracy    <       0.00279809 Ry

     iteration # 23     ecut=    50.00 Ry     beta= 0.60
     Davidson diagonalization with overlap
     ethr =  2.80E-06,  avg # of iterations =  1.6

     total cpu time spent up to now is     3692.4 secs

     total energy              =    -587.06723681 Ry
     Harris-Foulkes estimate   =    -587.06837451 Ry
     estimated scf accuracy    <       0.00295547 Ry

     iteration # 24     ecut=    50.00 Ry     beta= 0.60
     Davidson diagonalization with overlap
     ethr =  2.80E-06,  avg # of iterations =  5.1

     total cpu time spent up to now is     3778.9 secs

     total energy              =    -587.06772701 Ry
     Harris-Foulkes estimate   =    -587.06793996 Ry
     estimated scf accuracy    <       0.00102505 Ry

     iteration # 25     ecut=    50.00 Ry     beta= 0.60
     Davidson diagonalization with overlap
     ethr =  1.63E-06,  avg # of iterations =  2.7

     total cpu time spent up to now is     3834.4 secs

     total energy              =    -587.06781428 Ry
     Harris-Foulkes estimate   =    -587.06782865 Ry
     estimated scf accuracy    <       0.00012537 Ry

     iteration # 26     ecut=    50.00 Ry     beta= 0.60
     Davidson diagonalization with overlap
     ethr =  1.99E-07,  avg # of iterations =  3.9

     total cpu time spent up to now is     3903.2 secs

     total energy              =    -587.06784164 Ry
     Harris-Foulkes estimate   =    -587.06784308 Ry
     estimated scf accuracy    <       0.00000614 Ry

     iteration # 27     ecut=    50.00 Ry     beta= 0.60
     Davidson diagonalization with overlap
     ethr =  9.75E-09,  avg # of iterations =  3.4

     total cpu time spent up to now is     3969.2 secs

     total energy              =    -587.06784281 Ry
     Harris-Foulkes estimate   =    -587.06784298 Ry
     estimated scf accuracy    <       0.00000069 Ry

     iteration # 28     ecut=    50.00 Ry     beta= 0.60
     Davidson diagonalization with overlap
     ethr =  1.10E-09,  avg # of iterations =  3.3

     total cpu time spent up to now is     4035.2 secs

     total energy              =    -587.06784294 Ry
     Harris-Foulkes estimate   =    -587.06784298 Ry
     estimated scf accuracy    <       0.00000019 Ry

     iteration # 29     ecut=    50.00 Ry     beta= 0.60
     Davidson diagonalization with overlap
     ethr =  3.02E-10,  avg # of iterations =  2.8

     total cpu time spent up to now is     4094.8 secs

     total energy              =    -587.06784296 Ry
     Harris-Foulkes estimate   =    -587.06784297 Ry
     estimated scf accuracy    <       0.00000004 Ry

     iteration # 30     ecut=    50.00 Ry     beta= 0.60
     Davidson diagonalization with overlap
     ethr =  6.85E-11,  avg # of iterations =  3.6

     total cpu time spent up to now is     4161.9 secs

     total energy              =    -587.06784296 Ry
     Harris-Foulkes estimate   =    -587.06784297 Ry
     estimated scf accuracy    <       0.00000006 Ry

     iteration # 31     ecut=    50.00 Ry     beta= 0.60
     Davidson diagonalization with overlap
     ethr =  6.85E-11,  avg # of iterations =  2.1

     total cpu time spent up to now is     4216.4 secs

     total energy              =    -587.06784297 Ry
     Harris-Foulkes estimate   =    -587.06784297 Ry
     estimated scf accuracy    <          4.2E-09 Ry

     iteration # 32     ecut=    50.00 Ry     beta= 0.60
     Davidson diagonalization with overlap
     ethr =  6.62E-12,  avg # of iterations =  3.9

     total cpu time spent up to now is     4287.4 secs

     total energy              =    -587.06784297 Ry
     Harris-Foulkes estimate   =    -587.06784297 Ry
     estimated scf accuracy    <          1.1E-09 Ry

     iteration # 33     ecut=    50.00 Ry     beta= 0.60
     Davidson diagonalization with overlap
     ethr =  1.80E-12,  avg # of iterations =  3.0

     total cpu time spent up to now is     4345.2 secs

     total energy              =    -587.06784297 Ry
     Harris-Foulkes estimate   =    -587.06784297 Ry
     estimated scf accuracy    <          7.1E-10 Ry

     iteration # 34     ecut=    50.00 Ry     beta= 0.60
     Davidson diagonalization with overlap
     ethr =  1.13E-12,  avg # of iterations =  2.2

     total cpu time spent up to now is     4400.7 secs

     End of self-consistent calculation

     Number of k-points >= 100: set verbosity='high' to print the bands.

     the Fermi energy is    14.3542 ev

!    total energy              =    -587.06784297 Ry
     Harris-Foulkes estimate   =    -587.06784297 Ry
     estimated scf accuracy    <          5.2E-11 Ry

     The total energy is the sum of the following terms:

     one-electron contribution =    -152.28713623 Ry
     hartree contribution      =      99.87375318 Ry
     xc contribution           =     -83.93102678 Ry
     ewald contribution        =    -450.72314907 Ry
     smearing contrib. (-TS)   =      -0.00028408 Ry

     convergence has been achieved in  34 iterations

     Forces acting on atoms (cartesian axes, Ry/au):

     atom    1 type  2   force =    -0.00385141   -0.00385141   -0.00123537
     atom    2 type  2   force =     0.00384945    0.00384945    0.00123187
     atom    3 type  1   force =     0.01019343    0.01019343   -0.00783714
     atom    4 type  1   force =     0.00000055    0.00000055    0.00000069
     atom    5 type  1   force =    -0.01019202   -0.01019202    0.00783996

     Total force =     0.024511     Total SCF correction =     0.000022


     Computing stress (Cartesian axis) and pressure

          total   stress  (Ry/bohr**3)                   (kbar)     P= -121.17
  -0.00082725  -0.00002731   0.00000334       -121.69     -4.02      0.49
  -0.00002731  -0.00082725   0.00000334         -4.02   -121.69      0.49
   0.00000334   0.00000334  -0.00081655          0.49      0.49   -120.12


     number of scf cycles    =   2
     number of bfgs steps    =   1

     enthalpy old            =    -586.9831318001 Ry
     enthalpy new            =    -587.0678429693 Ry

     CASE: enthalpy_new < enthalpy_old

     new trust radius        =       0.2305689731 bohr
     new conv_thr            =            1.0E-10 Ry

     new unit-cell volume =    574.92303 a.u.^3 (    85.19480 Ang^3 )
     density =      7.29850 g/cm^3

CELL_PARAMETERS (alat=  1.88972599)
   4.859421137   1.610094903   4.868911785
   1.610094903   4.859421137   4.868911785
  -1.615725441  -1.615725441   1.620766884

ATOMIC_POSITIONS (angstrom)
Ti      -0.005094173  -0.005094173   3.240960968
Ti       1.624783730   1.624783730   4.870798233
Nb       3.251125024   3.251125024   6.478834659
Nb       4.852469021   4.852469021   8.114414322
Nb       4.838088197   4.838088197  11.370763180


     NEW-OLD atomic charge density approx. for the potential
     extrapolated charge   54.03920, renormalised to   63.00000

     total cpu time spent up to now is     4424.1 secs

     Self-consistent Calculation

     iteration #  1     ecut=    50.00 Ry     beta= 0.60
     Davidson diagonalization with overlap
     c_bands:  1 eigenvalues not converged
     c_bands:  1 eigenvalues not converged
     c_bands:  1 eigenvalues not converged
     c_bands:  1 eigenvalues not converged
     c_bands:  1 eigenvalues not converged
     c_bands:  1 eigenvalues not converged
     c_bands:  1 eigenvalues not converged
     c_bands:  1 eigenvalues not converged
     c_bands:  1 eigenvalues not converged
     c_bands:  1 eigenvalues not converged
     c_bands:  1 eigenvalues not converged
     c_bands:  1 eigenvalues not converged
     c_bands:  1 eigenvalues not converged
     c_bands:  1 eigenvalues not converged
     c_bands:  1 eigenvalues not converged
     c_bands:  1 eigenvalues not converged
     c_bands:  1 eigenvalues not converged
     c_bands:  1 eigenvalues not converged
     c_bands:  1 eigenvalues not converged
     c_bands:  1 eigenvalues not converged
     c_bands:  1 eigenvalues not converged
     c_bands:  1 eigenvalues not converged
     c_bands:  1 eigenvalues not converged
     c_bands:  1 eigenvalues not converged
     c_bands:  1 eigenvalues not converged
     c_bands:  1 eigenvalues not converged
     c_bands:  1 eigenvalues not converged
     c_bands:  1 eigenvalues not converged
     c_bands:  1 eigenvalues not converged
     c_bands:  1 eigenvalues not converged
     c_bands:  1 eigenvalues not converged
     c_bands:  1 eigenvalues not converged
     c_bands:  1 eigenvalues not converged
     c_bands:  1 eigenvalues not converged
     c_bands:  1 eigenvalues not converged
     c_bands:  1 eigenvalues not converged
     c_bands:  2 eigenvalues not converged
     c_bands:  1 eigenvalues not converged
     c_bands:  1 eigenvalues not converged
     c_bands:  1 eigenvalues not converged
     c_bands:  1 eigenvalues not converged
     c_bands:  1 eigenvalues not converged
     c_bands:  1 eigenvalues not converged
     c_bands:  1 eigenvalues not converged
     c_bands:  1 eigenvalues not converged
     c_bands:  1 eigenvalues not converged
     c_bands:  1 eigenvalues not converged
     c_bands:  1 eigenvalues not converged
     c_bands:  1 eigenvalues not converged
     c_bands:  1 eigenvalues not converged
     c_bands:  1 eigenvalues not converged
     c_bands:  1 eigenvalues not converged
     c_bands:  1 eigenvalues not converged
     c_bands:  1 eigenvalues not converged
     c_bands:  1 eigenvalues not converged
     c_bands:  1 eigenvalues not converged
     c_bands:  1 eigenvalues not converged
     c_bands:  1 eigenvalues not converged
     c_bands:  1 eigenvalues not converged
     c_bands:  1 eigenvalues not converged
     c_bands:  1 eigenvalues not converged
     c_bands:  1 eigenvalues not converged
     c_bands:  2 eigenvalues not converged
     c_bands:  1 eigenvalues not converged
     c_bands:  1 eigenvalues not converged
     c_bands:  1 eigenvalues not converged
     c_bands:  1 eigenvalues not converged
     c_bands:  1 eigenvalues not converged
     c_bands:  1 eigenvalues not converged
     c_bands:  1 eigenvalues not converged
     c_bands:  1 eigenvalues not converged
     c_bands:  1 eigenvalues not converged
     ethr =  1.00E-06,  avg # of iterations = 16.2

     total cpu time spent up to now is     4641.9 secs

     total energy              =    -539.40334118 Ry
     Harris-Foulkes estimate   =    -602.21266289 Ry
     estimated scf accuracy    <      53.58910497 Ry

     iteration #  2     ecut=    50.00 Ry     beta= 0.60
     Davidson diagonalization with overlap
     ethr =  1.00E-02,  avg # of iterations =  6.4

     total cpu time spent up to now is     4756.1 secs

     total energy              =    -570.57633919 Ry
     Harris-Foulkes estimate   =    -655.47534096 Ry
     estimated scf accuracy    <     268.74204371 Ry

     iteration #  3     ecut=    50.00 Ry     beta= 0.60
     Davidson diagonalization with overlap
     ethr =  1.00E-02,  avg # of iterations =  5.0

     total cpu time spent up to now is     4859.0 secs

     total energy              =    -590.10931057 Ry
     Harris-Foulkes estimate   =    -595.52318682 Ry
     estimated scf accuracy    <      27.34788881 Ry

     iteration #  4     ecut=    50.00 Ry     beta= 0.60
     Davidson diagonalization with overlap
     ethr =  1.00E-02,  avg # of iterations =  3.3

     total cpu time spent up to now is     4924.1 secs

     total energy              =    -588.28752340 Ry
     Harris-Foulkes estimate   =    -593.52841023 Ry
     estimated scf accuracy    <      36.82305122 Ry

     iteration #  5     ecut=    50.00 Ry     beta= 0.60
     Davidson diagonalization with overlap
     ethr =  1.00E-02,  avg # of iterations =  1.9

     total cpu time spent up to now is     4988.7 secs

     total energy              =    -588.46586156 Ry
     Harris-Foulkes estimate   =    -589.81450421 Ry
     estimated scf accuracy    <       9.81568525 Ry

     iteration #  6     ecut=    50.00 Ry     beta= 0.60
     Davidson diagonalization with overlap
     ethr =  1.00E-02,  avg # of iterations =  1.0

     total cpu time spent up to now is     5040.6 secs

     total energy              =    -587.08793499 Ry
     Harris-Foulkes estimate   =    -588.58067558 Ry
     estimated scf accuracy    <       6.82695766 Ry

     iteration #  7     ecut=    50.00 Ry     beta= 0.60
     Davidson diagonalization with overlap
     ethr =  1.00E-02,  avg # of iterations =  2.0

     total cpu time spent up to now is     5095.2 secs

     total energy              =    -587.54903719 Ry
     Harris-Foulkes estimate   =    -587.32251686 Ry
     estimated scf accuracy    <       2.51932140 Ry

     iteration #  8     ecut=    50.00 Ry     beta= 0.60
     Davidson diagonalization with overlap
     ethr =  4.00E-03,  avg # of iterations =  1.6

     total cpu time spent up to now is     5148.7 secs

     total energy              =    -587.43256582 Ry
     Harris-Foulkes estimate   =    -587.60342720 Ry
     estimated scf accuracy    <       3.12619218 Ry

     iteration #  9     ecut=    50.00 Ry     beta= 0.60
     Davidson diagonalization with overlap
     ethr =  4.00E-03,  avg # of iterations =  1.0

     total cpu time spent up to now is     5200.7 secs

     total energy              =    -587.27329908 Ry
     Harris-Foulkes estimate   =    -587.45368092 Ry
     estimated scf accuracy    <       2.66800639 Ry

     iteration # 10     ecut=    50.00 Ry     beta= 0.60
     Davidson diagonalization with overlap
     ethr =  4.00E-03,  avg # of iterations =  1.1

     total cpu time spent up to now is     5252.9 secs

     total energy              =    -586.42638624 Ry
     Harris-Foulkes estimate   =    -587.30046326 Ry
     estimated scf accuracy    <       1.91303006 Ry

     iteration # 11     ecut=    50.00 Ry     beta= 0.60
     Davidson diagonalization with overlap
     ethr =  3.04E-03,  avg # of iterations =  4.1

     total cpu time spent up to now is     5340.0 secs

     total energy              =    -587.47777837 Ry
     Harris-Foulkes estimate   =    -587.76501565 Ry
     estimated scf accuracy    <      11.36661643 Ry

     iteration # 12     ecut=    50.00 Ry     beta= 0.60
     Davidson diagonalization with overlap
     ethr =  3.04E-03,  avg # of iterations =  1.0

     total cpu time spent up to now is     5391.9 secs

     total energy              =    -587.53596635 Ry
     Harris-Foulkes estimate   =    -587.50177216 Ry
     estimated scf accuracy    <       7.77014500 Ry

     iteration # 13     ecut=    50.00 Ry     beta= 0.60
     Davidson diagonalization with overlap
     ethr =  3.04E-03,  avg # of iterations =  1.0

     total cpu time spent up to now is     5443.9 secs

     total energy              =    -587.43134452 Ry
     Harris-Foulkes estimate   =    -587.53860532 Ry
     estimated scf accuracy    <       8.15190890 Ry

     iteration # 14     ecut=    50.00 Ry     beta= 0.60
     Davidson diagonalization with overlap
     ethr =  3.04E-03,  avg # of iterations =  1.0

     total cpu time spent up to now is     5495.9 secs

     total energy              =    -587.76300780 Ry
     Harris-Foulkes estimate   =    -587.44127144 Ry
     estimated scf accuracy    <       6.73249594 Ry

     iteration # 15     ecut=    50.00 Ry     beta= 0.60
     Davidson diagonalization with overlap
     ethr =  3.04E-03,  avg # of iterations =  1.0

     total cpu time spent up to now is     5547.9 secs

     total energy              =    -586.63863335 Ry
     Harris-Foulkes estimate   =    -587.80903653 Ry
     estimated scf accuracy    <      11.34094456 Ry

     iteration # 16     ecut=    50.00 Ry     beta= 0.60
     Davidson diagonalization with overlap
     ethr =  3.04E-03,  avg # of iterations =  3.4

     total cpu time spent up to now is     5608.1 secs

     total energy              =    -587.00138429 Ry
     Harris-Foulkes estimate   =    -587.07153422 Ry
     estimated scf accuracy    <       0.68128632 Ry

     iteration # 17     ecut=    50.00 Ry     beta= 0.60
     Davidson diagonalization with overlap
     ethr =  1.08E-03,  avg # of iterations =  4.2

     total cpu time spent up to now is     5678.4 secs

     total energy              =    -587.08566444 Ry
     Harris-Foulkes estimate   =    -587.09739783 Ry
     estimated scf accuracy    <       0.08477403 Ry

     iteration # 18     ecut=    50.00 Ry     beta= 0.60
     Davidson diagonalization with overlap
     ethr =  1.35E-04,  avg # of iterations =  4.8

     total cpu time spent up to now is     5747.1 secs

     total energy              =    -587.09351779 Ry
     Harris-Foulkes estimate   =    -587.09569561 Ry
     estimated scf accuracy    <       0.02920666 Ry

     iteration # 19     ecut=    50.00 Ry     beta= 0.60
     Davidson diagonalization with overlap
     ethr =  4.64E-05,  avg # of iterations =  2.2

     total cpu time spent up to now is     5802.3 secs

     total energy              =    -587.09323938 Ry
     Harris-Foulkes estimate   =    -587.09472733 Ry
     estimated scf accuracy    <       0.02296196 Ry

     iteration # 20     ecut=    50.00 Ry     beta= 0.60
     Davidson diagonalization with overlap
     ethr =  3.64E-05,  avg # of iterations =  1.0

     total cpu time spent up to now is     5854.0 secs

     total energy              =    -587.09210300 Ry
     Harris-Foulkes estimate   =    -587.09381270 Ry
     estimated scf accuracy    <       0.01459194 Ry

     iteration # 21     ecut=    50.00 Ry     beta= 0.60
     Davidson diagonalization with overlap
     ethr =  2.32E-05,  avg # of iterations =  1.4

     total cpu time spent up to now is     5906.5 secs

     total energy              =    -587.09239193 Ry
     Harris-Foulkes estimate   =    -587.09266268 Ry
     estimated scf accuracy    <       0.00313325 Ry

     iteration # 22     ecut=    50.00 Ry     beta= 0.60
     Davidson diagonalization with overlap
     ethr =  4.97E-06,  avg # of iterations =  6.3

     total cpu time spent up to now is     5985.9 secs

     total energy              =    -587.09282535 Ry
     Harris-Foulkes estimate   =    -587.09285575 Ry
     estimated scf accuracy    <       0.00014611 Ry

     iteration # 23     ecut=    50.00 Ry     beta= 0.60
     Davidson diagonalization with overlap
     ethr =  2.32E-07,  avg # of iterations =  2.8

     total cpu time spent up to now is     6047.6 secs

     total energy              =    -587.09284025 Ry
     Harris-Foulkes estimate   =    -587.09284517 Ry
     estimated scf accuracy    <       0.00002180 Ry

     iteration # 24     ecut=    50.00 Ry     beta= 0.60
     Davidson diagonalization with overlap
     ethr =  3.46E-08,  avg # of iterations =  2.8

     total cpu time spent up to now is     6108.0 secs

     total energy              =    -587.09283980 Ry
     Harris-Foulkes estimate   =    -587.09284261 Ry
     estimated scf accuracy    <       0.00000730 Ry

     iteration # 25     ecut=    50.00 Ry     beta= 0.60
     Davidson diagonalization with overlap
     ethr =  1.16E-08,  avg # of iterations =  3.9

     total cpu time spent up to now is     6184.2 secs

     total energy              =    -587.09284073 Ry
     Harris-Foulkes estimate   =    -587.09284291 Ry
     estimated scf accuracy    <       0.00001853 Ry

     iteration # 26     ecut=    50.00 Ry     beta= 0.60
     Davidson diagonalization with overlap
     ethr =  1.16E-08,  avg # of iterations =  1.4

     total cpu time spent up to now is     6236.8 secs

     total energy              =    -587.09284105 Ry
     Harris-Foulkes estimate   =    -587.09284143 Ry
     estimated scf accuracy    <       0.00000260 Ry

     iteration # 27     ecut=    50.00 Ry     beta= 0.60
     Davidson diagonalization with overlap
     ethr =  4.12E-09,  avg # of iterations =  3.6

     total cpu time spent up to now is     6305.1 secs

     total energy              =    -587.09284133 Ry
     Harris-Foulkes estimate   =    -587.09284176 Ry
     estimated scf accuracy    <       0.00000399 Ry

     iteration # 28     ecut=    50.00 Ry     beta= 0.60
     Davidson diagonalization with overlap
     ethr =  4.12E-09,  avg # of iterations =  1.0

     total cpu time spent up to now is     6356.9 secs

     total energy              =    -587.09284147 Ry
     Harris-Foulkes estimate   =    -587.09284152 Ry
     estimated scf accuracy    <       0.00000054 Ry

     iteration # 29     ecut=    50.00 Ry     beta= 0.60
     Davidson diagonalization with overlap
     ethr =  8.64E-10,  avg # of iterations =  3.3

     total cpu time spent up to now is     6420.1 secs

     total energy              =    -587.09284151 Ry
     Harris-Foulkes estimate   =    -587.09284153 Ry
     estimated scf accuracy    <       0.00000014 Ry

     iteration # 30     ecut=    50.00 Ry     beta= 0.60
     Davidson diagonalization with overlap
     ethr =  2.20E-10,  avg # of iterations =  1.6

     total cpu time spent up to now is     6473.4 secs

     total energy              =    -587.09284151 Ry
     Harris-Foulkes estimate   =    -587.09284152 Ry
     estimated scf accuracy    <       0.00000003 Ry

     iteration # 31     ecut=    50.00 Ry     beta= 0.60
     Davidson diagonalization with overlap
     ethr =  4.95E-11,  avg # of iterations =  3.2

     total cpu time spent up to now is     6538.2 secs

     total energy              =    -587.09284152 Ry
     Harris-Foulkes estimate   =    -587.09284152 Ry
     estimated scf accuracy    <          4.3E-09 Ry

     iteration # 32     ecut=    50.00 Ry     beta= 0.60
     Davidson diagonalization with overlap
     ethr =  6.84E-12,  avg # of iterations =  2.2

     total cpu time spent up to now is     6594.9 secs

     total energy              =    -587.09284152 Ry
     Harris-Foulkes estimate   =    -587.09284152 Ry
     estimated scf accuracy    <          1.6E-09 Ry

     iteration # 33     ecut=    50.00 Ry     beta= 0.60
     Davidson diagonalization with overlap
     ethr =  2.56E-12,  avg # of iterations =  2.0

     total cpu time spent up to now is     6649.6 secs

     total energy              =    -587.09284152 Ry
     Harris-Foulkes estimate   =    -587.09284152 Ry
     estimated scf accuracy    <          1.7E-10 Ry

     iteration # 34     ecut=    50.00 Ry     beta= 0.60
     Davidson diagonalization with overlap
     ethr =  2.64E-13,  avg # of iterations =  4.1

     total cpu time spent up to now is     6723.7 secs

     End of self-consistent calculation

     Number of k-points >= 100: set verbosity='high' to print the bands.

     the Fermi energy is    16.8688 ev

!    total energy              =    -587.09284152 Ry
     Harris-Foulkes estimate   =    -587.09284152 Ry
     estimated scf accuracy    <          1.3E-11 Ry

     The total energy is the sum of the following terms:

     one-electron contribution =    -121.90908823 Ry
     hartree contribution      =      91.17696692 Ry
     xc contribution           =     -84.58972447 Ry
     ewald contribution        =    -471.76986302 Ry
     smearing contrib. (-TS)   =      -0.00113272 Ry

     convergence has been achieved in  34 iterations

     Forces acting on atoms (cartesian axes, Ry/au):

     atom    1 type  2   force =    -0.00118299   -0.00118299    0.00458832
     atom    2 type  2   force =     0.00118406    0.00118406   -0.00458576
     atom    3 type  1   force =     0.00842460    0.00842460   -0.00666668
     atom    4 type  1   force =     0.00000034    0.00000034   -0.00000002
     atom    5 type  1   force =    -0.00842602   -0.00842602    0.00666413

     Total force =     0.020506     Total SCF correction =     0.000014


     Computing stress (Cartesian axis) and pressure

          total   stress  (Ry/bohr**3)                   (kbar)     P=   57.16
   0.00038636   0.00000030  -0.00000525         56.84      0.04     -0.77
   0.00000030   0.00038636  -0.00000525          0.04     56.84     -0.77
  -0.00000525  -0.00000525   0.00039294         -0.77     -0.77     57.80


     number of scf cycles    =   3
     number of bfgs steps    =   2

     enthalpy old            =    -587.0678429693 Ry
     enthalpy new            =    -587.0928415191 Ry

     CASE: enthalpy_new < enthalpy_old

     new trust radius        =       0.0654971735 bohr
     new conv_thr            =            1.0E-10 Ry

     new unit-cell volume =    598.78983 a.u.^3 (    88.73150 Ang^3 )
     density =      7.00759 g/cm^3

CELL_PARAMETERS (alat=  1.88972599)
   4.925655898   1.632956772   4.934528961
   1.632956772   4.925655898   4.934528961
  -1.638483062  -1.638483062   1.643285597

ATOMIC_POSITIONS (angstrom)
Ti      -0.005303892  -0.005303892   3.286870609
Ti       1.646591367   1.646591367   4.935156696
Nb       3.296696700   3.296696700   6.565578864
Nb       4.919194837   4.919194837   8.223905455
Nb       4.903209812   4.903209812  11.525518931


     NEW-OLD atomic charge density approx. for the potential
     extrapolated charge   65.43103, renormalised to   63.00000

     total cpu time spent up to now is     6746.9 secs

     Self-consistent Calculation

     iteration #  1     ecut=    50.00 Ry     beta= 0.60
     Davidson diagonalization with overlap
     c_bands:  1 eigenvalues not converged
     ethr =  1.00E-06,  avg # of iterations = 12.4

     total cpu time spent up to now is     6920.8 secs

     total energy              =    -586.67396471 Ry
     Harris-Foulkes estimate   =    -583.55686779 Ry
     estimated scf accuracy    <       0.34216425 Ry

     iteration #  2     ecut=    50.00 Ry     beta= 0.60
     Davidson diagonalization with overlap
     ethr =  5.43E-04,  avg # of iterations =  6.8

     total cpu time spent up to now is     7036.0 secs

     total energy              =    -586.29653473 Ry
     Harris-Foulkes estimate   =    -587.99169280 Ry
     estimated scf accuracy    <      13.89521452 Ry

     iteration #  3     ecut=    50.00 Ry     beta= 0.60
     Davidson diagonalization with overlap
     ethr =  5.43E-04,  avg # of iterations =  5.2

     total cpu time spent up to now is     7132.0 secs

     total energy              =    -586.99923152 Ry
     Harris-Foulkes estimate   =    -587.21809560 Ry
     estimated scf accuracy    <       0.89786384 Ry

     iteration #  4     ecut=    50.00 Ry     beta= 0.60
     Davidson diagonalization with overlap
     ethr =  5.43E-04,  avg # of iterations =  4.7

     total cpu time spent up to now is     7210.7 secs

     total energy              =    -587.05488590 Ry
     Harris-Foulkes estimate   =    -587.19102297 Ry
     estimated scf accuracy    <       1.13243098 Ry

     iteration #  5     ecut=    50.00 Ry     beta= 0.60
     Davidson diagonalization with overlap
     ethr =  5.43E-04,  avg # of iterations =  2.8

     total cpu time spent up to now is     7269.7 secs

     total energy              =    -587.10393746 Ry
     Harris-Foulkes estimate   =    -587.11180000 Ry
     estimated scf accuracy    <       0.11944893 Ry

     iteration #  6     ecut=    50.00 Ry     beta= 0.60
     Davidson diagonalization with overlap
     ethr =  1.90E-04,  avg # of iterations =  1.8

     total cpu time spent up to now is     7323.3 secs

     total energy              =    -587.09688801 Ry
     Harris-Foulkes estimate   =    -587.10664972 Ry
     estimated scf accuracy    <       0.07757951 Ry

     iteration #  7     ecut=    50.00 Ry     beta= 0.60
     Davidson diagonalization with overlap
     ethr =  1.23E-04,  avg # of iterations =  1.9

     total cpu time spent up to now is     7377.3 secs

     total energy              =    -587.09561809 Ry
     Harris-Foulkes estimate   =    -587.09924017 Ry
     estimated scf accuracy    <       0.03195013 Ry

     iteration #  8     ecut=    50.00 Ry     beta= 0.60
     Davidson diagonalization with overlap
     ethr =  5.07E-05,  avg # of iterations =  5.1

     total cpu time spent up to now is     7446.0 secs

     total energy              =    -587.09761043 Ry
     Harris-Foulkes estimate   =    -587.09804055 Ry
     estimated scf accuracy    <       0.00812424 Ry

     iteration #  9     ecut=    50.00 Ry     beta= 0.60
     Davidson diagonalization with overlap
     ethr =  1.29E-05,  avg # of iterations =  3.9

     total cpu time spent up to now is     7506.2 secs

     total energy              =    -587.09740306 Ry
     Harris-Foulkes estimate   =    -587.09785226 Ry
     estimated scf accuracy    <       0.00586542 Ry

     iteration # 10     ecut=    50.00 Ry     beta= 0.60
     Davidson diagonalization with overlap
     ethr =  9.31E-06,  avg # of iterations =  1.1

     total cpu time spent up to now is     7558.1 secs

     total energy              =    -587.09665492 Ry
     Harris-Foulkes estimate   =    -587.09748285 Ry
     estimated scf accuracy    <       0.00389341 Ry

     iteration # 11     ecut=    50.00 Ry     beta= 0.60
     Davidson diagonalization with overlap
     ethr =  6.18E-06,  avg # of iterations =  3.3

     total cpu time spent up to now is     7618.2 secs

     total energy              =    -587.09689344 Ry
     Harris-Foulkes estimate   =    -587.09695440 Ry
     estimated scf accuracy    <       0.00042788 Ry

     iteration # 12     ecut=    50.00 Ry     beta= 0.60
     Davidson diagonalization with overlap
     ethr =  6.79E-07,  avg # of iterations =  5.6

     total cpu time spent up to now is     7701.4 secs

     total energy              =    -587.09700200 Ry
     Harris-Foulkes estimate   =    -587.09702132 Ry
     estimated scf accuracy    <       0.00034144 Ry

     iteration # 13     ecut=    50.00 Ry     beta= 0.60
     Davidson diagonalization with overlap
     ethr =  5.42E-07,  avg # of iterations =  1.0

     total cpu time spent up to now is     7753.0 secs

     total energy              =    -587.09698918 Ry
     Harris-Foulkes estimate   =    -587.09700825 Ry
     estimated scf accuracy    <       0.00022496 Ry

     iteration # 14     ecut=    50.00 Ry     beta= 0.60
     Davidson diagonalization with overlap
     ethr =  3.57E-07,  avg # of iterations =  1.0

     total cpu time spent up to now is     7804.6 secs

     total energy              =    -587.09698165 Ry
     Harris-Foulkes estimate   =    -587.09699481 Ry
     estimated scf accuracy    <       0.00007363 Ry

     iteration # 15     ecut=    50.00 Ry     beta= 0.60
     Davidson diagonalization with overlap
     ethr =  1.17E-07,  avg # of iterations =  3.4

     total cpu time spent up to now is     7871.0 secs

     total energy              =    -587.09699020 Ry
     Harris-Foulkes estimate   =    -587.09699533 Ry
     estimated scf accuracy    <       0.00003015 Ry

     iteration # 16     ecut=    50.00 Ry     beta= 0.60
     Davidson diagonalization with overlap
     ethr =  4.79E-08,  avg # of iterations =  1.9

     total cpu time spent up to now is     7925.2 secs

     total energy              =    -587.09699212 Ry
     Harris-Foulkes estimate   =    -587.09699225 Ry
     estimated scf accuracy    <       0.00000123 Ry

     iteration # 17     ecut=    50.00 Ry     beta= 0.60
     Davidson diagonalization with overlap
     ethr =  1.95E-09,  avg # of iterations =  4.3

     total cpu time spent up to now is     8001.8 secs

     total energy              =    -587.09699266 Ry
     Harris-Foulkes estimate   =    -587.09699270 Ry
     estimated scf accuracy    <       0.00000035 Ry

     iteration # 18     ecut=    50.00 Ry     beta= 0.60
     Davidson diagonalization with overlap
     ethr =  5.53E-10,  avg # of iterations =  1.1

     total cpu time spent up to now is     8053.7 secs

     total energy              =    -587.09699266 Ry
     Harris-Foulkes estimate   =    -587.09699267 Ry
     estimated scf accuracy    <       0.00000007 Ry

     iteration # 19     ecut=    50.00 Ry     beta= 0.60
     Davidson diagonalization with overlap
     ethr =  1.12E-10,  avg # of iterations =  3.2

     total cpu time spent up to now is     8119.9 secs

     total energy              =    -587.09699267 Ry
     Harris-Foulkes estimate   =    -587.09699268 Ry
     estimated scf accuracy    <       0.00000003 Ry

     iteration # 20     ecut=    50.00 Ry     beta= 0.60
     Davidson diagonalization with overlap
     ethr =  4.44E-11,  avg # of iterations =  1.1

     total cpu time spent up to now is     8172.0 secs

     total energy              =    -587.09699267 Ry
     Harris-Foulkes estimate   =    -587.09699267 Ry
     estimated scf accuracy    <          7.0E-10 Ry

     iteration # 21     ecut=    50.00 Ry     beta= 0.60
     Davidson diagonalization with overlap
     ethr =  1.11E-12,  avg # of iterations =  4.6

     total cpu time spent up to now is     8254.3 secs

     total energy              =    -587.09699267 Ry
     Harris-Foulkes estimate   =    -587.09699268 Ry
     estimated scf accuracy    <          9.4E-10 Ry

     iteration # 22     ecut=    50.00 Ry     beta= 0.60
     Davidson diagonalization with overlap
     ethr =  1.11E-12,  avg # of iterations =  1.0

     total cpu time spent up to now is     8305.6 secs

     total energy              =    -587.09699268 Ry
     Harris-Foulkes estimate   =    -587.09699268 Ry
     estimated scf accuracy    <          1.7E-10 Ry

     iteration # 23     ecut=    50.00 Ry     beta= 0.60
     Davidson diagonalization with overlap
     ethr =  2.75E-13,  avg # of iterations =  3.5

     total cpu time spent up to now is     8366.1 secs

     End of self-consistent calculation

     Number of k-points >= 100: set verbosity='high' to print the bands.

     the Fermi energy is    16.0881 ev

!    total energy              =    -587.09699267 Ry
     Harris-Foulkes estimate   =    -587.09699268 Ry
     estimated scf accuracy    <          7.6E-11 Ry

     The total energy is the sum of the following terms:

     one-electron contribution =    -131.01654244 Ry
     hartree contribution      =      93.72584652 Ry
     xc contribution           =     -84.38310065 Ry
     ewald contribution        =    -465.42237010 Ry
     smearing contrib. (-TS)   =      -0.00082599 Ry

     convergence has been achieved in  23 iterations

     Forces acting on atoms (cartesian axes, Ry/au):

     atom    1 type  2   force =    -0.00215856   -0.00215856    0.00222345
     atom    2 type  2   force =     0.00215928    0.00215928   -0.00222168
     atom    3 type  1   force =     0.00842265    0.00842265   -0.00650529
     atom    4 type  1   force =     0.00000018    0.00000018   -0.00000025
     atom    5 type  1   force =    -0.00842354   -0.00842354    0.00650376

     Total force =     0.019923     Total SCF correction =     0.000034


     Computing stress (Cartesian axis) and pressure

          total   stress  (Ry/bohr**3)                   (kbar)     P=   -5.34
  -0.00003891  -0.00000771  -0.00000388         -5.72     -1.13     -0.57
  -0.00000771  -0.00003891  -0.00000388         -1.13     -5.72     -0.57
  -0.00000388  -0.00000388  -0.00003115         -0.57     -0.57     -4.58


     number of scf cycles    =   4
     number of bfgs steps    =   3

     enthalpy old            =    -587.0928415191 Ry
     enthalpy new            =    -587.0969926750 Ry

     CASE: enthalpy_new < enthalpy_old

     new trust radius        =       0.0121722644 bohr
     new conv_thr            =            1.0E-10 Ry

     new unit-cell volume =    596.90102 a.u.^3 (    88.45160 Ang^3 )
     density =      7.02977 g/cm^3

CELL_PARAMETERS (alat=  1.88972599)
   4.919413082   1.629743034   4.929380932
   1.629743034   4.919413082   4.929380932
  -1.636477811  -1.636477811   1.642050275

ATOMIC_POSITIONS (angstrom)
Ti      -0.006600051  -0.006600051   3.284877574
Ti       1.645021246   1.645021246   4.929243410
Nb       3.295790008   3.295790008   6.555815355
Nb       4.912030737   4.912030737   8.215421451
Nb       4.891792974   4.891792974  11.517078625


     NEW-OLD atomic charge density approx. for the potential
     extrapolated charge   62.80700, renormalised to   63.00000

     total cpu time spent up to now is     8389.3 secs

     Self-consistent Calculation

     iteration #  1     ecut=    50.00 Ry     beta= 0.60
     Davidson diagonalization with overlap
     ethr =  1.00E-06,  avg # of iterations =  4.4

     total cpu time spent up to now is     8496.4 secs

     total energy              =    -587.09357904 Ry
     Harris-Foulkes estimate   =    -587.38257795 Ry
     estimated scf accuracy    <       0.00335814 Ry

     iteration #  2     ecut=    50.00 Ry     beta= 0.60
     Davidson diagonalization with overlap
     c_bands:  1 eigenvalues not converged
     c_bands:  1 eigenvalues not converged
     c_bands:  2 eigenvalues not converged
     c_bands:  1 eigenvalues not converged
     c_bands:  1 eigenvalues not converged
     c_bands:  1 eigenvalues not converged
     ethr =  5.33E-06,  avg # of iterations =  7.0

     total cpu time spent up to now is     8607.4 secs

     total energy              =    -587.09171575 Ry
     Harris-Foulkes estimate   =    -587.10580901 Ry
     estimated scf accuracy    <       0.09622414 Ry

     iteration #  3     ecut=    50.00 Ry     beta= 0.60
     Davidson diagonalization with overlap
     ethr =  5.33E-06,  avg # of iterations =  5.1

     total cpu time spent up to now is     8699.8 secs

     total energy              =    -587.09688721 Ry
     Harris-Foulkes estimate   =    -587.09827422 Ry
     estimated scf accuracy    <       0.00471353 Ry

     iteration #  4     ecut=    50.00 Ry     beta= 0.60
     Davidson diagonalization with overlap
     ethr =  5.33E-06,  avg # of iterations =  4.0

     total cpu time spent up to now is     8769.4 secs

     total energy              =    -587.09709310 Ry
     Harris-Foulkes estimate   =    -587.09818619 Ry
     estimated scf accuracy    <       0.00951854 Ry

     iteration #  5     ecut=    50.00 Ry     beta= 0.60
     Davidson diagonalization with overlap
     ethr =  5.33E-06,  avg # of iterations =  2.4

     total cpu time spent up to now is     8825.7 secs

     total energy              =    -587.09734801 Ry
     Harris-Foulkes estimate   =    -587.09753505 Ry
     estimated scf accuracy    <       0.00138253 Ry

     iteration #  6     ecut=    50.00 Ry     beta= 0.60
     Davidson diagonalization with overlap
     ethr =  2.19E-06,  avg # of iterations =  2.5

     total cpu time spent up to now is     8881.4 secs

     total energy              =    -587.09738187 Ry
     Harris-Foulkes estimate   =    -587.09740915 Ry
     estimated scf accuracy    <       0.00041877 Ry

     iteration #  7     ecut=    50.00 Ry     beta= 0.60
     Davidson diagonalization with overlap
     ethr =  6.65E-07,  avg # of iterations =  3.1

     total cpu time spent up to now is     8940.0 secs

     total energy              =    -587.09734532 Ry
     Harris-Foulkes estimate   =    -587.09740609 Ry
     estimated scf accuracy    <       0.00027026 Ry

     iteration #  8     ecut=    50.00 Ry     beta= 0.60
     Davidson diagonalization with overlap
     ethr =  4.29E-07,  avg # of iterations =  3.3

     total cpu time spent up to now is     9001.6 secs

     total energy              =    -587.09737467 Ry
     Harris-Foulkes estimate   =    -587.09737501 Ry
     estimated scf accuracy    <       0.00002624 Ry

     iteration #  9     ecut=    50.00 Ry     beta= 0.60
     Davidson diagonalization with overlap
     ethr =  4.17E-08,  avg # of iterations =  3.8

     total cpu time spent up to now is     9067.8 secs

     total energy              =    -587.09737824 Ry
     Harris-Foulkes estimate   =    -587.09737844 Ry
     estimated scf accuracy    <       0.00002718 Ry

     iteration # 10     ecut=    50.00 Ry     beta= 0.60
     Davidson diagonalization with overlap
     ethr =  4.17E-08,  avg # of iterations =  1.0

     total cpu time spent up to now is     9119.6 secs

     total energy              =    -587.09737805 Ry
     Harris-Foulkes estimate   =    -587.09737844 Ry
     estimated scf accuracy    <       0.00002454 Ry

     iteration # 11     ecut=    50.00 Ry     beta= 0.60
     Davidson diagonalization with overlap
     ethr =  3.90E-08,  avg # of iterations =  1.0

     total cpu time spent up to now is     9171.6 secs

     total energy              =    -587.09737199 Ry
     Harris-Foulkes estimate   =    -587.09737877 Ry
     estimated scf accuracy    <       0.00003092 Ry

     iteration # 12     ecut=    50.00 Ry     beta= 0.60
     Davidson diagonalization with overlap
     ethr =  3.90E-08,  avg # of iterations =  3.6

     total cpu time spent up to now is     9240.2 secs

     total energy              =    -587.09738018 Ry
     Harris-Foulkes estimate   =    -587.09738115 Ry
     estimated scf accuracy    <       0.00006266 Ry

     iteration # 13     ecut=    50.00 Ry     beta= 0.60
     Davidson diagonalization with overlap
     ethr =  3.90E-08,  avg # of iterations =  1.0

     total cpu time spent up to now is     9291.9 secs

     total energy              =    -587.09737674 Ry
     Harris-Foulkes estimate   =    -587.09738037 Ry
     estimated scf accuracy    <       0.00005290 Ry

     iteration # 14     ecut=    50.00 Ry     beta= 0.60
     Davidson diagonalization with overlap
     ethr =  3.90E-08,  avg # of iterations =  1.0

     total cpu time spent up to now is     9343.8 secs

     total energy              =    -587.09737592 Ry
     Harris-Foulkes estimate   =    -587.09737746 Ry
     estimated scf accuracy    <       0.00002131 Ry

     iteration # 15     ecut=    50.00 Ry     beta= 0.60
     Davidson diagonalization with overlap
     ethr =  3.38E-08,  avg # of iterations =  1.2

     total cpu time spent up to now is     9396.1 secs

     total energy              =    -587.09737608 Ry
     Harris-Foulkes estimate   =    -587.09737638 Ry
     estimated scf accuracy    <       0.00000722 Ry

     iteration # 16     ecut=    50.00 Ry     beta= 0.60
     Davidson diagonalization with overlap
     ethr =  1.15E-08,  avg # of iterations =  3.0

     total cpu time spent up to now is     9453.5 secs

     total energy              =    -587.09737563 Ry
     Harris-Foulkes estimate   =    -587.09737634 Ry
     estimated scf accuracy    <       0.00000279 Ry

     iteration # 17     ecut=    50.00 Ry     beta= 0.60
     Davidson diagonalization with overlap
     ethr =  4.42E-09,  avg # of iterations =  4.0

     total cpu time spent up to now is     9525.4 secs

     total energy              =    -587.09737620 Ry
     Harris-Foulkes estimate   =    -587.09737677 Ry
     estimated scf accuracy    <       0.00000507 Ry

     iteration # 18     ecut=    50.00 Ry     beta= 0.60
     Davidson diagonalization with overlap
     ethr =  4.42E-09,  avg # of iterations =  1.0

     total cpu time spent up to now is     9577.0 secs

     total energy              =    -587.09737629 Ry
     Harris-Foulkes estimate   =    -587.09737635 Ry
     estimated scf accuracy    <       0.00000075 Ry

     iteration # 19     ecut=    50.00 Ry     beta= 0.60
     Davidson diagonalization with overlap
     ethr =  1.20E-09,  avg # of iterations =  3.8

     total cpu time spent up to now is     9643.9 secs

     total energy              =    -587.09737639 Ry
     Harris-Foulkes estimate   =    -587.09737639 Ry
     estimated scf accuracy    <       0.00000004 Ry

     iteration # 20     ecut=    50.00 Ry     beta= 0.60
     Davidson diagonalization with overlap
     ethr =  5.72E-11,  avg # of iterations =  3.5

     total cpu time spent up to now is     9710.8 secs

     total energy              =    -587.09737640 Ry
     Harris-Foulkes estimate   =    -587.09737640 Ry
     estimated scf accuracy    <       0.00000004 Ry

     iteration # 21     ecut=    50.00 Ry     beta= 0.60
     Davidson diagonalization with overlap
     ethr =  5.72E-11,  avg # of iterations =  1.0

     total cpu time spent up to now is     9762.9 secs

     total energy              =    -587.09737639 Ry
     Harris-Foulkes estimate   =    -587.09737640 Ry
     estimated scf accuracy    <       0.00000006 Ry

     iteration # 22     ecut=    50.00 Ry     beta= 0.60
     Davidson diagonalization with overlap
     ethr =  5.72E-11,  avg # of iterations =  1.0

     total cpu time spent up to now is     9814.9 secs

     total energy              =    -587.09737639 Ry
     Harris-Foulkes estimate   =    -587.09737639 Ry
     estimated scf accuracy    <       0.00000003 Ry

     iteration # 23     ecut=    50.00 Ry     beta= 0.60
     Davidson diagonalization with overlap
     ethr =  5.55E-11,  avg # of iterations =  1.0

     total cpu time spent up to now is     9867.0 secs

     total energy              =    -587.09737639 Ry
     Harris-Foulkes estimate   =    -587.09737639 Ry
     estimated scf accuracy    <       0.00000001 Ry

     iteration # 24     ecut=    50.00 Ry     beta= 0.60
     Davidson diagonalization with overlap
     ethr =  1.85E-11,  avg # of iterations =  3.3

     total cpu time spent up to now is     9931.7 secs

     total energy              =    -587.09737639 Ry
     Harris-Foulkes estimate   =    -587.09737639 Ry
     estimated scf accuracy    <          1.4E-09 Ry

     iteration # 25     ecut=    50.00 Ry     beta= 0.60
     Davidson diagonalization with overlap
     ethr =  2.15E-12,  avg # of iterations =  2.3

     total cpu time spent up to now is     9989.8 secs

     End of self-consistent calculation

     Number of k-points >= 100: set verbosity='high' to print the bands.

     the Fermi energy is    16.1472 ev

!    total energy              =    -587.09737639 Ry
     Harris-Foulkes estimate   =    -587.09737639 Ry
     estimated scf accuracy    <          1.1E-11 Ry

     The total energy is the sum of the following terms:

     one-electron contribution =    -130.31607983 Ry
     hartree contribution      =      93.52724541 Ry
     xc contribution           =     -84.39886961 Ry
     ewald contribution        =    -465.90885694 Ry
     smearing contrib. (-TS)   =      -0.00081541 Ry

     convergence has been achieved in  25 iterations

     Forces acting on atoms (cartesian axes, Ry/au):

     atom    1 type  2   force =    -0.00203944   -0.00203944    0.00216154
     atom    2 type  2   force =     0.00203992    0.00203992   -0.00216027
     atom    3 type  1   force =     0.00773497    0.00773497   -0.00593675
     atom    4 type  1   force =    -0.00000019   -0.00000019   -0.00000098
     atom    5 type  1   force =    -0.00773526   -0.00773526    0.00593646

     Total force =     0.018325     Total SCF correction =     0.000009


     Computing stress (Cartesian axis) and pressure

          total   stress  (Ry/bohr**3)                   (kbar)     P=   -0.76
  -0.00000748  -0.00000527  -0.00000486         -1.10     -0.78     -0.71
  -0.00000527  -0.00000748  -0.00000486         -0.78     -1.10     -0.71
  -0.00000486  -0.00000486  -0.00000043         -0.71     -0.71     -0.06


     number of scf cycles    =   5
     number of bfgs steps    =   4

     enthalpy old            =    -587.0969926750 Ry
     enthalpy new            =    -587.0973763917 Ry

     CASE: enthalpy_new < enthalpy_old

     new trust radius        =       0.0182379914 bohr
     new conv_thr            =            1.0E-10 Ry

     new unit-cell volume =    595.88063 a.u.^3 (    88.30040 Ang^3 )
     density =      7.04180 g/cm^3

CELL_PARAMETERS (alat=  1.88972599)
   4.914933998   1.626667673   4.926379031
   1.626667673   4.914933998   4.926379031
  -1.635281125  -1.635281125   1.641976125

ATOMIC_POSITIONS (angstrom)
Ti      -0.008695934  -0.008695934   3.285285034
Ti       1.644260213   1.644260213   4.925130881
Nb       3.297700036   3.297700036   6.547544694
Nb       4.906226479   4.906226479   8.210603051
Nb       4.879470846   4.879470846  11.515638904


     NEW-OLD atomic charge density approx. for the potential
     extrapolated charge   62.89556, renormalised to   63.00000

     total cpu time spent up to now is    10013.0 secs

     Self-consistent Calculation

     iteration #  1     ecut=    50.00 Ry     beta= 0.60
     Davidson diagonalization with overlap
     ethr =  1.00E-06,  avg # of iterations =  4.2

     total cpu time spent up to now is    10121.8 secs

     total energy              =    -587.09685927 Ry
     Harris-Foulkes estimate   =    -587.25167088 Ry
     estimated scf accuracy    <       0.00085032 Ry

     iteration #  2     ecut=    50.00 Ry     beta= 0.60
     Davidson diagonalization with overlap
     ethr =  1.35E-06,  avg # of iterations =  5.8

     total cpu time spent up to now is    10230.6 secs

     total energy              =    -587.09646800 Ry
     Harris-Foulkes estimate   =    -587.09980184 Ry
     estimated scf accuracy    <       0.02318445 Ry

     iteration #  3     ecut=    50.00 Ry     beta= 0.60
     Davidson diagonalization with overlap
     ethr =  1.35E-06,  avg # of iterations =  4.9

     total cpu time spent up to now is    10321.1 secs

     total energy              =    -587.09768977 Ry
     Harris-Foulkes estimate   =    -587.09808738 Ry
     estimated scf accuracy    <       0.00133604 Ry

     iteration #  4     ecut=    50.00 Ry     beta= 0.60
     Davidson diagonalization with overlap
     ethr =  1.35E-06,  avg # of iterations =  3.8

     total cpu time spent up to now is    10390.9 secs

     total energy              =    -587.09774829 Ry
     Harris-Foulkes estimate   =    -587.09804754 Ry
     estimated scf accuracy    <       0.00244390 Ry

     iteration #  5     ecut=    50.00 Ry     beta= 0.60
     Davidson diagonalization with overlap
     ethr =  1.35E-06,  avg # of iterations =  2.7

     total cpu time spent up to now is    10449.6 secs

     total energy              =    -587.09781360 Ry
     Harris-Foulkes estimate   =    -587.09788084 Ry
     estimated scf accuracy    <       0.00034929 Ry

     iteration #  6     ecut=    50.00 Ry     beta= 0.60
     Davidson diagonalization with overlap
     ethr =  5.54E-07,  avg # of iterations =  2.3

     total cpu time spent up to now is    10505.5 secs

     total energy              =    -587.09782641 Ry
     Harris-Foulkes estimate   =    -587.09783585 Ry
     estimated scf accuracy    <       0.00008308 Ry

     iteration #  7     ecut=    50.00 Ry     beta= 0.60
     Davidson diagonalization with overlap
     ethr =  1.32E-07,  avg # of iterations =  3.4

     total cpu time spent up to now is    10569.5 secs

     total energy              =    -587.09783021 Ry
     Harris-Foulkes estimate   =    -587.09783837 Ry
     estimated scf accuracy    <       0.00004942 Ry

     iteration #  8     ecut=    50.00 Ry     beta= 0.60
     Davidson diagonalization with overlap
     ethr =  7.84E-08,  avg # of iterations =  3.1

     total cpu time spent up to now is    10628.5 secs

     total energy              =    -587.09783486 Ry
     Harris-Foulkes estimate   =    -587.09783546 Ry
     estimated scf accuracy    <       0.00000942 Ry

     iteration #  9     ecut=    50.00 Ry     beta= 0.60
     Davidson diagonalization with overlap
     ethr =  1.50E-08,  avg # of iterations =  3.4

     total cpu time spent up to now is    10692.1 secs

     total energy              =    -587.09783524 Ry
     Harris-Foulkes estimate   =    -587.09783587 Ry
     estimated scf accuracy    <       0.00000758 Ry

     iteration # 10     ecut=    50.00 Ry     beta= 0.60
     Davidson diagonalization with overlap
     ethr =  1.20E-08,  avg # of iterations =  1.0

     total cpu time spent up to now is    10744.1 secs

     total energy              =    -587.09783480 Ry
     Harris-Foulkes estimate   =    -587.09783539 Ry
     estimated scf accuracy    <       0.00000319 Ry

     iteration # 11     ecut=    50.00 Ry     beta= 0.60
     Davidson diagonalization with overlap
     ethr =  5.07E-09,  avg # of iterations =  3.1

     total cpu time spent up to now is    10805.2 secs

     total energy              =    -587.09783514 Ry
     Harris-Foulkes estimate   =    -587.09783514 Ry
     estimated scf accuracy    <       0.00000004 Ry

     iteration # 12     ecut=    50.00 Ry     beta= 0.60
     Davidson diagonalization with overlap
     ethr =  6.32E-11,  avg # of iterations =  5.0

     total cpu time spent up to now is    10894.9 secs
[...]
End final coordinates



     A final scf calculation at the relaxed structure.
     The G-vectors are recalculated for the final unit cell
     Results may differ from those at the preceding step.
 
     Parallelization info
     --------------------
     sticks:   dense  smooth     PW     G-vecs:    dense   smooth      PW
     Min        1113     446    138                28182     7129    1249
     Max        1114     447    139                28183     7130    1250
     Sum        4453    1787    555               112729    28519    4997
 


     bravais-lattice index     =            0
     lattice parameter (alat)  =       1.8897  a.u.
     unit-cell volume          =     597.0213 (a.u.)^3
     number of atoms/cell      =            5
     number of atomic types    =            2
     number of electrons       =        63.00
     number of Kohn-Sham states=           38
     kinetic-energy cutoff     =      50.0000  Ry
     charge density cutoff     =     500.0000  Ry
     convergence threshold     =      1.1E-12
     mixing beta               =       0.6000
     number of iterations used =            8  plain     mixing
     Exchange-correlation      = SLA PW PBE PBE ( 1  4  3  4 0 0)

     celldm(1)=   1.889726  celldm(2)=   0.000000  celldm(3)=   0.000000
     celldm(4)=   0.000000  celldm(5)=   0.000000  celldm(6)=   0.000000

     crystal axes: (cart. coord. in units of alat)
               a(1) = (   4.907412   1.618184   4.913285 )  
               a(2) = (   1.618184   4.907412   4.913285 )  
               a(3) = (  -1.640985  -1.640985   1.650649 )  

     reciprocal axes: (cart. coord. in units 2 pi/alat)
               b(1) = (  0.182696 -0.121326  0.061011 )  
               b(2) = ( -0.121326  0.182696  0.061011 )  
               b(3) = ( -0.182672 -0.182672  0.242617 )  


     PseudoPot. # 1 for Nb read from file:
     ./Nb.pbe-nsp-van.UPF
     MD5 check sum: 0a22fc7fb0ba19a08ca5db297a5d2854
     Pseudo is Ultrasoft + core correction, Zval = 13.0
     Generated by new atomic code, or converted to UPF format
     Using radial grid of  887 points,  6 beta functions with: 
                l(1) =   0
                l(2) =   0
                l(3) =   1
                l(4) =   1
                l(5) =   2
                l(6) =   2
     Q(r) pseudized with  6 coefficients,  rinner =    1.000   1.000   1.000
                                                       1.000   1.000

     PseudoPot. # 2 for Ti read from file:
     ./Ti.pbe-sp-van_ak.UPF
     MD5 check sum: f98fea3e8887528921fefa5636a534ca
     Pseudo is Ultrasoft, Zval = 12.0
     Generated by new atomic code, or converted to UPF format
     Using radial grid of  851 points,  6 beta functions with: 
                l(1) =   0
                l(2) =   0
                l(3) =   1
                l(4) =   1
                l(5) =   2
                l(6) =   2
     Q(r) pseudized with  8 coefficients,  rinner =    1.000   1.000   1.000
                                                       1.000   1.000

     atomic species   valence    mass     pseudopotential
        Nb            13.00    92.90638     Nb( 1.00)
        Ti            12.00    47.86700     Ti( 1.00)

      2 Sym. Ops. (no inversion) found



   Cartesian axes

     site n.     atom                  positions (alat units)
         1           Ti  tau(   1) = (  -0.0395133  -0.0395133   3.3138645  )
         2           Ti  tau(   2) = (   1.6574889   1.6574889   4.8929836  )
         3           Nb  tau(   3) = (   3.3214703   3.3214703   6.5157006  )
         4           Nb  tau(   4) = (   4.8922808   4.8922808   8.1913871  )
         5           Nb  tau(   5) = (   4.8221044   4.8221044  11.5177222  )

     number of k points=   500  Marzari-Vanderbilt smearing, width (Ry)=  0.0200

     Number of k-points >= 100: set verbosity='high' to print them.

     Dense  grid:   112729 G-vectors     FFT dimensions: (  96,  96,  40)

     Smooth grid:    28519 G-vectors     FFT dimensions: (  64,  64,  25)

     Estimated max dynamical RAM per process >     367.93 MB

     Estimated total dynamical RAM >       1.44 GB

     Initial potential from superposition of free atoms

     starting charge   60.99171, renormalised to   63.00000
     Starting wfcs are   59 randomized atomic wfcs

     total cpu time spent up to now is    31690.9 secs

     Self-consistent Calculation

     iteration #  1     ecut=    50.00 Ry     beta= 0.60
     Davidson diagonalization with overlap
     c_bands:  1 eigenvalues not converged
     c_bands:  1 eigenvalues not converged
     c_bands:  1 eigenvalues not converged
     c_bands:  1 eigenvalues not converged
     c_bands:  3 eigenvalues not converged
     c_bands:  1 eigenvalues not converged
     c_bands:  1 eigenvalues not converged
     c_bands:  1 eigenvalues not converged
     c_bands:  1 eigenvalues not converged
     c_bands:  1 eigenvalues not converged
     c_bands:  1 eigenvalues not converged
     c_bands:  1 eigenvalues not converged
     c_bands:  1 eigenvalues not converged
     c_bands:  1 eigenvalues not converged
     c_bands:  1 eigenvalues not converged
     c_bands:  2 eigenvalues not converged
     c_bands:  2 eigenvalues not converged
     c_bands:  1 eigenvalues not converged
     c_bands:  1 eigenvalues not converged
     c_bands:  1 eigenvalues not converged
     c_bands:  1 eigenvalues not converged
     c_bands:  1 eigenvalues not converged
     c_bands:  1 eigenvalues not converged
     c_bands:  1 eigenvalues not converged
     c_bands:  1 eigenvalues not converged
     c_bands:  1 eigenvalues not converged
     c_bands:  1 eigenvalues not converged
     c_bands:  1 eigenvalues not converged
     c_bands:  2 eigenvalues not converged
     c_bands:  1 eigenvalues not converged
     c_bands:  2 eigenvalues not converged
     c_bands:  1 eigenvalues not converged
     c_bands:  1 eigenvalues not converged
     c_bands:  1 eigenvalues not converged
     c_bands:  1 eigenvalues not converged
     c_bands:  1 eigenvalues not converged
     ethr =  1.00E-06,  avg # of iterations = 13.1

     total cpu time spent up to now is    31844.1 secs

     total energy              =    -568.11973501 Ry
     Harris-Foulkes estimate   =    -589.56223089 Ry
     estimated scf accuracy    <      26.87821030 Ry

     iteration #  2     ecut=    50.00 Ry     beta= 0.60
     Davidson diagonalization with overlap
     ethr =  1.00E-02,  avg # of iterations =  5.4

     total cpu time spent up to now is    31930.3 secs

     total energy              =    -571.63775247 Ry
     Harris-Foulkes estimate   =    -618.88164707 Ry
     estimated scf accuracy    <     156.78684923 Ry

     iteration #  3     ecut=    50.00 Ry     beta= 0.60
     Davidson diagonalization with overlap
     ethr =  1.00E-02,  avg # of iterations =  5.1

     total cpu time spent up to now is    32007.6 secs

     total energy              =    -586.69408715 Ry
     Harris-Foulkes estimate   =    -594.37044677 Ry
     estimated scf accuracy    <      37.25658293 Ry

     iteration #  4     ecut=    50.00 Ry     beta= 0.60
     Davidson diagonalization with overlap
     ethr =  1.00E-02,  avg # of iterations =  2.4

     total cpu time spent up to now is    32055.8 secs

     total energy              =    -588.32322023 Ry
     Harris-Foulkes estimate   =    -588.85144424 Ry
     estimated scf accuracy    <       8.93304307 Ry

     iteration #  5     ecut=    50.00 Ry     beta= 0.60
     Davidson diagonalization with overlap
     ethr =  1.00E-02,  avg # of iterations =  1.0

     total cpu time spent up to now is    32096.1 secs

     total energy              =    -587.51686558 Ry
     Harris-Foulkes estimate   =    -588.36084640 Ry
     estimated scf accuracy    <       7.48573113 Ry

     iteration #  6     ecut=    50.00 Ry     beta= 0.60
     Davidson diagonalization with overlap
     ethr =  1.00E-02,  avg # of iterations =  1.0

     total cpu time spent up to now is    32136.3 secs

     total energy              =    -586.61084762 Ry
     Harris-Foulkes estimate   =    -587.60219966 Ry
     estimated scf accuracy    <       4.76697538 Ry

     iteration #  7     ecut=    50.00 Ry     beta= 0.60
     Davidson diagonalization with overlap
     ethr =  7.57E-03,  avg # of iterations =  3.5

     total cpu time spent up to now is    32186.1 secs

     total energy              =    -587.02662589 Ry
     Harris-Foulkes estimate   =    -587.03957343 Ry
     estimated scf accuracy    <       0.04258789 Ry

     iteration #  8     ecut=    50.00 Ry     beta= 0.60
     Davidson diagonalization with overlap
     ethr =  6.76E-05,  avg # of iterations =  6.7

     total cpu time spent up to now is    32273.0 secs

     total energy              =    -587.09719557 Ry
     Harris-Foulkes estimate   =    -587.10583822 Ry
     estimated scf accuracy    <       0.07537832 Ry

     iteration #  9     ecut=    50.00 Ry     beta= 0.60
     Davidson diagonalization with overlap
     ethr =  6.76E-05,  avg # of iterations =  2.5

     total cpu time spent up to now is    32318.6 secs

     total energy              =    -587.08918979 Ry
     Harris-Foulkes estimate   =    -587.10409718 Ry
     estimated scf accuracy    <       0.07390119 Ry

     iteration # 10     ecut=    50.00 Ry     beta= 0.60
     Davidson diagonalization with overlap
     ethr =  6.76E-05,  avg # of iterations =  3.5

     total cpu time spent up to now is    32369.9 secs

     total energy              =    -587.10006306 Ry
     Harris-Foulkes estimate   =    -587.10003553 Ry
     estimated scf accuracy    <       0.01645781 Ry

     iteration # 11     ecut=    50.00 Ry     beta= 0.60
     Davidson diagonalization with overlap
     ethr =  2.61E-05,  avg # of iterations =  4.1

     total cpu time spent up to now is    32418.0 secs

     total energy              =    -587.09885065 Ry
     Harris-Foulkes estimate   =    -587.10131917 Ry
     estimated scf accuracy    <       0.03555809 Ry

     iteration # 12     ecut=    50.00 Ry     beta= 0.60
     Davidson diagonalization with overlap
     ethr =  2.61E-05,  avg # of iterations =  1.0

     total cpu time spent up to now is    32458.4 secs

     total energy              =    -587.09719816 Ry
     Harris-Foulkes estimate   =    -587.09961491 Ry
     estimated scf accuracy    <       0.01508146 Ry

     iteration # 13     ecut=    50.00 Ry     beta= 0.60
     Davidson diagonalization with overlap
     ethr =  2.39E-05,  avg # of iterations =  2.8

     total cpu time spent up to now is    32503.5 secs

     total energy              =    -587.09844504 Ry
     Harris-Foulkes estimate   =    -587.09847771 Ry
     estimated scf accuracy    <       0.00018852 Ry

     iteration # 14     ecut=    50.00 Ry     beta= 0.60
     Davidson diagonalization with overlap
     ethr =  2.99E-07,  avg # of iterations =  5.7

     total cpu time spent up to now is    32577.0 secs

     total energy              =    -587.09871168 Ry
     Harris-Foulkes estimate   =    -587.09874807 Ry
     estimated scf accuracy    <       0.00108363 Ry

     iteration # 15     ecut=    50.00 Ry     beta= 0.60
     Davidson diagonalization with overlap
     ethr =  2.99E-07,  avg # of iterations =  1.4

     total cpu time spent up to now is    32618.1 secs

     total energy              =    -587.09859675 Ry
     Harris-Foulkes estimate   =    -587.09872676 Ry
     estimated scf accuracy    <       0.00090899 Ry

     iteration # 16     ecut=    50.00 Ry     beta= 0.60
     Davidson diagonalization with overlap
     ethr =  2.99E-07,  avg # of iterations =  3.7

     total cpu time spent up to now is    32672.7 secs

     total energy              =    -587.09866230 Ry
     Harris-Foulkes estimate   =    -587.09866323 Ry
     estimated scf accuracy    <       0.00000562 Ry

     iteration # 17     ecut=    50.00 Ry     beta= 0.60
     Davidson diagonalization with overlap
     ethr =  8.93E-09,  avg # of iterations =  3.9

     total cpu time spent up to now is    32729.8 secs

     total energy              =    -587.09866341 Ry
     Harris-Foulkes estimate   =    -587.09866393 Ry
     estimated scf accuracy    <       0.00000484 Ry

     iteration # 18     ecut=    50.00 Ry     beta= 0.60
     Davidson diagonalization with overlap
     ethr =  7.68E-09,  avg # of iterations =  1.0

     total cpu time spent up to now is    32769.9 secs

     total energy              =    -587.09866339 Ry
     Harris-Foulkes estimate   =    -587.09866358 Ry
     estimated scf accuracy    <       0.00000167 Ry

     iteration # 19     ecut=    50.00 Ry     beta= 0.60
     Davidson diagonalization with overlap
     ethr =  2.66E-09,  avg # of iterations =  2.7

     total cpu time spent up to now is    32816.1 secs

     total energy              =    -587.09866350 Ry
     Harris-Foulkes estimate   =    -587.09866351 Ry
     estimated scf accuracy    <       0.00000008 Ry

     iteration # 20     ecut=    50.00 Ry     beta= 0.60
     Davidson diagonalization with overlap
     ethr =  1.34E-10,  avg # of iterations =  4.1

     total cpu time spent up to now is    32874.1 secs

     total energy              =    -587.09866352 Ry
     Harris-Foulkes estimate   =    -587.09866353 Ry
     estimated scf accuracy    <       0.00000002 Ry

     iteration # 21     ecut=    50.00 Ry     beta= 0.60
     Davidson diagonalization with overlap
     ethr =  2.75E-11,  avg # of iterations =  2.3

     total cpu time spent up to now is    32920.1 secs

     total energy              =    -587.09866353 Ry
     Harris-Foulkes estimate   =    -587.09866353 Ry
     estimated scf accuracy    <          3.2E-09 Ry

     iteration # 22     ecut=    50.00 Ry     beta= 0.60
     Davidson diagonalization with overlap
     ethr =  5.06E-12,  avg # of iterations =  2.2

     total cpu time spent up to now is    32966.9 secs

     total energy              =    -587.09866353 Ry
     Harris-Foulkes estimate   =    -587.09866353 Ry
     estimated scf accuracy    <          6.2E-10 Ry

     iteration # 23     ecut=    50.00 Ry     beta= 0.60
     Davidson diagonalization with overlap
     ethr =  9.86E-13,  avg # of iterations =  2.7

     total cpu time spent up to now is    33013.2 secs

     total energy              =    -587.09866353 Ry
     Harris-Foulkes estimate   =    -587.09866353 Ry
     estimated scf accuracy    <          4.5E-10 Ry

     iteration # 24     ecut=    50.00 Ry     beta= 0.60
     Davidson diagonalization with overlap
     ethr =  7.13E-13,  avg # of iterations =  1.0

     total cpu time spent up to now is    33053.4 secs

     total energy              =    -587.09866353 Ry
     Harris-Foulkes estimate   =    -587.09866353 Ry
     estimated scf accuracy    <          7.8E-11 Ry

     iteration # 25     ecut=    50.00 Ry     beta= 0.60
     Davidson diagonalization with overlap
     ethr =  1.24E-13,  avg # of iterations =  3.6

     total cpu time spent up to now is    33106.9 secs

     total energy              =    -587.09866353 Ry
     Harris-Foulkes estimate   =    -587.09866353 Ry
     estimated scf accuracy    <          8.8E-12 Ry

     iteration # 26     ecut=    50.00 Ry     beta= 0.60
     Davidson diagonalization with overlap
     ethr =  1.00E-13,  avg # of iterations =  1.0

     total cpu time spent up to now is    33147.2 secs

     total energy              =    -587.09866353 Ry
     Harris-Foulkes estimate   =    -587.09866353 Ry
     estimated scf accuracy    <          3.4E-12 Ry

     iteration # 27     ecut=    50.00 Ry     beta= 0.60
     Davidson diagonalization with overlap
     ethr =  1.00E-13,  avg # of iterations =  1.0

     total cpu time spent up to now is    33187.4 secs

     End of self-consistent calculation

     Number of k-points >= 100: set verbosity='high' to print the bands.

     the Fermi energy is    16.1421 ev

!    total energy              =    -587.09866353 Ry
     Harris-Foulkes estimate   =    -587.09866353 Ry
     estimated scf accuracy    <          4.1E-13 Ry

     The total energy is the sum of the following terms:

     one-electron contribution =    -130.48899870 Ry
     hartree contribution      =      93.58821466 Ry
     xc contribution           =     -84.40072458 Ry
     ewald contribution        =    -465.79710614 Ry
     smearing contrib. (-TS)   =      -0.00004877 Ry

     convergence has been achieved in  27 iterations

     Forces acting on atoms (cartesian axes, Ry/au):

     atom    1 type  2   force =    -0.00000003   -0.00000003   -0.00000340
     atom    2 type  2   force =     0.00000165    0.00000165    0.00000576
     atom    3 type  1   force =     0.00000311    0.00000311   -0.00001125
     atom    4 type  1   force =    -0.00000051   -0.00000051   -0.00000082
     atom    5 type  1   force =    -0.00000422   -0.00000422    0.00000970

     Total force =     0.000018     Total SCF correction =     0.000001


     Computing stress (Cartesian axis) and pressure

          total   stress  (Ry/bohr**3)                   (kbar)     P=   -1.06
  -0.00000720  -0.00000013   0.00000015         -1.06     -0.02      0.02
  -0.00000013  -0.00000720   0.00000015         -0.02     -1.06      0.02
   0.00000015   0.00000015  -0.00000728          0.02      0.02     -1.07

 
     init_run     :     55.98s CPU     57.17s WALL (       2 calls)
     electrons    :  31988.83s CPU  32522.39s WALL (      27 calls)
     update_pot   :     46.39s CPU     46.65s WALL (      25 calls)
     forces       :    138.39s CPU    142.17s WALL (      27 calls)
     stress       :    411.12s CPU    422.17s WALL (      27 calls)

     Called by init_run:
     wfcinit      :     52.67s CPU     53.68s WALL (       2 calls)
     potinit      :      1.08s CPU      1.11s WALL (       2 calls)
     hinit0       :      1.71s CPU      1.72s WALL (       2 calls)

     Called by electrons:
     c_bands      :  27397.43s CPU  27764.32s WALL (     489 calls)
     sum_band     :   4430.88s CPU   4541.04s WALL (     489 calls)
     v_of_rho     :     36.86s CPU     37.30s WALL (     505 calls)
     newd         :    126.24s CPU    183.97s WALL (     505 calls)
     mix_rho      :      3.78s CPU      3.81s WALL (     489 calls)

     Called by c_bands:
     init_us_2    :    364.45s CPU    366.22s WALL (  517000 calls)
     cegterg      :  25185.33s CPU  25500.24s WALL (  244500 calls)

     Called by sum_band:
     sum_band:bec :      7.90s CPU      8.10s WALL (  244500 calls)
     addusdens    :    145.44s CPU    198.31s WALL (     489 calls)

     Called by *egterg:
     h_psi        :  19219.16s CPU  19499.73s WALL ( 1001490 calls)
     s_psi        :    627.82s CPU    630.30s WALL ( 1001490 calls)
     g_psi        :    124.67s CPU    128.16s WALL (  755990 calls)
     cdiaghg      :   2776.48s CPU   2787.15s WALL (  982490 calls)

     Called by h_psi:
     h_psi:pot    :  19153.37s CPU  19434.43s WALL ( 1001490 calls)
     h_psi:calbec :    701.57s CPU    707.53s WALL ( 1001490 calls)
     vloc_psi     :  17804.39s CPU  18074.49s WALL ( 1001490 calls)
     add_vuspsi   :    643.24s CPU    646.77s WALL ( 1001490 calls)

     General routines
     calbec       :   1011.65s CPU   1018.49s WALL ( 1313490 calls)
     fft          :     21.02s CPU     21.35s WALL (    7249 calls)
     ffts         :      0.60s CPU      0.62s WALL (     994 calls)
     fftw         :  18935.02s CPU  19183.31s WALL (56524222 calls)
     interpolate  :      1.85s CPU      1.88s WALL (     505 calls)
 
     Parallel routines
     fft_scatt_xy :   3134.82s CPU   3205.85s WALL (56532465 calls)
     fft_scatt_yz :   3120.20s CPU   3153.32s WALL (56532465 calls)
 
     PWSCF        :     9h 4m CPU        4h 9m WALL

      13h
 
   This run was terminated on:   0:50:59  24Jan2020            

=------------------------------------------------------------------------------=
   JOB DONE.
=------------------------------------------------------------------------------=
