
     Program PWSCF v.6.0 (svn rev. 13079) starts on 26Apr2018 at 15:28:38 

     This program is part of the open-source Quantum ESPRESSO suite
     for quantum simulation of materials; please cite
         "P. Giannozzi et al., J. Phys.:Condens. Matter 21 395502 (2009);
          URL http://www.quantum-espresso.org", 
     in publications or presentations arising from this work. More details at
     http://www.quantum-espresso.org/quote

     Parallel version (MPI), running on     4 processors
     R & G space division:  proc/nbgrp/npool/nimage =       4
     Waiting for input...
     Reading input from standard input

     Current dimensions of program PWSCF are:
     Max number of different atomic species (ntypx) = 10
     Max number of k-points (npk) =  40000
     Max angular momentum in pseudopotentials (lmaxx) =  3

     Subspace diagonalization in iterative solution of the eigenvalue problem:
     a serial algorithm will be used


     Parallelization info
     --------------------
     sticks:   dense  smooth     PW     G-vecs:    dense   smooth      PW
     Min         228      91     28                18214     4619     802
     Max         229      92     31                18229     4626     803
     Sum         913     367    121                72875    18489    3211



     bravais-lattice index     =            0
     lattice parameter (alat)  =       1.8897  a.u.
     unit-cell volume          =     538.8952 (a.u.)^3
     number of atoms/cell      =            4
     number of atomic types    =            2
     number of electrons       =        49.00
     number of Kohn-Sham states=           30
     kinetic-energy cutoff     =      40.0000  Ry
     charge density cutoff     =     400.0000  Ry
     convergence threshold     =      1.0E-10
     mixing beta               =       0.6000
     number of iterations used =            8  plain     mixing
     Exchange-correlation      = SLA  PW   PBE  PBE ( 1  4  3  4 0 0)
     nstep                     =           50


     celldm(1)=   1.889726  celldm(2)=   0.000000  celldm(3)=   0.000000
     celldm(4)=   0.000000  celldm(5)=   0.000000  celldm(6)=   0.000000

     crystal axes: (cart. coord. in units of alat)
               a(1) = (  -1.522502  -2.637051   0.000000 )  
               a(2) = (   3.045004   0.000000   0.000000 )  
               a(3) = (   0.000000   0.000000   9.944922 )  

     reciprocal axes: (cart. coord. in units 2 pi/alat)
               b(1) = (  0.000000 -0.379211  0.000000 )  
               b(2) = (  0.328407 -0.189606  0.000000 )  
               b(3) = ( -0.000000  0.000000  0.100554 )  


     PseudoPot. # 1 for Nb read from file:
     ./Nb.pbe-nsp-van.UPF
     MD5 check sum: 0a22fc7fb0ba19a08ca5db297a5d2854
     Pseudo is Ultrasoft + core correction, Zval = 13.0
     Generated by new atomic code, or converted to UPF format
     Using radial grid of  887 points,  6 beta functions with: 
                l(1) =   0
                l(2) =   0
                l(3) =   1
                l(4) =   1
                l(5) =   2
                l(6) =   2
     Q(r) pseudized with  6 coefficients,  rinner =    1.000   1.000   1.000
                                                       1.000   1.000

     PseudoPot. # 2 for Ti read from file:
     ./Ti.pbe-sp-van_ak.UPF
     MD5 check sum: f98fea3e8887528921fefa5636a534ca
     Pseudo is Ultrasoft, Zval = 12.0
     Generated by new atomic code, or converted to UPF format
     Using radial grid of  851 points,  6 beta functions with: 
                l(1) =   0
                l(2) =   0
                l(3) =   1
                l(4) =   1
                l(5) =   2
                l(6) =   2
     Q(r) pseudized with  8 coefficients,  rinner =    1.000   1.000   1.000
                                                       1.000   1.000

     atomic species   valence    mass     pseudopotential
        Nb            13.00    92.90638     Nb( 1.00)
        Ti            12.00    47.86700     Ti( 1.00)

     12 Sym. Ops. (no inversion) found ( 6 have fractional translation)



   Cartesian axes

     site n.     atom                  positions (alat units)
         1           Ti  tau(   1) = (   1.5225021  -2.6370512   4.9724614  )
         2           Ti  tau(   2) = (   0.0000015  -1.7580350   2.4862307  )
         3           Ti  tau(   3) = (   1.5225021  -2.6370512   9.9449228  )
         4           Nb  tau(   4) = (   0.0000015  -1.7580350   7.4586921  )

     number of k points=   160  Marzari-Vanderbilt smearing, width (Ry)=  0.0200

     Number of k-points >= 100: set verbosity='high' to print them.

     Dense  grid:    72875 G-vectors     FFT dimensions: (  40,  40, 120)

     Smooth grid:    18489 G-vectors     FFT dimensions: (  24,  24,  75)

     Estimated max dynamical RAM per process >      56.35Mb

     Estimated total allocated dynamical RAM >     225.42Mb

     Initial potential from superposition of free atoms

     starting charge   45.99713, renormalised to   49.00000
     Starting wfc are   43 randomized atomic wfcs

     total cpu time spent up to now is        7.6 secs

     per-process dynamical memory:   122.4 Mb

     Self-consistent Calculation

     iteration #  1     ecut=    40.00 Ry     beta=0.60
     Davidson diagonalization with overlap
     ethr =  1.00E-02,  avg # of iterations =  4.0

     total cpu time spent up to now is       25.4 secs

     total energy              =    -395.62918568 Ry
     Harris-Foulkes estimate   =    -475.76401331 Ry
     estimated scf accuracy    <      97.32988961 Ry

     iteration #  2     ecut=    40.00 Ry     beta=0.60
     Davidson diagonalization with overlap
     ethr =  1.00E-02,  avg # of iterations = 13.2

     total cpu time spent up to now is       75.6 secs

     total energy              =    -433.98588659 Ry
     Harris-Foulkes estimate   =    -661.09705562 Ry
     estimated scf accuracy    <     844.58380607 Ry

     iteration #  3     ecut=    40.00 Ry     beta=0.60
     Davidson diagonalization with overlap
     ethr =  1.00E-02,  avg # of iterations =  8.0

     total cpu time spent up to now is      107.1 secs

     total energy              =    -466.92438098 Ry
     Harris-Foulkes estimate   =    -496.91904890 Ry
     estimated scf accuracy    <     185.34980014 Ry

     iteration #  4     ecut=    40.00 Ry     beta=0.60
     Davidson diagonalization with overlap
     ethr =  1.00E-02,  avg # of iterations =  7.2

     total cpu time spent up to now is      132.2 secs

     total energy              =    -469.53612524 Ry
     Harris-Foulkes estimate   =    -475.29450185 Ry
     estimated scf accuracy    <      57.72711190 Ry

     iteration #  5     ecut=    40.00 Ry     beta=0.60
     Davidson diagonalization with overlap
     ethr =  1.00E-02,  avg # of iterations =  3.6

     total cpu time spent up to now is      145.6 secs

     total energy              =    -471.17908769 Ry
     Harris-Foulkes estimate   =    -471.58104149 Ry
     estimated scf accuracy    <      22.69023609 Ry

     iteration #  6     ecut=    40.00 Ry     beta=0.60
     Davidson diagonalization with overlap
     ethr =  1.00E-02,  avg # of iterations =  1.1

     total cpu time spent up to now is      155.8 secs

     total energy              =    -467.22356520 Ry
     Harris-Foulkes estimate   =    -471.23725460 Ry
     estimated scf accuracy    <      23.85709327 Ry

     iteration #  7     ecut=    40.00 Ry     beta=0.60
     Davidson diagonalization with overlap
     ethr =  1.00E-02,  avg # of iterations =  3.4

     total cpu time spent up to now is      170.1 secs

     total energy              =    -468.43394420 Ry
     Harris-Foulkes estimate   =    -468.55363123 Ry
     estimated scf accuracy    <       7.47382642 Ry

     iteration #  8     ecut=    40.00 Ry     beta=0.60
     Davidson diagonalization with overlap
     ethr =  1.00E-02,  avg # of iterations =  1.0

     total cpu time spent up to now is      180.2 secs

     total energy              =    -468.28427764 Ry
     Harris-Foulkes estimate   =    -468.46724607 Ry
     estimated scf accuracy    <       7.09994009 Ry

     iteration #  9     ecut=    40.00 Ry     beta=0.60
     Davidson diagonalization with overlap
     ethr =  1.00E-02,  avg # of iterations =  1.0

     total cpu time spent up to now is      190.6 secs

     total energy              =    -467.80564539 Ry
     Harris-Foulkes estimate   =    -468.30991327 Ry
     estimated scf accuracy    <       6.03060462 Ry

     iteration # 10     ecut=    40.00 Ry     beta=0.60
     Davidson diagonalization with overlap
     ethr =  1.00E-02,  avg # of iterations =  1.1

     total cpu time spent up to now is      200.7 secs

     total energy              =    -467.33748492 Ry
     Harris-Foulkes estimate   =    -467.88457062 Ry
     estimated scf accuracy    <       4.00092035 Ry

     iteration # 11     ecut=    40.00 Ry     beta=0.60
     Davidson diagonalization with overlap
     ethr =  8.17E-03,  avg # of iterations =  4.6

     total cpu time spent up to now is      215.1 secs

     total energy              =    -467.57342174 Ry
     Harris-Foulkes estimate   =    -467.99548543 Ry
     estimated scf accuracy    <       2.23683352 Ry

     iteration # 12     ecut=    40.00 Ry     beta=0.60
     Davidson diagonalization with overlap
     ethr =  4.56E-03,  avg # of iterations =  2.5

     total cpu time spent up to now is      226.5 secs

     total energy              =    -467.83921655 Ry
     Harris-Foulkes estimate   =    -467.83007898 Ry
     estimated scf accuracy    <       0.57307563 Ry

     iteration # 13     ecut=    40.00 Ry     beta=0.60
     Davidson diagonalization with overlap
     ethr =  1.17E-03,  avg # of iterations =  3.6

     total cpu time spent up to now is      239.1 secs

     total energy              =    -467.78061353 Ry
     Harris-Foulkes estimate   =    -467.86796458 Ry
     estimated scf accuracy    <       0.95865032 Ry

     iteration # 14     ecut=    40.00 Ry     beta=0.60
     Davidson diagonalization with overlap
     ethr =  1.17E-03,  avg # of iterations =  2.3

     total cpu time spent up to now is      250.2 secs

     total energy              =    -467.84245473 Ry
     Harris-Foulkes estimate   =    -467.84043693 Ry
     estimated scf accuracy    <       0.11613185 Ry

     iteration # 15     ecut=    40.00 Ry     beta=0.60
     Davidson diagonalization with overlap
     ethr =  2.37E-04,  avg # of iterations =  5.6

     total cpu time spent up to now is      265.9 secs

     total energy              =    -467.84136833 Ry
     Harris-Foulkes estimate   =    -467.85366032 Ry
     estimated scf accuracy    <       0.52705470 Ry

     iteration # 16     ecut=    40.00 Ry     beta=0.60
     Davidson diagonalization with overlap
     ethr =  2.37E-04,  avg # of iterations =  1.0

     total cpu time spent up to now is      276.2 secs

     total energy              =    -467.83638787 Ry
     Harris-Foulkes estimate   =    -467.84401994 Ry
     estimated scf accuracy    <       0.22686236 Ry

     iteration # 17     ecut=    40.00 Ry     beta=0.60
     Davidson diagonalization with overlap
     ethr =  2.37E-04,  avg # of iterations =  1.0

     total cpu time spent up to now is      286.5 secs

     total energy              =    -467.83624868 Ry
     Harris-Foulkes estimate   =    -467.84032369 Ry
     estimated scf accuracy    <       0.04977163 Ry

     iteration # 18     ecut=    40.00 Ry     beta=0.60
     Davidson diagonalization with overlap
     ethr =  1.02E-04,  avg # of iterations =  1.9

     total cpu time spent up to now is      297.4 secs

     total energy              =    -467.83346625 Ry
     Harris-Foulkes estimate   =    -467.83738366 Ry
     estimated scf accuracy    <       0.03382065 Ry

     iteration # 19     ecut=    40.00 Ry     beta=0.60
     Davidson diagonalization with overlap
     ethr =  6.90E-05,  avg # of iterations =  4.8

     total cpu time spent up to now is      311.8 secs

     total energy              =    -467.83696544 Ry
     Harris-Foulkes estimate   =    -467.83696246 Ry
     estimated scf accuracy    <       0.00172443 Ry

     iteration # 20     ecut=    40.00 Ry     beta=0.60
     Davidson diagonalization with overlap
     c_bands:  1 eigenvalues not converged
     ethr =  3.52E-06,  avg # of iterations =  7.4

     total cpu time spent up to now is      332.0 secs

     total energy              =    -467.83693915 Ry
     Harris-Foulkes estimate   =    -467.83724400 Ry
     estimated scf accuracy    <       0.00378863 Ry

     iteration # 21     ecut=    40.00 Ry     beta=0.60
     Davidson diagonalization with overlap
     ethr =  3.52E-06,  avg # of iterations =  1.0

     total cpu time spent up to now is      342.1 secs

     total energy              =    -467.83703268 Ry
     Harris-Foulkes estimate   =    -467.83707116 Ry
     estimated scf accuracy    <       0.00015628 Ry

     iteration # 22     ecut=    40.00 Ry     beta=0.60
     Davidson diagonalization with overlap
     ethr =  3.19E-07,  avg # of iterations =  5.0

     total cpu time spent up to now is      358.8 secs

     total energy              =    -467.83708350 Ry
     Harris-Foulkes estimate   =    -467.83709849 Ry
     estimated scf accuracy    <       0.00030841 Ry

     iteration # 23     ecut=    40.00 Ry     beta=0.60
     Davidson diagonalization with overlap
     ethr =  3.19E-07,  avg # of iterations =  1.0

     total cpu time spent up to now is      369.1 secs

     total energy              =    -467.83707933 Ry
     Harris-Foulkes estimate   =    -467.83708677 Ry
     estimated scf accuracy    <       0.00009455 Ry

     iteration # 24     ecut=    40.00 Ry     beta=0.60
     Davidson diagonalization with overlap
     ethr =  1.93E-07,  avg # of iterations =  2.8

     total cpu time spent up to now is      381.0 secs

     total energy              =    -467.83708381 Ry
     Harris-Foulkes estimate   =    -467.83708462 Ry
     estimated scf accuracy    <       0.00000414 Ry

     iteration # 25     ecut=    40.00 Ry     beta=0.60
     Davidson diagonalization with overlap
     ethr =  8.45E-09,  avg # of iterations =  5.1

     total cpu time spent up to now is      397.3 secs

     total energy              =    -467.83708423 Ry
     Harris-Foulkes estimate   =    -467.83708493 Ry
     estimated scf accuracy    <       0.00000598 Ry

     iteration # 26     ecut=    40.00 Ry     beta=0.60
     Davidson diagonalization with overlap
     ethr =  8.45E-09,  avg # of iterations =  1.2

     total cpu time spent up to now is      407.6 secs

     total energy              =    -467.83708407 Ry
     Harris-Foulkes estimate   =    -467.83708439 Ry
     estimated scf accuracy    <       0.00000208 Ry

     iteration # 27     ecut=    40.00 Ry     beta=0.60
     Davidson diagonalization with overlap
     ethr =  4.25E-09,  avg # of iterations =  4.0

     total cpu time spent up to now is      421.6 secs

     total energy              =    -467.83708438 Ry
     Harris-Foulkes estimate   =    -467.83708445 Ry
     estimated scf accuracy    <       0.00000081 Ry

     iteration # 28     ecut=    40.00 Ry     beta=0.60
     Davidson diagonalization with overlap
     ethr =  1.65E-09,  avg # of iterations =  1.3

     total cpu time spent up to now is      432.1 secs

     total energy              =    -467.83708436 Ry
     Harris-Foulkes estimate   =    -467.83708440 Ry
     estimated scf accuracy    <       0.00000036 Ry

     iteration # 29     ecut=    40.00 Ry     beta=0.60
     Davidson diagonalization with overlap
     ethr =  7.40E-10,  avg # of iterations =  3.2

     total cpu time spent up to now is      444.6 secs

     total energy              =    -467.83708439 Ry
     Harris-Foulkes estimate   =    -467.83708439 Ry
     estimated scf accuracy    <          9.8E-09 Ry

     iteration # 30     ecut=    40.00 Ry     beta=0.60
     Davidson diagonalization with overlap
     ethr =  2.00E-11,  avg # of iterations =  5.5

     total cpu time spent up to now is      462.8 secs

     total energy              =    -467.83708439 Ry
     Harris-Foulkes estimate   =    -467.83708439 Ry
     estimated scf accuracy    <          9.5E-10 Ry

     iteration # 31     ecut=    40.00 Ry     beta=0.60
     Davidson diagonalization with overlap
     ethr =  1.94E-12,  avg # of iterations =  3.3

     total cpu time spent up to now is      475.9 secs

     End of self-consistent calculation

     Number of k-points >= 100: set verbosity='high' to print the bands.

     the Fermi energy is    12.5619 ev

!    total energy              =    -467.83708439 Ry
     Harris-Foulkes estimate   =    -467.83708439 Ry
     estimated scf accuracy    <          3.7E-11 Ry

     The total energy is the sum of the following terms:

     one-electron contribution =    -163.59740164 Ry
     hartree contribution      =      95.43254260 Ry
     xc contribution           =     -61.59109082 Ry
     ewald contribution        =    -338.07875269 Ry
     smearing contrib. (-TS)   =      -0.00238184 Ry

     convergence has been achieved in  31 iterations

     Forces acting on atoms (Ry/au):

     atom    1 type  2   force =    -0.00000000    0.00000000   -0.00649423
     atom    2 type  2   force =     0.00000000    0.00000000    0.00000000
     atom    3 type  2   force =     0.00000000   -0.00000000    0.00649423
     atom    4 type  1   force =     0.00000000    0.00000000    0.00000000

     Total force =     0.009184     Total SCF correction =     0.000002


     entering subroutine stress ...

          total   stress  (Ry/bohr**3)                   (kbar)     P= -130.37
  -0.00088251   0.00000000   0.00000000       -129.82      0.00      0.00
   0.00000000  -0.00088251   0.00000000          0.00   -129.82      0.00
   0.00000000  -0.00000000  -0.00089370          0.00     -0.00   -131.47


     BFGS Geometry Optimization

     number of scf cycles    =   1
     number of bfgs steps    =   0

     enthalpy new            =    -467.8370843923 Ry

     new trust radius        =       0.1037323956 bohr
     new conv_thr            =            1.0E-10 Ry

     new unit-cell volume =    503.86367 a.u.^3 (    74.66489 Ang^3 )

CELL_PARAMETERS (alat=  1.88972599)
  -1.488911511  -2.578870571   0.000000000
   2.977823023   0.000000000   0.000000000
   0.000000000   0.000000000   9.722727321

ATOMIC_POSITIONS (angstrom)
Ti       1.488911511  -2.578870571   4.858003845
Ti       0.000001489  -1.719247907   2.430681830
Ti       1.488911511  -2.578870571   9.726087136
Nb       0.000001489  -1.719247907   7.292045490


     NEW-OLD atomic charge density approx. for the potential
     extrapolated charge   45.80202, renormalised to   49.00000

     total cpu time spent up to now is      486.7 secs

     per-process dynamical memory:   129.7 Mb

     Self-consistent Calculation

     iteration #  1     ecut=    40.00 Ry     beta=0.60
     Davidson diagonalization with overlap
     c_bands:  3 eigenvalues not converged
     c_bands:  2 eigenvalues not converged
     c_bands:  1 eigenvalues not converged
     c_bands:  1 eigenvalues not converged
     c_bands:  1 eigenvalues not converged
     c_bands:  1 eigenvalues not converged
     c_bands:  2 eigenvalues not converged
     c_bands:  1 eigenvalues not converged
     c_bands:  1 eigenvalues not converged
     c_bands:  3 eigenvalues not converged
     c_bands:  1 eigenvalues not converged
     c_bands:  1 eigenvalues not converged
     c_bands:  1 eigenvalues not converged
     c_bands:  1 eigenvalues not converged
     c_bands:  1 eigenvalues not converged
     c_bands:  1 eigenvalues not converged
     c_bands:  1 eigenvalues not converged
     c_bands:  1 eigenvalues not converged
     c_bands:  1 eigenvalues not converged
     c_bands:  1 eigenvalues not converged
     c_bands:  1 eigenvalues not converged
     c_bands:  1 eigenvalues not converged
     c_bands:  1 eigenvalues not converged
     c_bands:  1 eigenvalues not converged
     c_bands:  1 eigenvalues not converged
     c_bands:  1 eigenvalues not converged
     c_bands:  1 eigenvalues not converged
     c_bands:  2 eigenvalues not converged
     c_bands:  1 eigenvalues not converged
     ethr =  1.00E-06,  avg # of iterations = 14.1

     total cpu time spent up to now is      532.8 secs

     total energy              =    -461.84661491 Ry
     Harris-Foulkes estimate   =    -475.44493781 Ry
     estimated scf accuracy    <       6.69538392 Ry

     iteration #  2     ecut=    40.00 Ry     beta=0.60
     Davidson diagonalization with overlap
     ethr =  1.00E-02,  avg # of iterations =  6.6

     total cpu time spent up to now is      558.3 secs

     total energy              =    -461.78749693 Ry
     Harris-Foulkes estimate   =    -491.06460473 Ry
     estimated scf accuracy    <     184.22999503 Ry

     iteration #  3     ecut=    40.00 Ry     beta=0.60
     Davidson diagonalization with overlap
     ethr =  1.00E-02,  avg # of iterations =  6.8

     total cpu time spent up to now is      584.4 secs

     total energy              =    -466.93406419 Ry
     Harris-Foulkes estimate   =    -470.53042741 Ry
     estimated scf accuracy    <      16.38480005 Ry

     iteration #  4     ecut=    40.00 Ry     beta=0.60
     Davidson diagonalization with overlap
     ethr =  1.00E-02,  avg # of iterations =  3.3

     total cpu time spent up to now is      596.8 secs

     total energy              =    -467.56864763 Ry
     Harris-Foulkes estimate   =    -468.89204582 Ry
     estimated scf accuracy    <      15.26170240 Ry

     iteration #  5     ecut=    40.00 Ry     beta=0.60
     Davidson diagonalization with overlap
     ethr =  1.00E-02,  avg # of iterations =  1.6

     total cpu time spent up to now is      607.4 secs

     total energy              =    -467.90713826 Ry
     Harris-Foulkes estimate   =    -468.11346286 Ry
     estimated scf accuracy    <       1.88212808 Ry

     iteration #  6     ecut=    40.00 Ry     beta=0.60
     Davidson diagonalization with overlap
     ethr =  3.84E-03,  avg # of iterations =  1.5

     total cpu time spent up to now is      617.9 secs

     total energy              =    -467.84347751 Ry
     Harris-Foulkes estimate   =    -467.96247835 Ry
     estimated scf accuracy    <       1.09154569 Ry

     iteration #  7     ecut=    40.00 Ry     beta=0.60
     Davidson diagonalization with overlap
     ethr =  2.23E-03,  avg # of iterations =  2.5

     total cpu time spent up to now is      629.3 secs

     total energy              =    -467.86938476 Ry
     Harris-Foulkes estimate   =    -467.88879187 Ry
     estimated scf accuracy    <       0.48553821 Ry

     iteration #  8     ecut=    40.00 Ry     beta=0.60
     Davidson diagonalization with overlap
     ethr =  9.91E-04,  avg # of iterations =  3.4

     total cpu time spent up to now is      641.5 secs

     total energy              =    -467.90219811 Ry
     Harris-Foulkes estimate   =    -467.89132438 Ry
     estimated scf accuracy    <       0.27194745 Ry

     iteration #  9     ecut=    40.00 Ry     beta=0.60
     Davidson diagonalization with overlap
     ethr =  5.55E-04,  avg # of iterations =  2.1

     total cpu time spent up to now is      652.5 secs

     total energy              =    -467.88948414 Ry
     Harris-Foulkes estimate   =    -467.90770087 Ry
     estimated scf accuracy    <       0.39549813 Ry

     iteration # 10     ecut=    40.00 Ry     beta=0.60
     Davidson diagonalization with overlap
     ethr =  5.55E-04,  avg # of iterations =  1.4

     total cpu time spent up to now is      662.9 secs

     total energy              =    -467.82400063 Ry
     Harris-Foulkes estimate   =    -467.89232876 Ry
     estimated scf accuracy    <       0.27186463 Ry

     iteration # 11     ecut=    40.00 Ry     beta=0.60
     Davidson diagonalization with overlap
     ethr =  5.55E-04,  avg # of iterations =  4.1

     total cpu time spent up to now is      676.7 secs

     total energy              =    -467.85662084 Ry
     Harris-Foulkes estimate   =    -467.85701269 Ry
     estimated scf accuracy    <       0.00724248 Ry

     iteration # 12     ecut=    40.00 Ry     beta=0.60
     Davidson diagonalization with overlap
     c_bands:  1 eigenvalues not converged
     c_bands:  1 eigenvalues not converged
     ethr =  1.48E-05,  avg # of iterations =  7.2

     total cpu time spent up to now is      702.5 secs

     total energy              =    -467.86049849 Ry
     Harris-Foulkes estimate   =    -467.86318895 Ry
     estimated scf accuracy    <       0.03167685 Ry

     iteration # 13     ecut=    40.00 Ry     beta=0.60
     Davidson diagonalization with overlap
     ethr =  1.48E-05,  avg # of iterations =  3.4

     total cpu time spent up to now is      715.1 secs

     total energy              =    -467.86199354 Ry
     Harris-Foulkes estimate   =    -467.86160572 Ry
     estimated scf accuracy    <       0.00661061 Ry

     iteration # 14     ecut=    40.00 Ry     beta=0.60
     Davidson diagonalization with overlap
     ethr =  1.35E-05,  avg # of iterations =  1.1

     total cpu time spent up to now is      725.3 secs

     total energy              =    -467.86236697 Ry
     Harris-Foulkes estimate   =    -467.86210802 Ry
     estimated scf accuracy    <       0.01038557 Ry

     iteration # 15     ecut=    40.00 Ry     beta=0.60
     Davidson diagonalization with overlap
     ethr =  1.35E-05,  avg # of iterations =  1.0

     total cpu time spent up to now is      735.4 secs

     total energy              =    -467.86015717 Ry
     Harris-Foulkes estimate   =    -467.86242162 Ry
     estimated scf accuracy    <       0.01179042 Ry

     iteration # 16     ecut=    40.00 Ry     beta=0.60
     Davidson diagonalization with overlap
     ethr =  1.35E-05,  avg # of iterations =  3.3

     total cpu time spent up to now is      748.5 secs

     total energy              =    -467.86113125 Ry
     Harris-Foulkes estimate   =    -467.86111864 Ry
     estimated scf accuracy    <       0.00021750 Ry

     iteration # 17     ecut=    40.00 Ry     beta=0.60
     Davidson diagonalization with overlap
     ethr =  4.44E-07,  avg # of iterations =  5.8

     total cpu time spent up to now is      772.5 secs

     total energy              =    -467.86122919 Ry
     Harris-Foulkes estimate   =    -467.86141272 Ry
     estimated scf accuracy    <       0.00345686 Ry

     iteration # 18     ecut=    40.00 Ry     beta=0.60
     Davidson diagonalization with overlap
     ethr =  4.44E-07,  avg # of iterations =  1.8

     total cpu time spent up to now is      783.4 secs

     total energy              =    -467.86099022 Ry
     Harris-Foulkes estimate   =    -467.86125019 Ry
     estimated scf accuracy    <       0.00182384 Ry

     iteration # 19     ecut=    40.00 Ry     beta=0.60
     Davidson diagonalization with overlap
     ethr =  4.44E-07,  avg # of iterations =  4.7

     total cpu time spent up to now is      801.5 secs

     total energy              =    -467.86115095 Ry
     Harris-Foulkes estimate   =    -467.86116451 Ry
     estimated scf accuracy    <       0.00009885 Ry

     iteration # 20     ecut=    40.00 Ry     beta=0.60
     Davidson diagonalization with overlap
     ethr =  2.02E-07,  avg # of iterations =  1.1

     total cpu time spent up to now is      813.6 secs

     total energy              =    -467.86115407 Ry
     Harris-Foulkes estimate   =    -467.86115605 Ry
     estimated scf accuracy    <       0.00000610 Ry

     iteration # 21     ecut=    40.00 Ry     beta=0.60
     Davidson diagonalization with overlap
     ethr =  1.25E-08,  avg # of iterations =  5.2

     total cpu time spent up to now is      832.7 secs

     total energy              =    -467.86115690 Ry
     Harris-Foulkes estimate   =    -467.86115946 Ry
     estimated scf accuracy    <       0.00002319 Ry

     iteration # 22     ecut=    40.00 Ry     beta=0.60
     Davidson diagonalization with overlap
     ethr =  1.25E-08,  avg # of iterations =  3.3

     total cpu time spent up to now is      844.9 secs

     total energy              =    -467.86115700 Ry
     Harris-Foulkes estimate   =    -467.86115766 Ry
     estimated scf accuracy    <       0.00000254 Ry

     iteration # 23     ecut=    40.00 Ry     beta=0.60
     Davidson diagonalization with overlap
     ethr =  5.18E-09,  avg # of iterations =  4.4

     total cpu time spent up to now is      860.6 secs

     total energy              =    -467.86115763 Ry
     Harris-Foulkes estimate   =    -467.86115829 Ry
     estimated scf accuracy    <       0.00000739 Ry

     iteration # 24     ecut=    40.00 Ry     beta=0.60
     Davidson diagonalization with overlap
     ethr =  5.18E-09,  avg # of iterations =  1.0

     total cpu time spent up to now is      870.8 secs

     total energy              =    -467.86115760 Ry
     Harris-Foulkes estimate   =    -467.86115778 Ry
     estimated scf accuracy    <       0.00000179 Ry

     iteration # 25     ecut=    40.00 Ry     beta=0.60
     Davidson diagonalization with overlap
     ethr =  3.66E-09,  avg # of iterations =  3.7

     total cpu time spent up to now is      883.9 secs

     total energy              =    -467.86115779 Ry
     Harris-Foulkes estimate   =    -467.86115779 Ry
     estimated scf accuracy    <       0.00000002 Ry

     iteration # 26     ecut=    40.00 Ry     beta=0.60
     Davidson diagonalization with overlap
     ethr =  4.79E-11,  avg # of iterations =  5.7

     total cpu time spent up to now is      901.7 secs

     total energy              =    -467.86115780 Ry
     Harris-Foulkes estimate   =    -467.86115781 Ry
     estimated scf accuracy    <       0.00000007 Ry

     iteration # 27     ecut=    40.00 Ry     beta=0.60
     Davidson diagonalization with overlap
     ethr =  4.79E-11,  avg # of iterations =  1.0

     total cpu time spent up to now is      911.9 secs

     total energy              =    -467.86115780 Ry
     Harris-Foulkes estimate   =    -467.86115780 Ry
     estimated scf accuracy    <       0.00000004 Ry

     iteration # 28     ecut=    40.00 Ry     beta=0.60
     Davidson diagonalization with overlap
     ethr =  4.79E-11,  avg # of iterations =  3.2

     total cpu time spent up to now is      924.3 secs

     End of self-consistent calculation

     Number of k-points >= 100: set verbosity='high' to print the bands.

     the Fermi energy is    13.6187 ev

!    total energy              =    -467.86115780 Ry
     Harris-Foulkes estimate   =    -467.86115780 Ry
     estimated scf accuracy    <          5.2E-11 Ry

     The total energy is the sum of the following terms:

     one-electron contribution =    -152.12999661 Ry
     hartree contribution      =      91.84257003 Ry
     xc contribution           =     -61.79884312 Ry
     ewald contribution        =    -345.77231989 Ry
     smearing contrib. (-TS)   =      -0.00256821 Ry

     convergence has been achieved in  28 iterations

     Forces acting on atoms (Ry/au):

     atom    1 type  2   force =    -0.00000000    0.00000000   -0.01022559
     atom    2 type  2   force =     0.00000000    0.00000000    0.00000000
     atom    3 type  2   force =    -0.00000000    0.00000000    0.01022559
     atom    4 type  1   force =     0.00000000    0.00000000    0.00000000

     Total force =     0.014461     Total SCF correction =     0.000017


     entering subroutine stress ...

          total   stress  (Ry/bohr**3)                   (kbar)     P=  -67.52
  -0.00045805   0.00000000   0.00000000        -67.38      0.00      0.00
   0.00000000  -0.00045805   0.00000000          0.00    -67.38      0.00
   0.00000000   0.00000000  -0.00046079          0.00      0.00    -67.78


     number of scf cycles    =   2
     number of bfgs steps    =   1

     enthalpy old            =    -467.8370843923 Ry
     enthalpy new            =    -467.8611578005 Ry

     CASE: enthalpy_new < enthalpy_old

     new trust radius        =       0.1019387393 bohr
     new conv_thr            =            1.0E-10 Ry

     new unit-cell volume =    470.45792 a.u.^3 (    69.71467 Ang^3 )

CELL_PARAMETERS (alat=  1.88972599)
  -1.455325978  -2.520698726  -0.000000000
   2.910651957   0.000000000   0.000000000
   0.000000000   0.000000000   9.501956917

ATOMIC_POSITIONS (angstrom)
Ti       1.455325978  -2.520698726   4.737589590
Ti       0.000001456  -1.680466657   2.375489229
Ti       1.455325978  -2.520698726   9.515345785
Nb       0.000001456  -1.680466657   7.126467688


     NEW-OLD atomic charge density approx. for the potential
     extrapolated charge   45.73389, renormalised to   49.00000

     total cpu time spent up to now is      935.1 secs

     per-process dynamical memory:   129.7 Mb

     Self-consistent Calculation

     iteration #  1     ecut=    40.00 Ry     beta=0.60
     Davidson diagonalization with overlap
     c_bands:  1 eigenvalues not converged
     c_bands:  1 eigenvalues not converged
     c_bands:  2 eigenvalues not converged
     c_bands:  3 eigenvalues not converged
     c_bands:  1 eigenvalues not converged
     c_bands:  2 eigenvalues not converged
     c_bands:  2 eigenvalues not converged
     c_bands:  1 eigenvalues not converged
     c_bands:  1 eigenvalues not converged
     c_bands:  1 eigenvalues not converged
     c_bands:  1 eigenvalues not converged
     c_bands:  1 eigenvalues not converged
     c_bands:  1 eigenvalues not converged
     c_bands:  1 eigenvalues not converged
     c_bands:  1 eigenvalues not converged
     c_bands:  1 eigenvalues not converged
     c_bands:  1 eigenvalues not converged
     c_bands:  1 eigenvalues not converged
     c_bands:  1 eigenvalues not converged
     c_bands:  1 eigenvalues not converged
     c_bands:  1 eigenvalues not converged
     c_bands:  1 eigenvalues not converged
     c_bands:  2 eigenvalues not converged
     c_bands:  1 eigenvalues not converged
     c_bands:  1 eigenvalues not converged
     c_bands:  1 eigenvalues not converged
     ethr =  1.00E-06,  avg # of iterations = 14.5

     total cpu time spent up to now is      981.7 secs

     total energy              =    -463.40774063 Ry
     Harris-Foulkes estimate   =    -475.02561816 Ry
     estimated scf accuracy    <       4.83275017 Ry

     iteration #  2     ecut=    40.00 Ry     beta=0.60
     Davidson diagonalization with overlap
     ethr =  9.86E-03,  avg # of iterations =  5.6

     total cpu time spent up to now is     1006.5 secs

     total energy              =    -461.20103401 Ry
     Harris-Foulkes estimate   =    -484.24566605 Ry
     estimated scf accuracy    <     166.23848230 Ry

     iteration #  3     ecut=    40.00 Ry     beta=0.60
     Davidson diagonalization with overlap
     ethr =  9.86E-03,  avg # of iterations =  6.6

     total cpu time spent up to now is     1031.1 secs

     total energy              =    -466.82939788 Ry
     Harris-Foulkes estimate   =    -470.43910439 Ry
     estimated scf accuracy    <      18.86370363 Ry

     iteration #  4     ecut=    40.00 Ry     beta=0.60
     Davidson diagonalization with overlap
     ethr =  9.86E-03,  avg # of iterations =  3.2

     total cpu time spent up to now is     1043.3 secs

     total energy              =    -467.74069261 Ry
     Harris-Foulkes estimate   =    -468.54848807 Ry
     estimated scf accuracy    <       6.64255411 Ry

     iteration #  5     ecut=    40.00 Ry     beta=0.60
     Davidson diagonalization with overlap
     ethr =  9.86E-03,  avg # of iterations =  1.3

     total cpu time spent up to now is     1053.7 secs

     total energy              =    -467.90102240 Ry
     Harris-Foulkes estimate   =    -468.06746930 Ry
     estimated scf accuracy    <       1.41306872 Ry

     iteration #  6     ecut=    40.00 Ry     beta=0.60
     Davidson diagonalization with overlap
     ethr =  2.88E-03,  avg # of iterations =  2.0

     total cpu time spent up to now is     1064.6 secs

     total energy              =    -467.86333552 Ry
     Harris-Foulkes estimate   =    -467.95466581 Ry
     estimated scf accuracy    <       0.76879595 Ry

     iteration #  7     ecut=    40.00 Ry     beta=0.60
     Davidson diagonalization with overlap
     ethr =  1.57E-03,  avg # of iterations =  2.5

     total cpu time spent up to now is     1076.0 secs

     total energy              =    -467.87607592 Ry
     Harris-Foulkes estimate   =    -467.89385897 Ry
     estimated scf accuracy    <       0.33043834 Ry

     iteration #  8     ecut=    40.00 Ry     beta=0.60
     Davidson diagonalization with overlap
     ethr =  6.74E-04,  avg # of iterations =  4.2

     total cpu time spent up to now is     1089.1 secs

     total energy              =    -467.89354873 Ry
     Harris-Foulkes estimate   =    -467.89184265 Ry
     estimated scf accuracy    <       0.18160558 Ry

     iteration #  9     ecut=    40.00 Ry     beta=0.60
     Davidson diagonalization with overlap
     ethr =  3.71E-04,  avg # of iterations =  2.6

     total cpu time spent up to now is     1100.4 secs

     total energy              =    -467.87772106 Ry
     Harris-Foulkes estimate   =    -467.89671266 Ry
     estimated scf accuracy    <       0.20539823 Ry

     iteration # 10     ecut=    40.00 Ry     beta=0.60
     Davidson diagonalization with overlap
     ethr =  3.71E-04,  avg # of iterations =  1.4

     total cpu time spent up to now is     1110.9 secs

     total energy              =    -467.84762506 Ry
     Harris-Foulkes estimate   =    -467.88078160 Ry
     estimated scf accuracy    <       0.11241491 Ry

     iteration # 11     ecut=    40.00 Ry     beta=0.60
     Davidson diagonalization with overlap
     ethr =  2.29E-04,  avg # of iterations =  4.7

     total cpu time spent up to now is     1126.3 secs

     total energy              =    -467.86751459 Ry
     Harris-Foulkes estimate   =    -467.86804737 Ry
     estimated scf accuracy    <       0.01006438 Ry

     iteration # 12     ecut=    40.00 Ry     beta=0.60
     Davidson diagonalization with overlap
     ethr =  2.05E-05,  avg # of iterations =  6.6

     total cpu time spent up to now is     1143.9 secs

     total energy              =    -467.86754954 Ry
     Harris-Foulkes estimate   =    -467.86856183 Ry
     estimated scf accuracy    <       0.00708025 Ry

     iteration # 13     ecut=    40.00 Ry     beta=0.60
     Davidson diagonalization with overlap
     ethr =  1.44E-05,  avg # of iterations =  2.2

     total cpu time spent up to now is     1155.0 secs

     total energy              =    -467.86794889 Ry
     Harris-Foulkes estimate   =    -467.86814970 Ry
     estimated scf accuracy    <       0.00045391 Ry

     iteration # 14     ecut=    40.00 Ry     beta=0.60
     Davidson diagonalization with overlap
     ethr =  9.26E-07,  avg # of iterations =  5.6

     total cpu time spent up to now is     1174.2 secs

     total energy              =    -467.86810515 Ry
     Harris-Foulkes estimate   =    -467.86813912 Ry
     estimated scf accuracy    <       0.00020090 Ry

     iteration # 15     ecut=    40.00 Ry     beta=0.60
     Davidson diagonalization with overlap
     ethr =  4.10E-07,  avg # of iterations =  1.1

     total cpu time spent up to now is     1184.4 secs

     total energy              =    -467.86811556 Ry
     Harris-Foulkes estimate   =    -467.86811814 Ry
     estimated scf accuracy    <       0.00000807 Ry

     iteration # 16     ecut=    40.00 Ry     beta=0.60
     Davidson diagonalization with overlap
     ethr =  1.65E-08,  avg # of iterations =  5.2

     total cpu time spent up to now is     1204.3 secs

     total energy              =    -467.86812138 Ry
     Harris-Foulkes estimate   =    -467.86812613 Ry
     estimated scf accuracy    <       0.00004162 Ry

     iteration # 17     ecut=    40.00 Ry     beta=0.60
     Davidson diagonalization with overlap
     ethr =  1.65E-08,  avg # of iterations =  3.8

     total cpu time spent up to now is     1220.1 secs

     total energy              =    -467.86812264 Ry
     Harris-Foulkes estimate   =    -467.86812307 Ry
     estimated scf accuracy    <       0.00000426 Ry

     iteration # 18     ecut=    40.00 Ry     beta=0.60
     Davidson diagonalization with overlap
     ethr =  8.70E-09,  avg # of iterations =  1.5

     total cpu time spent up to now is     1231.0 secs

     total energy              =    -467.86812274 Ry
     Harris-Foulkes estimate   =    -467.86812280 Ry
     estimated scf accuracy    <       0.00000111 Ry

     iteration # 19     ecut=    40.00 Ry     beta=0.60
     Davidson diagonalization with overlap
     ethr =  2.26E-09,  avg # of iterations =  3.9

     total cpu time spent up to now is     1244.7 secs

     total energy              =    -467.86812283 Ry
     Harris-Foulkes estimate   =    -467.86812286 Ry
     estimated scf accuracy    <       0.00000019 Ry

     iteration # 20     ecut=    40.00 Ry     beta=0.60
     Davidson diagonalization with overlap
     ethr =  3.85E-10,  avg # of iterations =  3.8

     total cpu time spent up to now is     1258.1 secs

     total energy              =    -467.86812286 Ry
     Harris-Foulkes estimate   =    -467.86812286 Ry
     estimated scf accuracy    <          7.4E-09 Ry

     iteration # 21     ecut=    40.00 Ry     beta=0.60
     Davidson diagonalization with overlap
     ethr =  1.50E-11,  avg # of iterations =  5.5

     total cpu time spent up to now is     1276.3 secs

     total energy              =    -467.86812286 Ry
     Harris-Foulkes estimate   =    -467.86812286 Ry
     estimated scf accuracy    <          7.6E-10 Ry

     iteration # 22     ecut=    40.00 Ry     beta=0.60
     Davidson diagonalization with overlap
     ethr =  1.55E-12,  avg # of iterations =  3.4

     total cpu time spent up to now is     1289.2 secs

     total energy              =    -467.86812286 Ry
     Harris-Foulkes estimate   =    -467.86812286 Ry
     estimated scf accuracy    <          6.5E-10 Ry

     iteration # 23     ecut=    40.00 Ry     beta=0.60
     Davidson diagonalization with overlap
     ethr =  1.33E-12,  avg # of iterations =  1.0

     total cpu time spent up to now is     1299.3 secs

     total energy              =    -467.86812286 Ry
     Harris-Foulkes estimate   =    -467.86812286 Ry
     estimated scf accuracy    <          1.4E-10 Ry

     iteration # 24     ecut=    40.00 Ry     beta=0.60
     Davidson diagonalization with overlap
     ethr =  2.92E-13,  avg # of iterations =  3.9

     total cpu time spent up to now is     1312.8 secs

     End of self-consistent calculation

     Number of k-points >= 100: set verbosity='high' to print the bands.

     the Fermi energy is    14.7614 ev

!    total energy              =    -467.86812286 Ry
     Harris-Foulkes estimate   =    -467.86812286 Ry
     estimated scf accuracy    <          4.6E-12 Ry

     The total energy is the sum of the following terms:

     one-electron contribution =    -140.14572567 Ry
     hartree contribution      =      88.16885209 Ry
     xc contribution           =     -62.02836294 Ry
     ewald contribution        =    -353.86020402 Ry
     smearing contrib. (-TS)   =      -0.00268232 Ry

     convergence has been achieved in  24 iterations

     Forces acting on atoms (Ry/au):

     atom    1 type  2   force =     0.00000000    0.00000000   -0.01290965
     atom    2 type  2   force =     0.00000000    0.00000000    0.00000000
     atom    3 type  2   force =    -0.00000000    0.00000000    0.01290965
     atom    4 type  1   force =     0.00000000    0.00000000    0.00000000

     Total force =     0.018257     Total SCF correction =     0.000005


     entering subroutine stress ...

          total   stress  (Ry/bohr**3)                   (kbar)     P=   14.34
   0.00009214  -0.00000000  -0.00000000         13.55     -0.00     -0.00
   0.00000000   0.00009214   0.00000000          0.00     13.55      0.00
  -0.00000000  -0.00000000   0.00010809         -0.00     -0.00     15.90


     number of scf cycles    =   3
     number of bfgs steps    =   2

     enthalpy old            =    -467.8611578005 Ry
     enthalpy new            =    -467.8681228590 Ry

     CASE: enthalpy_new < enthalpy_old

     new trust radius        =       0.0150295069 bohr
     new conv_thr            =            1.0E-10 Ry

     new unit-cell volume =    475.04703 a.u.^3 (    70.39471 Ang^3 )

CELL_PARAMETERS (alat=  1.88972599)
  -1.459880008  -2.528586537  -0.000000000
   2.919760017   0.000000000   0.000000000
   0.000000000   0.000000000   9.534877491

ATOMIC_POSITIONS (angstrom)
Ti       1.459880008  -2.528586537   4.749252922
Ti       0.000001460  -1.685725201   2.383719373
Ti       1.459880008  -2.528586537   9.553063315
Nb       0.000001460  -1.685725201   7.151158119


     NEW-OLD atomic charge density approx. for the potential
     extrapolated charge   49.44435, renormalised to   49.00000

     total cpu time spent up to now is     1323.6 secs

     per-process dynamical memory:   131.2 Mb

     Self-consistent Calculation

     iteration #  1     ecut=    40.00 Ry     beta=0.60
     Davidson diagonalization with overlap
     c_bands:  1 eigenvalues not converged
     c_bands:  1 eigenvalues not converged
     ethr =  1.00E-06,  avg # of iterations =  9.6

     total cpu time spent up to now is     1355.4 secs

     total energy              =    -467.78297743 Ry
     Harris-Foulkes estimate   =    -466.95250658 Ry
     estimated scf accuracy    <       0.09737057 Ry

     iteration #  2     ecut=    40.00 Ry     beta=0.60
     Davidson diagonalization with overlap
     ethr =  1.99E-04,  avg # of iterations =  7.0

     total cpu time spent up to now is     1381.5 secs

     total energy              =    -467.28391021 Ry
     Harris-Foulkes estimate   =    -468.56279522 Ry
     estimated scf accuracy    <      16.96005798 Ry

     iteration #  3     ecut=    40.00 Ry     beta=0.60
     Davidson diagonalization with overlap
     ethr =  1.99E-04,  avg # of iterations =  6.3

     total cpu time spent up to now is     1406.1 secs

     total energy              =    -467.84797067 Ry
     Harris-Foulkes estimate   =    -467.89401234 Ry
     estimated scf accuracy    <       0.32837238 Ry

     iteration #  4     ecut=    40.00 Ry     beta=0.60
     Davidson diagonalization with overlap
     ethr =  1.99E-04,  avg # of iterations =  4.0

     total cpu time spent up to now is     1419.4 secs

     total energy              =    -467.86312492 Ry
     Harris-Foulkes estimate   =    -467.87581708 Ry
     estimated scf accuracy    <       0.07795329 Ry

     iteration #  5     ecut=    40.00 Ry     beta=0.60
     Davidson diagonalization with overlap
     ethr =  1.59E-04,  avg # of iterations =  1.2

     total cpu time spent up to now is     1429.8 secs

     total energy              =    -467.86781237 Ry
     Harris-Foulkes estimate   =    -467.86874815 Ry
     estimated scf accuracy    <       0.00609952 Ry

     iteration #  6     ecut=    40.00 Ry     beta=0.60
     Davidson diagonalization with overlap
     ethr =  1.24E-05,  avg # of iterations =  5.8

     total cpu time spent up to now is     1448.9 secs

     total energy              =    -467.86917970 Ry
     Harris-Foulkes estimate   =    -467.86942704 Ry
     estimated scf accuracy    <       0.00655613 Ry

     iteration #  7     ecut=    40.00 Ry     beta=0.60
     Davidson diagonalization with overlap
     ethr =  1.24E-05,  avg # of iterations =  1.0

     total cpu time spent up to now is     1459.0 secs

     total energy              =    -467.86857779 Ry
     Harris-Foulkes estimate   =    -467.86920741 Ry
     estimated scf accuracy    <       0.00454275 Ry

     iteration #  8     ecut=    40.00 Ry     beta=0.60
     Davidson diagonalization with overlap
     ethr =  9.27E-06,  avg # of iterations =  1.1

     total cpu time spent up to now is     1469.3 secs

     total energy              =    -467.86841298 Ry
     Harris-Foulkes estimate   =    -467.86868386 Ry
     estimated scf accuracy    <       0.00132754 Ry

     iteration #  9     ecut=    40.00 Ry     beta=0.60
     Davidson diagonalization with overlap
     ethr =  2.71E-06,  avg # of iterations =  4.5

     total cpu time spent up to now is     1484.1 secs

     total energy              =    -467.86858472 Ry
     Harris-Foulkes estimate   =    -467.86860243 Ry
     estimated scf accuracy    <       0.00017101 Ry

     iteration # 10     ecut=    40.00 Ry     beta=0.60
     Davidson diagonalization with overlap
     ethr =  3.49E-07,  avg # of iterations =  2.7

     total cpu time spent up to now is     1495.8 secs

     total energy              =    -467.86857901 Ry
     Harris-Foulkes estimate   =    -467.86859370 Ry
     estimated scf accuracy    <       0.00013299 Ry

     iteration # 11     ecut=    40.00 Ry     beta=0.60
     Davidson diagonalization with overlap
     ethr =  2.71E-07,  avg # of iterations =  3.2

     total cpu time spent up to now is     1508.7 secs

     total energy              =    -467.86857471 Ry
     Harris-Foulkes estimate   =    -467.86859282 Ry
     estimated scf accuracy    <       0.00022555 Ry

     iteration # 12     ecut=    40.00 Ry     beta=0.60
     Davidson diagonalization with overlap
     ethr =  2.71E-07,  avg # of iterations =  1.1

     total cpu time spent up to now is     1519.0 secs

     total energy              =    -467.86857481 Ry
     Harris-Foulkes estimate   =    -467.86857951 Ry
     estimated scf accuracy    <       0.00005928 Ry

     iteration # 13     ecut=    40.00 Ry     beta=0.60
     Davidson diagonalization with overlap
     ethr =  1.21E-07,  avg # of iterations =  2.5

     total cpu time spent up to now is     1530.3 secs

     total energy              =    -467.86857724 Ry
     Harris-Foulkes estimate   =    -467.86857721 Ry
     estimated scf accuracy    <       0.00000860 Ry

     iteration # 14     ecut=    40.00 Ry     beta=0.60
     Davidson diagonalization with overlap
     ethr =  1.76E-08,  avg # of iterations =  3.9

     total cpu time spent up to now is     1543.8 secs

     total energy              =    -467.86857760 Ry
     Harris-Foulkes estimate   =    -467.86857815 Ry
     estimated scf accuracy    <       0.00000426 Ry

     iteration # 15     ecut=    40.00 Ry     beta=0.60
     Davidson diagonalization with overlap
     ethr =  8.69E-09,  avg # of iterations =  3.1

     total cpu time spent up to now is     1556.0 secs

     total energy              =    -467.86857794 Ry
     Harris-Foulkes estimate   =    -467.86857799 Ry
     estimated scf accuracy    <       0.00000022 Ry

     iteration # 16     ecut=    40.00 Ry     beta=0.60
     Davidson diagonalization with overlap
     ethr =  4.59E-10,  avg # of iterations =  5.2

     total cpu time spent up to now is     1573.6 secs

     total energy              =    -467.86857807 Ry
     Harris-Foulkes estimate   =    -467.86857809 Ry
     estimated scf accuracy    <       0.00000053 Ry

     iteration # 17     ecut=    40.00 Ry     beta=0.60
     Davidson diagonalization with overlap
     ethr =  4.59E-10,  avg # of iterations =  1.0

     total cpu time spent up to now is     1583.9 secs

     total energy              =    -467.86857803 Ry
     Harris-Foulkes estimate   =    -467.86857808 Ry
     estimated scf accuracy    <       0.00000042 Ry

     iteration # 18     ecut=    40.00 Ry     beta=0.60
     Davidson diagonalization with overlap
     ethr =  4.59E-10,  avg # of iterations =  1.3

     total cpu time spent up to now is     1594.3 secs

     total energy              =    -467.86857802 Ry
     Harris-Foulkes estimate   =    -467.86857804 Ry
     estimated scf accuracy    <       0.00000011 Ry

     iteration # 19     ecut=    40.00 Ry     beta=0.60
     Davidson diagonalization with overlap
     ethr =  2.21E-10,  avg # of iterations =  4.0

     total cpu time spent up to now is     1608.9 secs

     total energy              =    -467.86857805 Ry
     Harris-Foulkes estimate   =    -467.86857805 Ry
     estimated scf accuracy    <       0.00000010 Ry

     iteration # 20     ecut=    40.00 Ry     beta=0.60
     Davidson diagonalization with overlap
     ethr =  1.97E-10,  avg # of iterations =  1.0

     total cpu time spent up to now is     1619.0 secs

     total energy              =    -467.86857804 Ry
     Harris-Foulkes estimate   =    -467.86857805 Ry
     estimated scf accuracy    <       0.00000003 Ry

     iteration # 21     ecut=    40.00 Ry     beta=0.60
     Davidson diagonalization with overlap
     ethr =  6.44E-11,  avg # of iterations =  3.5

     total cpu time spent up to now is     1632.6 secs

     total energy              =    -467.86857805 Ry
     Harris-Foulkes estimate   =    -467.86857805 Ry
     estimated scf accuracy    <          5.1E-09 Ry

     iteration # 22     ecut=    40.00 Ry     beta=0.60
     Davidson diagonalization with overlap
     ethr =  1.05E-11,  avg # of iterations =  2.1

     total cpu time spent up to now is     1643.6 secs

     total energy              =    -467.86857805 Ry
     Harris-Foulkes estimate   =    -467.86857805 Ry
     estimated scf accuracy    <          7.8E-10 Ry

     iteration # 23     ecut=    40.00 Ry     beta=0.60
     Davidson diagonalization with overlap
     ethr =  1.59E-12,  avg # of iterations =  4.2

     total cpu time spent up to now is     1658.2 secs

     End of self-consistent calculation

     Number of k-points >= 100: set verbosity='high' to print the bands.

     the Fermi energy is    14.5945 ev

!    total energy              =    -467.86857805 Ry
     Harris-Foulkes estimate   =    -467.86857805 Ry
     estimated scf accuracy    <          8.5E-12 Ry

     The total energy is the sum of the following terms:

     one-electron contribution =    -141.76043189 Ry
     hartree contribution      =      88.64017474 Ry
     xc contribution           =     -61.99405439 Ry
     ewald contribution        =    -352.75155692 Ry
     smearing contrib. (-TS)   =      -0.00270959 Ry

     convergence has been achieved in  23 iterations

     Forces acting on atoms (Ry/au):

     atom    1 type  2   force =     0.00000000   -0.00000000   -0.01114675
     atom    2 type  2   force =     0.00000000   -0.00000000    0.00000000
     atom    3 type  2   force =    -0.00000000   -0.00000000    0.01114675
     atom    4 type  1   force =     0.00000000   -0.00000000    0.00000000

     Total force =     0.015764     Total SCF correction =     0.000010


     entering subroutine stress ...

          total   stress  (Ry/bohr**3)                   (kbar)     P=    1.06
   0.00000306  -0.00000000  -0.00000000          0.45     -0.00     -0.00
   0.00000000   0.00000306  -0.00000000          0.00      0.45     -0.00
  -0.00000000  -0.00000000   0.00001540         -0.00     -0.00      2.27


     number of scf cycles    =   4
     number of bfgs steps    =   3

     enthalpy old            =    -467.8681228590 Ry
     enthalpy new            =    -467.8685780471 Ry

     CASE: enthalpy_new < enthalpy_old

     new trust radius        =       0.0210654170 bohr
     new conv_thr            =            1.0E-10 Ry

     new unit-cell volume =    476.84893 a.u.^3 (    70.66172 Ang^3 )

CELL_PARAMETERS (alat=  1.88972599)
  -1.461417710  -2.531249914   0.000000000
   2.922835420   0.000000000   0.000000000
   0.000000000   0.000000000   9.550913591

ATOMIC_POSITIONS (angstrom)
Ti       1.461417710  -2.531249914   4.746074300
Ti       0.000001462  -1.687500786   2.387728398
Ti       1.461417710  -2.531249914   9.580296086
Nb       0.000001462  -1.687500786   7.163185193


     NEW-OLD atomic charge density approx. for the potential
     extrapolated charge   49.17381, renormalised to   49.00000

     total cpu time spent up to now is     1669.0 secs

     per-process dynamical memory:   129.7 Mb

     Self-consistent Calculation

     iteration #  1     ecut=    40.00 Ry     beta=0.60
     Davidson diagonalization with overlap
     c_bands:  2 eigenvalues not converged
     c_bands:  1 eigenvalues not converged
     ethr =  1.00E-06,  avg # of iterations = 10.0

     total cpu time spent up to now is     1702.2 secs

     total energy              =    -467.77191885 Ry
     Harris-Foulkes estimate   =    -467.51114133 Ry
     estimated scf accuracy    <       0.12146773 Ry

     iteration #  2     ecut=    40.00 Ry     beta=0.60
     Davidson diagonalization with overlap
     ethr =  2.48E-04,  avg # of iterations =  6.8

     total cpu time spent up to now is     1727.8 secs

     total energy              =    -467.05950377 Ry
     Harris-Foulkes estimate   =    -468.90729384 Ry
     estimated scf accuracy    <      24.91834615 Ry

     iteration #  3     ecut=    40.00 Ry     beta=0.60
     Davidson diagonalization with overlap
     ethr =  2.48E-04,  avg # of iterations =  6.1

     total cpu time spent up to now is     1752.7 secs

     total energy              =    -467.85701586 Ry
     Harris-Foulkes estimate   =    -467.88567869 Ry
     estimated scf accuracy    <       0.27561437 Ry

     iteration #  4     ecut=    40.00 Ry     beta=0.60
     Davidson diagonalization with overlap
     ethr =  2.48E-04,  avg # of iterations =  1.0

     total cpu time spent up to now is     1763.2 secs

     total energy              =    -467.86454914 Ry
     Harris-Foulkes estimate   =    -467.86636557 Ry
     estimated scf accuracy    <       0.02999193 Ry

     iteration #  5     ecut=    40.00 Ry     beta=0.60
     Davidson diagonalization with overlap
     ethr =  6.12E-05,  avg # of iterations =  4.2

     total cpu time spent up to now is     1778.2 secs

     total energy              =    -467.86890916 Ry
     Harris-Foulkes estimate   =    -467.86900352 Ry
     estimated scf accuracy    <       0.00047041 Ry

     iteration #  6     ecut=    40.00 Ry     beta=0.60
     Davidson diagonalization with overlap
     c_bands:  2 eigenvalues not converged
     ethr =  9.60E-07,  avg # of iterations =  6.7

     total cpu time spent up to now is     1798.4 secs

     total energy              =    -467.86901017 Ry
     Harris-Foulkes estimate   =    -467.86906120 Ry
     estimated scf accuracy    <       0.00081561 Ry

     iteration #  7     ecut=    40.00 Ry     beta=0.60
     Davidson diagonalization with overlap
     ethr =  9.60E-07,  avg # of iterations =  1.0

     total cpu time spent up to now is     1808.6 secs

     total energy              =    -467.86896385 Ry
     Harris-Foulkes estimate   =    -467.86901860 Ry
     estimated scf accuracy    <       0.00054626 Ry

     iteration #  8     ecut=    40.00 Ry     beta=0.60
     Davidson diagonalization with overlap
     ethr =  9.60E-07,  avg # of iterations =  1.2

     total cpu time spent up to now is     1818.8 secs

     total energy              =    -467.86896023 Ry
     Harris-Foulkes estimate   =    -467.86897891 Ry
     estimated scf accuracy    <       0.00025242 Ry

     iteration #  9     ecut=    40.00 Ry     beta=0.60
     Davidson diagonalization with overlap
     ethr =  5.15E-07,  avg # of iterations =  1.4

     total cpu time spent up to now is     1829.4 secs

     total energy              =    -467.86896591 Ry
     Harris-Foulkes estimate   =    -467.86896821 Ry
     estimated scf accuracy    <       0.00009080 Ry

     iteration # 10     ecut=    40.00 Ry     beta=0.60
     Davidson diagonalization with overlap
     ethr =  1.85E-07,  avg # of iterations =  2.6

     total cpu time spent up to now is     1840.8 secs

     total energy              =    -467.86896395 Ry
     Harris-Foulkes estimate   =    -467.86896926 Ry
     estimated scf accuracy    <       0.00004824 Ry

     iteration # 11     ecut=    40.00 Ry     beta=0.60
     Davidson diagonalization with overlap
     ethr =  9.85E-08,  avg # of iterations =  3.6

     total cpu time spent up to now is     1853.7 secs

     total energy              =    -467.86896881 Ry
     Harris-Foulkes estimate   =    -467.86896878 Ry
     estimated scf accuracy    <       0.00000005 Ry

     iteration # 12     ecut=    40.00 Ry     beta=0.60
     Davidson diagonalization with overlap
     ethr =  9.23E-11,  avg # of iterations =  7.2

     total cpu time spent up to now is     1881.1 secs

     total energy              =    -467.86896894 Ry
     Harris-Foulkes estimate   =    -467.86896995 Ry
     estimated scf accuracy    <       0.00000790 Ry

     iteration # 13     ecut=    40.00 Ry     beta=0.60
     Davidson diagonalization with overlap
     ethr =  9.23E-11,  avg # of iterations =  5.7

     total cpu time spent up to now is     1906.0 secs

     total energy              =    -467.86896939 Ry
     Harris-Foulkes estimate   =    -467.86896942 Ry
     estimated scf accuracy    <       0.00000015 Ry

     iteration # 14     ecut=    40.00 Ry     beta=0.60
     Davidson diagonalization with overlap
     ethr =  9.23E-11,  avg # of iterations =  2.8

     total cpu time spent up to now is     1917.8 secs

     total energy              =    -467.86896938 Ry
     Harris-Foulkes estimate   =    -467.86896940 Ry
     estimated scf accuracy    <       0.00000006 Ry

     iteration # 15     ecut=    40.00 Ry     beta=0.60
     Davidson diagonalization with overlap
     ethr =  9.23E-11,  avg # of iterations =  3.8

     total cpu time spent up to now is     1932.1 secs

     total energy              =    -467.86896938 Ry
     Harris-Foulkes estimate   =    -467.86896939 Ry
     estimated scf accuracy    <       0.00000003 Ry

     iteration # 16     ecut=    40.00 Ry     beta=0.60
     Davidson diagonalization with overlap
     ethr =  5.16E-11,  avg # of iterations =  1.2

     total cpu time spent up to now is     1942.4 secs

     total energy              =    -467.86896938 Ry
     Harris-Foulkes estimate   =    -467.86896938 Ry
     estimated scf accuracy    <          8.0E-09 Ry

     iteration # 17     ecut=    40.00 Ry     beta=0.60
     Davidson diagonalization with overlap
     ethr =  1.63E-11,  avg # of iterations =  3.0

     total cpu time spent up to now is     1955.1 secs

     total energy              =    -467.86896938 Ry
     Harris-Foulkes estimate   =    -467.86896938 Ry
     estimated scf accuracy    <          3.7E-09 Ry

     iteration # 18     ecut=    40.00 Ry     beta=0.60
     Davidson diagonalization with overlap
     ethr =  7.49E-12,  avg # of iterations =  3.1

     total cpu time spent up to now is     1966.9 secs

     total energy              =    -467.86896938 Ry
     Harris-Foulkes estimate   =    -467.86896938 Ry
     estimated scf accuracy    <          7.2E-10 Ry

     iteration # 19     ecut=    40.00 Ry     beta=0.60
     Davidson diagonalization with overlap
     ethr =  1.48E-12,  avg # of iterations =  4.1

     total cpu time spent up to now is     1981.6 secs

     End of self-consistent calculation

     Number of k-points >= 100: set verbosity='high' to print the bands.

     the Fermi energy is    14.5280 ev

!    total energy              =    -467.86896938 Ry
     Harris-Foulkes estimate   =    -467.86896938 Ry
     estimated scf accuracy    <          8.0E-11 Ry

     The total energy is the sum of the following terms:

     one-electron contribution =    -142.29466966 Ry
     hartree contribution      =      88.77735115 Ry
     xc contribution           =     -61.97998687 Ry
     ewald contribution        =    -352.36889571 Ry
     smearing contrib. (-TS)   =      -0.00276828 Ry

     convergence has been achieved in  19 iterations

     Forces acting on atoms (Ry/au):

     atom    1 type  2   force =     0.00000000   -0.00000000   -0.00836289
     atom    2 type  2   force =    -0.00000000    0.00000000   -0.00000000
     atom    3 type  2   force =    -0.00000000   -0.00000000    0.00836289
     atom    4 type  1   force =     0.00000000   -0.00000000    0.00000000

     Total force =     0.011827     Total SCF correction =     0.000008


     entering subroutine stress ...

          total   stress  (Ry/bohr**3)                   (kbar)     P=   -4.63
  -0.00003510  -0.00000000  -0.00000000         -5.16     -0.00     -0.00
  -0.00000000  -0.00003510  -0.00000000         -0.00     -5.16     -0.00
   0.00000000   0.00000000  -0.00002421          0.00      0.00     -3.56


     number of scf cycles    =   5
     number of bfgs steps    =   4

     enthalpy old            =    -467.8685780471 Ry
     enthalpy new            =    -467.8689693840 Ry

     CASE: enthalpy_new < enthalpy_old

     new trust radius        =       0.0232109302 bohr
     new conv_thr            =            1.0E-10 Ry

     new unit-cell volume =    476.97021 a.u.^3 (    70.67969 Ang^3 )

CELL_PARAMETERS (alat=  1.88972599)
  -1.461189063  -2.530853886   0.000000000
   2.922378126   0.000000000   0.000000000
   0.000000000   0.000000000   9.556332763

ATOMIC_POSITIONS (angstrom)
Ti       1.461189063  -2.530853886   4.736477550
Ti       0.000001462  -1.687236768   2.389083191
Ti       1.461189063  -2.530853886   9.598021594
Nb       0.000001462  -1.687236768   7.167249572


     NEW-OLD atomic charge density approx. for the potential
     extrapolated charge   49.01170, renormalised to   49.00000

     total cpu time spent up to now is     1992.5 secs

     per-process dynamical memory:   131.2 Mb

     Self-consistent Calculation

     iteration #  1     ecut=    40.00 Ry     beta=0.60
     Davidson diagonalization with overlap
     c_bands:  1 eigenvalues not converged
     c_bands:  1 eigenvalues not converged
     ethr =  1.00E-06,  avg # of iterations =  9.9

     total cpu time spent up to now is     2025.0 secs

     total energy              =    -467.78662573 Ry
     Harris-Foulkes estimate   =    -467.84808478 Ry
     estimated scf accuracy    <       0.10430105 Ry

     iteration #  2     ecut=    40.00 Ry     beta=0.60
     Davidson diagonalization with overlap
     ethr =  2.13E-04,  avg # of iterations =  6.8

     total cpu time spent up to now is     2050.4 secs

     total energy              =    -467.12192666 Ry
     Harris-Foulkes estimate   =    -468.80471437 Ry
     estimated scf accuracy    <      23.54189098 Ry

     iteration #  3     ecut=    40.00 Ry     beta=0.60
     Davidson diagonalization with overlap
     ethr =  2.13E-04,  avg # of iterations =  6.1

     total cpu time spent up to now is     2074.6 secs

     total energy              =    -467.86358821 Ry
     Harris-Foulkes estimate   =    -467.87764652 Ry
     estimated scf accuracy    <       0.14639349 Ry

     iteration #  4     ecut=    40.00 Ry     beta=0.60
     Davidson diagonalization with overlap
     ethr =  2.13E-04,  avg # of iterations =  1.0

     total cpu time spent up to now is     2084.8 secs

     total energy              =    -467.86708349 Ry
     Harris-Foulkes estimate   =    -467.86801805 Ry
     estimated scf accuracy    <       0.02232978 Ry

     iteration #  5     ecut=    40.00 Ry     beta=0.60
     Davidson diagonalization with overlap
     ethr =  4.56E-05,  avg # of iterations =  3.7

     total cpu time spent up to now is     2097.9 secs

     total energy              =    -467.86908509 Ry
     Harris-Foulkes estimate   =    -467.86910579 Ry
     estimated scf accuracy    <       0.00104898 Ry

     iteration #  6     ecut=    40.00 Ry     beta=0.60
     Davidson diagonalization with overlap
     ethr =  2.14E-06,  avg # of iterations =  6.6

     total cpu time spent up to now is     2117.1 secs

     total energy              =    -467.86929802 Ry
     Harris-Foulkes estimate   =    -467.86930817 Ry
     estimated scf accuracy    <       0.00051725 Ry

     iteration #  7     ecut=    40.00 Ry     beta=0.60
     Davidson diagonalization with overlap
     ethr =  1.06E-06,  avg # of iterations =  1.0

     total cpu time spent up to now is     2127.3 secs

     total energy              =    -467.86928904 Ry
     Harris-Foulkes estimate   =    -467.86930315 Ry
     estimated scf accuracy    <       0.00034598 Ry

     iteration #  8     ecut=    40.00 Ry     beta=0.60
     Davidson diagonalization with overlap
     ethr =  7.06E-07,  avg # of iterations =  1.0

     total cpu time spent up to now is     2137.5 secs

     total energy              =    -467.86928603 Ry
     Harris-Foulkes estimate   =    -467.86929393 Ry
     estimated scf accuracy    <       0.00012503 Ry

     iteration #  9     ecut=    40.00 Ry     beta=0.60
     Davidson diagonalization with overlap
     ethr =  2.55E-07,  avg # of iterations =  2.0

     total cpu time spent up to now is     2148.4 secs

     total energy              =    -467.86928525 Ry
     Harris-Foulkes estimate   =    -467.86928924 Ry
     estimated scf accuracy    <       0.00003544 Ry

     iteration # 10     ecut=    40.00 Ry     beta=0.60
     Davidson diagonalization with overlap
     ethr =  7.23E-08,  avg # of iterations =  3.8

     total cpu time spent up to now is     2161.5 secs

     total energy              =    -467.86928936 Ry
     Harris-Foulkes estimate   =    -467.86928951 Ry
     estimated scf accuracy    <       0.00000221 Ry

     iteration # 11     ecut=    40.00 Ry     beta=0.60
     Davidson diagonalization with overlap
     ethr =  4.50E-09,  avg # of iterations =  4.3

     total cpu time spent up to now is     2176.0 secs

     total energy              =    -467.86928972 Ry
     Harris-Foulkes estimate   =    -467.86928979 Ry
     estimated scf accuracy    <       0.00000098 Ry

     iteration # 12     ecut=    40.00 Ry     beta=0.60
     Davidson diagonalization with overlap
     ethr =  2.00E-09,  avg # of iterations =  1.2

     total cpu time spent up to now is     2186.3 secs

     total energy              =    -467.86928971 Ry
     Harris-Foulkes estimate   =    -467.86928975 Ry
     estimated scf accuracy    <       0.00000030 Ry

     iteration # 13     ecut=    40.00 Ry     beta=0.60
     Davidson diagonalization with overlap
     ethr =  6.17E-10,  avg # of iterations =  3.4

     total cpu time spent up to now is     2198.9 secs

     total energy              =    -467.86928974 Ry
     Harris-Foulkes estimate   =    -467.86928974 Ry
     estimated scf accuracy    <       0.00000005 Ry

     iteration # 14     ecut=    40.00 Ry     beta=0.60
     Davidson diagonalization with overlap
     ethr =  1.05E-10,  avg # of iterations =  3.7

     total cpu time spent up to now is     2212.2 secs

     total energy              =    -467.86928974 Ry
     Harris-Foulkes estimate   =    -467.86928974 Ry
     estimated scf accuracy    <       0.00000003 Ry

     iteration # 15     ecut=    40.00 Ry     beta=0.60
     Davidson diagonalization with overlap
     ethr =  5.41E-11,  avg # of iterations =  1.5

     total cpu time spent up to now is     2222.8 secs

     total energy              =    -467.86928974 Ry
     Harris-Foulkes estimate   =    -467.86928974 Ry
     estimated scf accuracy    <          8.6E-10 Ry

     iteration # 16     ecut=    40.00 Ry     beta=0.60
     Davidson diagonalization with overlap
     ethr =  1.75E-12,  avg # of iterations =  5.5

     total cpu time spent up to now is     2243.8 secs

     total energy              =    -467.86928974 Ry
     Harris-Foulkes estimate   =    -467.86928974 Ry
     estimated scf accuracy    <          7.3E-09 Ry

     iteration # 17     ecut=    40.00 Ry     beta=0.60
     Davidson diagonalization with overlap
     ethr =  1.75E-12,  avg # of iterations =  3.1

     total cpu time spent up to now is     2255.7 secs

     total energy              =    -467.86928974 Ry
     Harris-Foulkes estimate   =    -467.86928974 Ry
     estimated scf accuracy    <          1.5E-09 Ry

     iteration # 18     ecut=    40.00 Ry     beta=0.60
     Davidson diagonalization with overlap
     ethr =  1.75E-12,  avg # of iterations =  3.2

     total cpu time spent up to now is     2268.3 secs

     End of self-consistent calculation

     Number of k-points >= 100: set verbosity='high' to print the bands.

     the Fermi energy is    14.5213 ev

!    total energy              =    -467.86928974 Ry
     Harris-Foulkes estimate   =    -467.86928974 Ry
     estimated scf accuracy    <          1.6E-11 Ry

     The total energy is the sum of the following terms:

     one-electron contribution =    -142.26591177 Ry
     hartree contribution      =      88.75487539 Ry
     xc contribution           =     -61.97834292 Ry
     ewald contribution        =    -352.37708807 Ry
     smearing contrib. (-TS)   =      -0.00282237 Ry

     convergence has been achieved in  18 iterations

     Forces acting on atoms (Ry/au):

     atom    1 type  2   force =     0.00000000   -0.00000000   -0.00551007
     atom    2 type  2   force =     0.00000000    0.00000000   -0.00000000
     atom    3 type  2   force =    -0.00000000    0.00000000    0.00551007
     atom    4 type  1   force =    -0.00000000    0.00000000    0.00000000

     Total force =     0.007792     Total SCF correction =     0.000022


     entering subroutine stress ...

          total   stress  (Ry/bohr**3)                   (kbar)     P=   -5.70
  -0.00004225   0.00000000   0.00000000         -6.22      0.00      0.00
   0.00000000  -0.00004225   0.00000000          0.00     -6.22      0.00
   0.00000000  -0.00000000  -0.00003164          0.00     -0.00     -4.65


     number of scf cycles    =   6
     number of bfgs steps    =   5

     enthalpy old            =    -467.8689693840 Ry
     enthalpy new            =    -467.8692897423 Ry

     CASE: enthalpy_new < enthalpy_old

     new trust radius        =       0.0348361500 bohr
     new conv_thr            =            1.0E-10 Ry

     new unit-cell volume =    475.80550 a.u.^3 (    70.50710 Ang^3 )

CELL_PARAMETERS (alat=  1.88972599)
  -1.459390237  -2.527738228   0.000000000
   2.918780474   0.000000000   0.000000000
   0.000000000   0.000000000   9.556512203

ATOMIC_POSITIONS (angstrom)
Ti       1.459390237  -2.527738228   4.718131644
Ti       0.000001460  -1.685159661   2.389128051
Ti       1.459390237  -2.527738228   9.616636660
Nb       0.000001460  -1.685159661   7.167384152


     NEW-OLD atomic charge density approx. for the potential
     extrapolated charge   48.88740, renormalised to   49.00000

     total cpu time spent up to now is     2279.2 secs

     per-process dynamical memory:   129.7 Mb

     Self-consistent Calculation

     iteration #  1     ecut=    40.00 Ry     beta=0.60
     Davidson diagonalization with overlap
     c_bands:  2 eigenvalues not converged
     c_bands:  1 eigenvalues not converged
     ethr =  1.00E-06,  avg # of iterations = 11.2

     total cpu time spent up to now is     2316.6 secs

     total energy              =    -467.68931788 Ry
     Harris-Foulkes estimate   =    -468.11037398 Ry
     estimated scf accuracy    <       0.22465849 Ry

     iteration #  2     ecut=    40.00 Ry     beta=0.60
     Davidson diagonalization with overlap
     ethr =  4.58E-04,  avg # of iterations =  7.1

     total cpu time spent up to now is     2342.9 secs

     total energy              =    -466.65261860 Ry
     Harris-Foulkes estimate   =    -469.73982933 Ry
     estimated scf accuracy    <      38.36176626 Ry

     iteration #  3     ecut=    40.00 Ry     beta=0.60
     Davidson diagonalization with overlap
     ethr =  4.58E-04,  avg # of iterations =  5.9

     total cpu time spent up to now is     2367.1 secs

     total energy              =    -467.85052305 Ry
     Harris-Foulkes estimate   =    -467.89927374 Ry
     estimated scf accuracy    <       0.50678414 Ry

     iteration #  4     ecut=    40.00 Ry     beta=0.60
     Davidson diagonalization with overlap
     ethr =  4.58E-04,  avg # of iterations =  1.0

     total cpu time spent up to now is     2377.4 secs

     total energy              =    -467.86217982 Ry
     Harris-Foulkes estimate   =    -467.86695628 Ry
     estimated scf accuracy    <       0.10033231 Ry

     iteration #  5     ecut=    40.00 Ry     beta=0.60
     Davidson diagonalization with overlap
     ethr =  2.05E-04,  avg # of iterations =  3.4

     total cpu time spent up to now is     2390.0 secs

     total energy              =    -467.86887048 Ry
     Harris-Foulkes estimate   =    -467.86921251 Ry
     estimated scf accuracy    <       0.00879855 Ry

     iteration #  6     ecut=    40.00 Ry     beta=0.60
     Davidson diagonalization with overlap
     ethr =  1.80E-05,  avg # of iterations =  5.9

     total cpu time spent up to now is     2407.1 secs

     total energy              =    -467.86987276 Ry
     Harris-Foulkes estimate   =    -467.86986493 Ry
     estimated scf accuracy    <       0.00556173 Ry

     iteration #  7     ecut=    40.00 Ry     beta=0.60
     Davidson diagonalization with overlap
     ethr =  1.14E-05,  avg # of iterations =  1.0

     total cpu time spent up to now is     2417.3 secs

     total energy              =    -467.86983186 Ry
     Harris-Foulkes estimate   =    -467.86989724 Ry
     estimated scf accuracy    <       0.00557716 Ry

     iteration #  8     ecut=    40.00 Ry     beta=0.60
     Davidson diagonalization with overlap
     ethr =  1.14E-05,  avg # of iterations =  1.0

     total cpu time spent up to now is     2427.5 secs

     total energy              =    -467.86944202 Ry
     Harris-Foulkes estimate   =    -467.86984275 Ry
     estimated scf accuracy    <       0.00454922 Ry

     iteration #  9     ecut=    40.00 Ry     beta=0.60
     Davidson diagonalization with overlap
     ethr =  9.28E-06,  avg # of iterations =  1.0

     total cpu time spent up to now is     2437.6 secs

     total energy              =    -467.86948676 Ry
     Harris-Foulkes estimate   =    -467.86956950 Ry
     estimated scf accuracy    <       0.00043260 Ry

     iteration # 10     ecut=    40.00 Ry     beta=0.60
     Davidson diagonalization with overlap
     ethr =  8.83E-07,  avg # of iterations =  5.3

     total cpu time spent up to now is     2454.6 secs

     total energy              =    -467.86958814 Ry
     Harris-Foulkes estimate   =    -467.86959648 Ry
     estimated scf accuracy    <       0.00015654 Ry

     iteration # 11     ecut=    40.00 Ry     beta=0.60
     Davidson diagonalization with overlap
     ethr =  3.19E-07,  avg # of iterations =  1.1

     total cpu time spent up to now is     2464.8 secs

     total energy              =    -467.86958414 Ry
     Harris-Foulkes estimate   =    -467.86959191 Ry
     estimated scf accuracy    <       0.00016629 Ry

     iteration # 12     ecut=    40.00 Ry     beta=0.60
     Davidson diagonalization with overlap
     ethr =  3.19E-07,  avg # of iterations =  1.0

     total cpu time spent up to now is     2475.0 secs

     total energy              =    -467.86957152 Ry
     Harris-Foulkes estimate   =    -467.86958582 Ry
     estimated scf accuracy    <       0.00013695 Ry

     iteration # 13     ecut=    40.00 Ry     beta=0.60
     Davidson diagonalization with overlap
     ethr =  2.79E-07,  avg # of iterations =  1.0

     total cpu time spent up to now is     2485.2 secs

     total energy              =    -467.86956106 Ry
     Harris-Foulkes estimate   =    -467.86957437 Ry
     estimated scf accuracy    <       0.00006666 Ry

     iteration # 14     ecut=    40.00 Ry     beta=0.60
     Davidson diagonalization with overlap
     ethr =  1.36E-07,  avg # of iterations =  3.5

     total cpu time spent up to now is     2498.5 secs

     total energy              =    -467.86956619 Ry
     Harris-Foulkes estimate   =    -467.86957376 Ry
     estimated scf accuracy    <       0.00003892 Ry

     iteration # 15     ecut=    40.00 Ry     beta=0.60
     Davidson diagonalization with overlap
     ethr =  7.94E-08,  avg # of iterations =  1.6

     total cpu time spent up to now is     2509.1 secs

     total energy              =    -467.86956880 Ry
[...]
     Starting wfc are   43 randomized atomic wfcs

     total cpu time spent up to now is     4541.5 secs

     per-process dynamical memory:   115.5 Mb

     Self-consistent Calculation

     iteration #  1     ecut=    40.00 Ry     beta=0.60
     Davidson diagonalization with overlap
     c_bands:  1 eigenvalues not converged
     c_bands:  1 eigenvalues not converged
     c_bands:  1 eigenvalues not converged
     c_bands:  1 eigenvalues not converged
     c_bands:  2 eigenvalues not converged
     c_bands:  1 eigenvalues not converged
     c_bands:  2 eigenvalues not converged
     c_bands:  2 eigenvalues not converged
     c_bands:  2 eigenvalues not converged
     c_bands:  1 eigenvalues not converged
     c_bands:  1 eigenvalues not converged
     c_bands:  2 eigenvalues not converged
     c_bands:  2 eigenvalues not converged
     c_bands:  1 eigenvalues not converged
     c_bands:  1 eigenvalues not converged
     c_bands:  2 eigenvalues not converged
     c_bands:  2 eigenvalues not converged
     c_bands:  1 eigenvalues not converged
     c_bands:  1 eigenvalues not converged
     c_bands:  1 eigenvalues not converged
     c_bands:  1 eigenvalues not converged
     c_bands:  2 eigenvalues not converged
     c_bands:  2 eigenvalues not converged
     c_bands:  3 eigenvalues not converged
     c_bands:  2 eigenvalues not converged
     c_bands:  2 eigenvalues not converged
     c_bands:  2 eigenvalues not converged
     c_bands:  2 eigenvalues not converged
     c_bands:  2 eigenvalues not converged
     c_bands:  2 eigenvalues not converged
     c_bands:  2 eigenvalues not converged
     c_bands:  3 eigenvalues not converged
     c_bands:  2 eigenvalues not converged
     c_bands:  1 eigenvalues not converged
     c_bands:  1 eigenvalues not converged
     c_bands:  1 eigenvalues not converged
     c_bands:  1 eigenvalues not converged
     c_bands:  1 eigenvalues not converged
     c_bands:  1 eigenvalues not converged
     c_bands:  2 eigenvalues not converged
     c_bands:  3 eigenvalues not converged
     c_bands:  3 eigenvalues not converged
     c_bands:  3 eigenvalues not converged
     c_bands:  2 eigenvalues not converged
     c_bands:  2 eigenvalues not converged
     c_bands:  3 eigenvalues not converged
     c_bands:  2 eigenvalues not converged
     c_bands:  1 eigenvalues not converged
     c_bands:  2 eigenvalues not converged
     c_bands:  2 eigenvalues not converged
     c_bands:  3 eigenvalues not converged
     c_bands:  1 eigenvalues not converged
     c_bands:  2 eigenvalues not converged
     c_bands:  1 eigenvalues not converged
     c_bands:  2 eigenvalues not converged
     c_bands:  1 eigenvalues not converged
     c_bands:  1 eigenvalues not converged
     c_bands:  1 eigenvalues not converged
     c_bands:  1 eigenvalues not converged
     c_bands:  1 eigenvalues not converged
     c_bands:  2 eigenvalues not converged
     c_bands:  1 eigenvalues not converged
     c_bands:  1 eigenvalues not converged
     c_bands:  1 eigenvalues not converged
     ethr =  1.00E-06,  avg # of iterations = 17.2

     total cpu time spent up to now is     4588.7 secs

     total energy              =    -398.95624942 Ry
     Harris-Foulkes estimate   =    -476.00159477 Ry
     estimated scf accuracy    <      93.56944778 Ry

     iteration #  2     ecut=    40.00 Ry     beta=0.60
     Davidson diagonalization with overlap
     ethr =  1.00E-02,  avg # of iterations = 12.5

     total cpu time spent up to now is     4633.4 secs

     total energy              =    -425.23716066 Ry
     Harris-Foulkes estimate   =    -661.14312159 Ry
     estimated scf accuracy    <     914.42233291 Ry

     iteration #  3     ecut=    40.00 Ry     beta=0.60
     Davidson diagonalization with overlap
     ethr =  1.00E-02,  avg # of iterations =  7.3

     total cpu time spent up to now is     4662.0 secs

     total energy              =    -464.71226303 Ry
     Harris-Foulkes estimate   =    -493.62068673 Ry
     estimated scf accuracy    <     177.45126096 Ry

     iteration #  4     ecut=    40.00 Ry     beta=0.60
     Davidson diagonalization with overlap
     ethr =  1.00E-02,  avg # of iterations =  6.9

     total cpu time spent up to now is     4685.0 secs

     total energy              =    -470.48219826 Ry
     Harris-Foulkes estimate   =    -474.80960020 Ry
     estimated scf accuracy    <      44.44442264 Ry

     iteration #  5     ecut=    40.00 Ry     beta=0.60
     Davidson diagonalization with overlap
     ethr =  1.00E-02,  avg # of iterations =  2.4

     total cpu time spent up to now is     4695.7 secs

     total energy              =    -471.58311414 Ry
     Harris-Foulkes estimate   =    -471.19475864 Ry
     estimated scf accuracy    <      21.47680602 Ry

     iteration #  6     ecut=    40.00 Ry     beta=0.60
     Davidson diagonalization with overlap
     ethr =  1.00E-02,  avg # of iterations =  1.0

     total cpu time spent up to now is     4705.1 secs

     total energy              =    -466.61321164 Ry
     Harris-Foulkes estimate   =    -471.60898283 Ry
     estimated scf accuracy    <      21.56822373 Ry

     iteration #  7     ecut=    40.00 Ry     beta=0.60
     Davidson diagonalization with overlap
     ethr =  1.00E-02,  avg # of iterations =  4.4

     total cpu time spent up to now is     4720.6 secs

     total energy              =    -468.44132350 Ry
     Harris-Foulkes estimate   =    -468.49339009 Ry
     estimated scf accuracy    <       9.46587710 Ry

     iteration #  8     ecut=    40.00 Ry     beta=0.60
     Davidson diagonalization with overlap
     ethr =  1.00E-02,  avg # of iterations =  1.0

     total cpu time spent up to now is     4730.0 secs

     total energy              =    -468.07161363 Ry
     Harris-Foulkes estimate   =    -468.48234283 Ry
     estimated scf accuracy    <      10.38764635 Ry

     iteration #  9     ecut=    40.00 Ry     beta=0.60
     Davidson diagonalization with overlap
     ethr =  1.00E-02,  avg # of iterations =  1.2

     total cpu time spent up to now is     4739.6 secs

     total energy              =    -467.99221471 Ry
     Harris-Foulkes estimate   =    -468.20729279 Ry
     estimated scf accuracy    <       7.59523062 Ry

     iteration # 10     ecut=    40.00 Ry     beta=0.60
     Davidson diagonalization with overlap
     ethr =  1.00E-02,  avg # of iterations =  1.0

     total cpu time spent up to now is     4749.1 secs

     total energy              =    -467.65579039 Ry
     Harris-Foulkes estimate   =    -468.04096453 Ry
     estimated scf accuracy    <       4.40062093 Ry

     iteration # 11     ecut=    40.00 Ry     beta=0.60
     Davidson diagonalization with overlap
     ethr =  8.98E-03,  avg # of iterations =  1.1

     total cpu time spent up to now is     4758.6 secs

     total energy              =    -467.86788675 Ry
     Harris-Foulkes estimate   =    -467.87480746 Ry
     estimated scf accuracy    <       1.52040035 Ry

     iteration # 12     ecut=    40.00 Ry     beta=0.60
     Davidson diagonalization with overlap
     ethr =  3.10E-03,  avg # of iterations =  4.2

     total cpu time spent up to now is     4771.7 secs

     total energy              =    -468.24300544 Ry
     Harris-Foulkes estimate   =    -468.13485358 Ry
     estimated scf accuracy    <       5.98125638 Ry

     iteration # 13     ecut=    40.00 Ry     beta=0.60
     Davidson diagonalization with overlap
     ethr =  3.10E-03,  avg # of iterations =  1.0

     total cpu time spent up to now is     4781.2 secs

     total energy              =    -467.92630541 Ry
     Harris-Foulkes estimate   =    -468.25828800 Ry
     estimated scf accuracy    <       7.55662476 Ry

     iteration # 14     ecut=    40.00 Ry     beta=0.60
     Davidson diagonalization with overlap
     ethr =  3.10E-03,  avg # of iterations =  1.0

     total cpu time spent up to now is     4790.6 secs

     total energy              =    -467.70894386 Ry
     Harris-Foulkes estimate   =    -467.99619075 Ry
     estimated scf accuracy    <       3.11292262 Ry

     iteration # 15     ecut=    40.00 Ry     beta=0.60
     Davidson diagonalization with overlap
     ethr =  3.10E-03,  avg # of iterations =  2.9

     total cpu time spent up to now is     4801.9 secs

     total energy              =    -467.88296819 Ry
     Harris-Foulkes estimate   =    -467.90073838 Ry
     estimated scf accuracy    <       0.91750993 Ry

     iteration # 16     ecut=    40.00 Ry     beta=0.60
     Davidson diagonalization with overlap
     ethr =  1.87E-03,  avg # of iterations =  1.3

     total cpu time spent up to now is     4811.6 secs

     total energy              =    -467.90811308 Ry
     Harris-Foulkes estimate   =    -467.89222701 Ry
     estimated scf accuracy    <       0.65537779 Ry

     iteration # 17     ecut=    40.00 Ry     beta=0.60
     Davidson diagonalization with overlap
     ethr =  1.34E-03,  avg # of iterations =  1.0

     total cpu time spent up to now is     4821.0 secs

     total energy              =    -467.90085648 Ry
     Harris-Foulkes estimate   =    -467.91326974 Ry
     estimated scf accuracy    <       0.79753172 Ry

     iteration # 18     ecut=    40.00 Ry     beta=0.60
     Davidson diagonalization with overlap
     ethr =  1.34E-03,  avg # of iterations =  1.0

     total cpu time spent up to now is     4830.4 secs

     total energy              =    -467.84093579 Ry
     Harris-Foulkes estimate   =    -467.90238960 Ry
     estimated scf accuracy    <       0.69964887 Ry

     iteration # 19     ecut=    40.00 Ry     beta=0.60
     Davidson diagonalization with overlap
     ethr =  1.34E-03,  avg # of iterations =  1.1

     total cpu time spent up to now is     4839.9 secs

     total energy              =    -467.85865950 Ry
     Harris-Foulkes estimate   =    -467.86373161 Ry
     estimated scf accuracy    <       0.15461204 Ry

     iteration # 20     ecut=    40.00 Ry     beta=0.60
     Davidson diagonalization with overlap
     ethr =  3.16E-04,  avg # of iterations =  4.3

     total cpu time spent up to now is     4852.3 secs

     total energy              =    -467.86078884 Ry
     Harris-Foulkes estimate   =    -467.86641095 Ry
     estimated scf accuracy    <       0.07082602 Ry

     iteration # 21     ecut=    40.00 Ry     beta=0.60
     Davidson diagonalization with overlap
     ethr =  1.45E-04,  avg # of iterations =  3.1

     total cpu time spent up to now is     4863.3 secs

     total energy              =    -467.86495868 Ry
     Harris-Foulkes estimate   =    -467.86515928 Ry
     estimated scf accuracy    <       0.00235166 Ry

     iteration # 22     ecut=    40.00 Ry     beta=0.60
     Davidson diagonalization with overlap
     ethr =  4.80E-06,  avg # of iterations =  6.8

     total cpu time spent up to now is     4884.5 secs

     total energy              =    -467.86567793 Ry
     Harris-Foulkes estimate   =    -467.86619142 Ry
     estimated scf accuracy    <       0.00299353 Ry

     iteration # 23     ecut=    40.00 Ry     beta=0.60
     Davidson diagonalization with overlap
     ethr =  4.80E-06,  avg # of iterations =  3.1

     total cpu time spent up to now is     4895.9 secs

     total energy              =    -467.86596998 Ry
     Harris-Foulkes estimate   =    -467.86602679 Ry
     estimated scf accuracy    <       0.00055281 Ry

     iteration # 24     ecut=    40.00 Ry     beta=0.60
     Davidson diagonalization with overlap
     ethr =  1.13E-06,  avg # of iterations =  2.3

     total cpu time spent up to now is     4906.4 secs

     total energy              =    -467.86598900 Ry
     Harris-Foulkes estimate   =    -467.86600073 Ry
     estimated scf accuracy    <       0.00015145 Ry

     iteration # 25     ecut=    40.00 Ry     beta=0.60
     Davidson diagonalization with overlap
     ethr =  3.09E-07,  avg # of iterations =  3.1

     total cpu time spent up to now is     4917.7 secs

     total energy              =    -467.86600000 Ry
     Harris-Foulkes estimate   =    -467.86600100 Ry
     estimated scf accuracy    <       0.00001015 Ry

     iteration # 26     ecut=    40.00 Ry     beta=0.60
     Davidson diagonalization with overlap
     ethr =  2.07E-08,  avg # of iterations =  4.4

     total cpu time spent up to now is     4931.7 secs

     total energy              =    -467.86600204 Ry
     Harris-Foulkes estimate   =    -467.86600227 Ry
     estimated scf accuracy    <       0.00000277 Ry

     iteration # 27     ecut=    40.00 Ry     beta=0.60
     Davidson diagonalization with overlap
     ethr =  5.66E-09,  avg # of iterations =  1.8

     total cpu time spent up to now is     4941.8 secs

     total energy              =    -467.86600216 Ry
     Harris-Foulkes estimate   =    -467.86600217 Ry
     estimated scf accuracy    <       0.00000011 Ry

     iteration # 28     ecut=    40.00 Ry     beta=0.60
     Davidson diagonalization with overlap
     ethr =  2.22E-10,  avg # of iterations =  5.1

     total cpu time spent up to now is     4958.1 secs

     total energy              =    -467.86600221 Ry
     Harris-Foulkes estimate   =    -467.86600222 Ry
     estimated scf accuracy    <       0.00000014 Ry

     iteration # 29     ecut=    40.00 Ry     beta=0.60
     Davidson diagonalization with overlap
     ethr =  2.22E-10,  avg # of iterations =  1.0

     total cpu time spent up to now is     4967.5 secs

     total energy              =    -467.86600221 Ry
     Harris-Foulkes estimate   =    -467.86600221 Ry
     estimated scf accuracy    <       0.00000002 Ry

     iteration # 30     ecut=    40.00 Ry     beta=0.60
     Davidson diagonalization with overlap
     ethr =  4.47E-11,  avg # of iterations =  4.1

     total cpu time spent up to now is     4981.5 secs

     total energy              =    -467.86600221 Ry
     Harris-Foulkes estimate   =    -467.86600222 Ry
     estimated scf accuracy    <       0.00000001 Ry

     iteration # 31     ecut=    40.00 Ry     beta=0.60
     Davidson diagonalization with overlap
     ethr =  2.94E-11,  avg # of iterations =  1.0

     total cpu time spent up to now is     4990.9 secs

     total energy              =    -467.86600221 Ry
     Harris-Foulkes estimate   =    -467.86600221 Ry
     estimated scf accuracy    <          5.2E-09 Ry

     iteration # 32     ecut=    40.00 Ry     beta=0.60
     Davidson diagonalization with overlap
     ethr =  1.07E-11,  avg # of iterations =  3.1

     total cpu time spent up to now is     5002.5 secs

     total energy              =    -467.86600221 Ry
     Harris-Foulkes estimate   =    -467.86600221 Ry
     estimated scf accuracy    <          6.4E-12 Ry

     iteration # 33     ecut=    40.00 Ry     beta=0.60
     Davidson diagonalization with overlap
     ethr =  1.00E-13,  avg # of iterations =  5.4

     total cpu time spent up to now is     5021.6 secs

     total energy              =    -467.86600221 Ry
     Harris-Foulkes estimate   =    -467.86600221 Ry
     estimated scf accuracy    <          3.5E-12 Ry

     iteration # 34     ecut=    40.00 Ry     beta=0.60
     Davidson diagonalization with overlap
     ethr =  1.00E-13,  avg # of iterations =  1.0

     total cpu time spent up to now is     5031.0 secs

     total energy              =    -467.86600221 Ry
     Harris-Foulkes estimate   =    -467.86600221 Ry
     estimated scf accuracy    <          1.2E-11 Ry

     iteration # 35     ecut=    40.00 Ry     beta=0.60
     Davidson diagonalization with overlap
     ethr =  1.00E-13,  avg # of iterations =  1.0

     total cpu time spent up to now is     5040.5 secs

     total energy              =    -467.86600221 Ry
     Harris-Foulkes estimate   =    -467.86600221 Ry
     estimated scf accuracy    <          3.6E-12 Ry

     iteration # 36     ecut=    40.00 Ry     beta=0.60
     Davidson diagonalization with overlap
     ethr =  1.00E-13,  avg # of iterations =  1.0

     total cpu time spent up to now is     5049.9 secs

     End of self-consistent calculation

     Number of k-points >= 100: set verbosity='high' to print the bands.

     the Fermi energy is    14.6070 ev

!    total energy              =    -467.86600221 Ry
     Harris-Foulkes estimate   =    -467.86600221 Ry
     estimated scf accuracy    <          8.3E-13 Ry

     The total energy is the sum of the following terms:

     one-electron contribution =    -141.39220107 Ry
     hartree contribution      =      88.49985404 Ry
     xc contribution           =     -61.99340102 Ry
     ewald contribution        =    -352.97737504 Ry
     smearing contrib. (-TS)   =      -0.00287913 Ry

     convergence has been achieved in  36 iterations

     Forces acting on atoms (Ry/au):

     atom    1 type  2   force =    -0.00000000    0.00000000   -0.00006973
     atom    2 type  2   force =     0.00000000    0.00000000    0.00000000
     atom    3 type  2   force =     0.00000000    0.00000000    0.00006973
     atom    4 type  1   force =    -0.00000000    0.00000000    0.00000000

     Total force =     0.000099     Total SCF correction =     0.000001


     entering subroutine stress ...

          total   stress  (Ry/bohr**3)                   (kbar)     P=   -5.84
  -0.00004005   0.00000000   0.00000000         -5.89      0.00      0.00
  -0.00000000  -0.00004005   0.00000000         -0.00     -5.89      0.00
   0.00000000   0.00000000  -0.00003898          0.00      0.00     -5.73


     init_run     :     12.79s CPU     13.31s WALL (       2 calls)
     electrons    :   4698.77s CPU   4875.44s WALL (      16 calls)
     update_pot   :     25.92s CPU     26.09s WALL (      14 calls)
     forces       :     47.26s CPU     48.59s WALL (      16 calls)
     stress       :     86.70s CPU     89.31s WALL (      16 calls)

     Called by init_run:
     wfcinit      :      9.87s CPU     10.28s WALL (       2 calls)
     potinit      :      0.80s CPU      0.82s WALL (       2 calls)

     Called by electrons:
     c_bands      :   4091.30s CPU   4217.68s WALL (     336 calls)
     sum_band     :    534.18s CPU    570.48s WALL (     336 calls)
     v_of_rho     :     17.06s CPU     17.58s WALL (     347 calls)
     newd         :     55.31s CPU     69.17s WALL (     347 calls)
     mix_rho      :      2.41s CPU      2.48s WALL (     336 calls)

     Called by c_bands:
     init_us_2    :     62.97s CPU     64.85s WALL (  112960 calls)
     cegterg      :   3944.55s CPU   4067.38s WALL (   53760 calls)

     Called by sum_band:
     sum_band:bec :      4.03s CPU      4.18s WALL (   53760 calls)
     addusdens    :     56.40s CPU     71.88s WALL (     336 calls)

     Called by *egterg:
     h_psi        :   2039.68s CPU   2132.54s WALL (  233013 calls)
     s_psi        :    287.91s CPU    292.12s WALL (  233013 calls)
     g_psi        :     11.08s CPU     11.20s WALL (  178933 calls)
     cdiaghg      :    568.13s CPU    575.43s WALL (  229653 calls)

     Called by h_psi:
     h_psi:pot    :   2012.42s CPU   2104.70s WALL (  233013 calls)
     h_psi:calbec :    360.96s CPU    378.93s WALL (  233013 calls)
     vloc_psi     :   1368.72s CPU   1436.10s WALL (  233013 calls)
     add_vuspsi   :    281.52s CPU    288.65s WALL (  233013 calls)

     General routines
     calbec       :    510.87s CPU    535.68s WALL (  299573 calls)
     fft          :      9.59s CPU      9.95s WALL (    5922 calls)
     ffts         :      0.19s CPU      0.20s WALL (     683 calls)
     fftw         :   1343.44s CPU   1408.47s WALL ( 9940764 calls)
     interpolate  :      1.59s CPU      1.64s WALL (     683 calls)

     Parallel routines
     fft_scatter  :    302.92s CPU    318.82s WALL ( 9947369 calls)

     PWSCF        :     1h21m CPU        1h24m WALL


   This run was terminated on:  16:52:54  26Apr2018            

=------------------------------------------------------------------------------=
   JOB DONE.
=------------------------------------------------------------------------------=
