
     Program PWSCF v.6.3MaX starts on 14Feb2020 at 14:55:19 

     This program is part of the open-source Quantum ESPRESSO suite
     for quantum simulation of materials; please cite
         "P. Giannozzi et al., J. Phys.:Condens. Matter 21 395502 (2009);
         "P. Giannozzi et al., J. Phys.:Condens. Matter 29 465901 (2017);
          URL http://www.quantum-espresso.org", 
     in publications or presentations arising from this work. More details at
     http://www.quantum-espresso.org/quote

     Parallel version (MPI), running on     4 processors

     MPI processes distributed on     1 nodes
     R & G space division:  proc/nbgrp/npool/nimage =       4
     Waiting for input...
     Reading input from standard input

     Current dimensions of program PWSCF are:
     Max number of different atomic species (ntypx) = 10
     Max number of k-points (npk) =  40000
     Max angular momentum in pseudopotentials (lmaxx) =  3
     Message from routine iosys:
     minimal I/O required, wf_collect reset to FALSE

     Subspace diagonalization in iterative solution of the eigenvalue problem:
     a serial algorithm will be used

 
     Parallelization info
     --------------------
     sticks:   dense  smooth     PW     G-vecs:    dense   smooth      PW
     Min         487     195     64                27318     6914    1354
     Max         488     196     66                27322     6917    1355
     Sum        1949     781    259               109279    27659    5417
 


     bravais-lattice index     =            0
     lattice parameter (alat)  =       1.8897  a.u.
     unit-cell volume          =     808.3427 (a.u.)^3
     number of atoms/cell      =            6
     number of atomic types    =            2
     number of electrons       =        73.00
     number of Kohn-Sham states=           44
     kinetic-energy cutoff     =      40.0000  Ry
     charge density cutoff     =     400.0000  Ry
     convergence threshold     =      1.0E-10
     mixing beta               =       0.6000
     number of iterations used =            8  plain     mixing
     Exchange-correlation      = SLA PW PBE PBE ( 1  4  3  4 0 0)
     nstep                     =           50


     celldm(1)=   1.889726  celldm(2)=   0.000000  celldm(3)=   0.000000
     celldm(4)=   0.000000  celldm(5)=   0.000000  celldm(6)=   0.000000

     crystal axes: (cart. coord. in units of alat)
               a(1) = (  -3.045004   0.000000   4.972461 )  
               a(2) = (  -1.522502   2.637051   4.972461 )  
               a(3) = (  -4.567506   2.637051  -4.972461 )  

     reciprocal axes: (cart. coord. in units 2 pi/alat)
               b(1) = ( -0.218938 -0.252808  0.067036 )  
               b(2) = (  0.109469  0.316010  0.067036 )  
               b(3) = ( -0.109469  0.063202 -0.067036 )  


     PseudoPot. # 1 for Nb read from file:
     ./Nb.pbe-nsp-van.UPF
     MD5 check sum: 0a22fc7fb0ba19a08ca5db297a5d2854
     Pseudo is Ultrasoft + core correction, Zval = 13.0
     Generated by new atomic code, or converted to UPF format
     Using radial grid of  887 points,  6 beta functions with: 
                l(1) =   0
                l(2) =   0
                l(3) =   1
                l(4) =   1
                l(5) =   2
                l(6) =   2
     Q(r) pseudized with  6 coefficients,  rinner =    1.000   1.000   1.000
                                                       1.000   1.000

     PseudoPot. # 2 for Ti read from file:
     ./Ti.pbe-sp-van_ak.UPF
     MD5 check sum: f98fea3e8887528921fefa5636a534ca
     Pseudo is Ultrasoft, Zval = 12.0
     Generated by new atomic code, or converted to UPF format
     Using radial grid of  851 points,  6 beta functions with: 
                l(1) =   0
                l(2) =   0
                l(3) =   1
                l(4) =   1
                l(5) =   2
                l(6) =   2
     Q(r) pseudized with  8 coefficients,  rinner =    1.000   1.000   1.000
                                                       1.000   1.000

     atomic species   valence    mass     pseudopotential
        Nb            13.00    92.90638     Nb( 1.00)
        Ti            12.00    47.86700     Ti( 1.00)

      2 Sym. Ops. (no inversion) found



   Cartesian axes

     site n.     atom                  positions (alat units)
         1           Ti  tau(   1) = (  -4.5675063   2.6370512   0.0000000  )
         2           Ti  tau(   2) = (  -6.0900069   3.5160674   2.4862307  )
         3           Ti  tau(   3) = (  -4.5675063   2.6370512   4.9724614  )
         4           Ti  tau(   4) = (  -6.0900069   3.5160674   7.4586921  )
         5           Ti  tau(   5) = (  -9.1350127   5.2741024   4.9724614  )
         6           Nb  tau(   6) = (  -1.5225006   0.8790162   2.4862307  )

     number of k points=   398  Marzari-Vanderbilt smearing, width (Ry)=  0.0200

     Number of k-points >= 100: set verbosity='high' to print them.

     Dense  grid:   109279 G-vectors     FFT dimensions: (  72,  72,  90)

     Smooth grid:    27659 G-vectors     FFT dimensions: (  45,  45,  60)

     Estimated max dynamical RAM per process >     339.22 MB

     Estimated total dynamical RAM >       1.33 GB

     Initial potential from superposition of free atoms

     starting charge   67.99705, renormalised to   73.00000
     Starting wfcs are   63 randomized atomic wfcs

     total cpu time spent up to now is       26.6 secs

     Self-consistent Calculation

     iteration #  1     ecut=    40.00 Ry     beta= 0.60
     Davidson diagonalization with overlap
     ethr =  1.00E-02,  avg # of iterations =  3.9

     total cpu time spent up to now is      102.2 secs

     total energy              =    -691.46899310 Ry
     Harris-Foulkes estimate   =    -703.80063990 Ry
     estimated scf accuracy    <      15.62719512 Ry

     iteration #  2     ecut=    40.00 Ry     beta= 0.60
     Davidson diagonalization with overlap
     ethr =  1.00E-02,  avg # of iterations =  5.7

     total cpu time spent up to now is      199.5 secs

     total energy              =    -694.22387497 Ry
     Harris-Foulkes estimate   =    -727.85316768 Ry
     estimated scf accuracy    <     126.30734509 Ry

     iteration #  3     ecut=    40.00 Ry     beta= 0.60
     Davidson diagonalization with overlap
     ethr =  1.00E-02,  avg # of iterations =  5.7

     total cpu time spent up to now is      287.8 secs

     total energy              =    -698.64471132 Ry
     Harris-Foulkes estimate   =    -705.06987994 Ry
     estimated scf accuracy    <      42.67470623 Ry

     iteration #  4     ecut=    40.00 Ry     beta= 0.60
     Davidson diagonalization with overlap
     ethr =  1.00E-02,  avg # of iterations =  5.8

     total cpu time spent up to now is      358.9 secs

     total energy              =    -699.92921694 Ry
     Harris-Foulkes estimate   =    -702.44528687 Ry
     estimated scf accuracy    <      16.29757515 Ry

     iteration #  5     ecut=    40.00 Ry     beta= 0.60
     Davidson diagonalization with overlap
     ethr =  1.00E-02,  avg # of iterations =  3.4

     total cpu time spent up to now is      411.2 secs

     total energy              =    -700.76038385 Ry
     Harris-Foulkes estimate   =    -701.24955292 Ry
     estimated scf accuracy    <       4.28436360 Ry

     iteration #  6     ecut=    40.00 Ry     beta= 0.60
     Davidson diagonalization with overlap
     ethr =  5.87E-03,  avg # of iterations =  4.5

     total cpu time spent up to now is      470.9 secs

     total energy              =    -700.96421717 Ry
     Harris-Foulkes estimate   =    -701.27515029 Ry
     estimated scf accuracy    <       1.86812392 Ry

     iteration #  7     ecut=    40.00 Ry     beta= 0.60
     Davidson diagonalization with overlap
     ethr =  2.56E-03,  avg # of iterations =  3.3

     total cpu time spent up to now is      522.8 secs

     total energy              =    -701.03612038 Ry
     Harris-Foulkes estimate   =    -701.16695025 Ry
     estimated scf accuracy    <       0.71065379 Ry

     iteration #  8     ecut=    40.00 Ry     beta= 0.60
     Davidson diagonalization with overlap
     ethr =  9.73E-04,  avg # of iterations =  5.0

     total cpu time spent up to now is      586.2 secs

     total energy              =    -701.05223230 Ry
     Harris-Foulkes estimate   =    -701.16003672 Ry
     estimated scf accuracy    <       0.65933801 Ry

     iteration #  9     ecut=    40.00 Ry     beta= 0.60
     Davidson diagonalization with overlap
     ethr =  9.03E-04,  avg # of iterations =  3.9

     total cpu time spent up to now is      640.7 secs

     total energy              =    -701.10912251 Ry
     Harris-Foulkes estimate   =    -701.18473847 Ry
     estimated scf accuracy    <       0.88691150 Ry

     iteration # 10     ecut=    40.00 Ry     beta= 0.60
     Davidson diagonalization with overlap
     ethr =  9.03E-04,  avg # of iterations =  1.0

     total cpu time spent up to now is      685.6 secs

     total energy              =    -701.10621945 Ry
     Harris-Foulkes estimate   =    -701.13169542 Ry
     estimated scf accuracy    <       0.31777240 Ry

     iteration # 11     ecut=    40.00 Ry     beta= 0.60
     Davidson diagonalization with overlap
     ethr =  4.35E-04,  avg # of iterations =  2.5

     total cpu time spent up to now is      734.2 secs

     total energy              =    -701.10822325 Ry
     Harris-Foulkes estimate   =    -701.11806940 Ry
     estimated scf accuracy    <       0.07453977 Ry

     iteration # 12     ecut=    40.00 Ry     beta= 0.60
     Davidson diagonalization with overlap
     ethr =  1.02E-04,  avg # of iterations =  6.9

     total cpu time spent up to now is      814.8 secs

     total energy              =    -701.12016716 Ry
     Harris-Foulkes estimate   =    -701.12486757 Ry
     estimated scf accuracy    <       0.03830362 Ry

     iteration # 13     ecut=    40.00 Ry     beta= 0.60
     Davidson diagonalization with overlap
     ethr =  5.25E-05,  avg # of iterations =  1.4

     total cpu time spent up to now is      860.8 secs

     total energy              =    -701.12133665 Ry
     Harris-Foulkes estimate   =    -701.12186603 Ry
     estimated scf accuracy    <       0.00660039 Ry

     iteration # 14     ecut=    40.00 Ry     beta= 0.60
     Davidson diagonalization with overlap
     c_bands:  1 eigenvalues not converged
     c_bands:  1 eigenvalues not converged
     c_bands:  1 eigenvalues not converged
     c_bands:  1 eigenvalues not converged
     ethr =  9.04E-06,  avg # of iterations =  6.5

     total cpu time spent up to now is      935.4 secs

     total energy              =    -701.12231652 Ry
     Harris-Foulkes estimate   =    -701.12278451 Ry
     estimated scf accuracy    <       0.00490957 Ry

     iteration # 15     ecut=    40.00 Ry     beta= 0.60
     Davidson diagonalization with overlap
     ethr =  6.73E-06,  avg # of iterations =  2.0

     total cpu time spent up to now is      982.8 secs

     total energy              =    -701.12233263 Ry
     Harris-Foulkes estimate   =    -701.12282977 Ry
     estimated scf accuracy    <       0.00375201 Ry

     iteration # 16     ecut=    40.00 Ry     beta= 0.60
     Davidson diagonalization with overlap
     ethr =  5.14E-06,  avg # of iterations =  1.3

     total cpu time spent up to now is     1028.5 secs

     total energy              =    -701.12251253 Ry
     Harris-Foulkes estimate   =    -701.12255117 Ry
     estimated scf accuracy    <       0.00068937 Ry

     iteration # 17     ecut=    40.00 Ry     beta= 0.60
     Davidson diagonalization with overlap
     c_bands:  1 eigenvalues not converged
     ethr =  9.44E-07,  avg # of iterations =  5.6

     total cpu time spent up to now is     1095.1 secs

     total energy              =    -701.12256182 Ry
     Harris-Foulkes estimate   =    -701.12260975 Ry
     estimated scf accuracy    <       0.00063558 Ry

     iteration # 18     ecut=    40.00 Ry     beta= 0.60
     Davidson diagonalization with overlap
     ethr =  8.71E-07,  avg # of iterations =  1.1

     total cpu time spent up to now is     1140.2 secs

     total energy              =    -701.12254435 Ry
     Harris-Foulkes estimate   =    -701.12257406 Ry
     estimated scf accuracy    <       0.00020067 Ry

     iteration # 19     ecut=    40.00 Ry     beta= 0.60
     Davidson diagonalization with overlap
     ethr =  2.75E-07,  avg # of iterations =  4.0

     total cpu time spent up to now is     1200.9 secs

     total energy              =    -701.12257057 Ry
     Harris-Foulkes estimate   =    -701.12258057 Ry
     estimated scf accuracy    <       0.00009688 Ry

     iteration # 20     ecut=    40.00 Ry     beta= 0.60
     Davidson diagonalization with overlap
     ethr =  1.33E-07,  avg # of iterations =  1.1

     total cpu time spent up to now is     1246.2 secs

     total energy              =    -701.12257222 Ry
     Harris-Foulkes estimate   =    -701.12257466 Ry
     estimated scf accuracy    <       0.00002543 Ry

     iteration # 21     ecut=    40.00 Ry     beta= 0.60
     Davidson diagonalization with overlap
     ethr =  3.48E-08,  avg # of iterations =  4.1

     total cpu time spent up to now is     1305.5 secs

     total energy              =    -701.12257474 Ry
     Harris-Foulkes estimate   =    -701.12257505 Ry
     estimated scf accuracy    <       0.00000224 Ry

     iteration # 22     ecut=    40.00 Ry     beta= 0.60
     Davidson diagonalization with overlap
     ethr =  3.07E-09,  avg # of iterations =  5.1

     total cpu time spent up to now is     1373.3 secs

     total energy              =    -701.12257513 Ry
     Harris-Foulkes estimate   =    -701.12257530 Ry
     estimated scf accuracy    <       0.00000186 Ry

     iteration # 23     ecut=    40.00 Ry     beta= 0.60
     Davidson diagonalization with overlap
     ethr =  2.54E-09,  avg # of iterations =  1.6

     total cpu time spent up to now is     1419.7 secs

     total energy              =    -701.12257516 Ry
     Harris-Foulkes estimate   =    -701.12257527 Ry
     estimated scf accuracy    <       0.00000133 Ry

     iteration # 24     ecut=    40.00 Ry     beta= 0.60
     Davidson diagonalization with overlap
     ethr =  1.82E-09,  avg # of iterations =  2.2

     total cpu time spent up to now is     1467.3 secs

     total energy              =    -701.12257518 Ry
     Harris-Foulkes estimate   =    -701.12257521 Ry
     estimated scf accuracy    <       0.00000034 Ry

     iteration # 25     ecut=    40.00 Ry     beta= 0.60
     Davidson diagonalization with overlap
     ethr =  4.61E-10,  avg # of iterations =  4.7

     total cpu time spent up to now is     1528.7 secs

     total energy              =    -701.12257521 Ry
     Harris-Foulkes estimate   =    -701.12257522 Ry
     estimated scf accuracy    <       0.00000015 Ry

     iteration # 26     ecut=    40.00 Ry     beta= 0.60
     Davidson diagonalization with overlap
     ethr =  1.99E-10,  avg # of iterations =  1.6

     total cpu time spent up to now is     1575.3 secs

     total energy              =    -701.12257521 Ry
     Harris-Foulkes estimate   =    -701.12257521 Ry
     estimated scf accuracy    <       0.00000007 Ry

     iteration # 27     ecut=    40.00 Ry     beta= 0.60
     Davidson diagonalization with overlap
     ethr =  9.65E-11,  avg # of iterations =  1.6

     total cpu time spent up to now is     1621.7 secs

     total energy              =    -701.12257520 Ry
     Harris-Foulkes estimate   =    -701.12257521 Ry
     estimated scf accuracy    <       0.00000006 Ry

     iteration # 28     ecut=    40.00 Ry     beta= 0.60
     Davidson diagonalization with overlap
     ethr =  8.50E-11,  avg # of iterations =  4.4

     total cpu time spent up to now is     1681.8 secs

     total energy              =    -701.12257521 Ry
     Harris-Foulkes estimate   =    -701.12257522 Ry
     estimated scf accuracy    <       0.00000004 Ry

     iteration # 29     ecut=    40.00 Ry     beta= 0.60
     Davidson diagonalization with overlap
     ethr =  5.10E-11,  avg # of iterations =  1.1

     total cpu time spent up to now is     1727.0 secs

     total energy              =    -701.12257521 Ry
     Harris-Foulkes estimate   =    -701.12257521 Ry
     estimated scf accuracy    <       0.00000001 Ry

     iteration # 30     ecut=    40.00 Ry     beta= 0.60
     Davidson diagonalization with overlap
     ethr =  1.61E-11,  avg # of iterations =  4.3

     total cpu time spent up to now is     1789.2 secs

     total energy              =    -701.12257521 Ry
     Harris-Foulkes estimate   =    -701.12257521 Ry
     estimated scf accuracy    <          1.9E-09 Ry

     iteration # 31     ecut=    40.00 Ry     beta= 0.60
     Davidson diagonalization with overlap
     ethr =  2.61E-12,  avg # of iterations =  3.0

     total cpu time spent up to now is     1841.5 secs

     total energy              =    -701.12257521 Ry
     Harris-Foulkes estimate   =    -701.12257521 Ry
     estimated scf accuracy    <          8.4E-10 Ry

     iteration # 32     ecut=    40.00 Ry     beta= 0.60
     Davidson diagonalization with overlap
     ethr =  1.15E-12,  avg # of iterations =  3.7

     total cpu time spent up to now is     1897.3 secs

     End of self-consistent calculation

     Number of k-points >= 100: set verbosity='high' to print the bands.

     the Fermi energy is    12.1369 ev

!    total energy              =    -701.12257521 Ry
     Harris-Foulkes estimate   =    -701.12257521 Ry
     estimated scf accuracy    <          9.1E-12 Ry

     The total energy is the sum of the following terms:

     one-electron contribution =    -258.03655791 Ry
     hartree contribution      =     147.87734990 Ry
     xc contribution           =     -90.43232501 Ry
     ewald contribution        =    -500.52833671 Ry
     smearing contrib. (-TS)   =      -0.00270548 Ry

     convergence has been achieved in  32 iterations

     Forces acting on atoms (cartesian axes, Ry/au):

     atom    1 type  2   force =     0.00002371   -0.00001369    0.00355524
     atom    2 type  2   force =    -0.00111251    0.00064231    0.00038734
     atom    3 type  2   force =    -0.00034453    0.00019892   -0.00542315
     atom    4 type  2   force =     0.00106449   -0.00061459   -0.00020187
     atom    5 type  2   force =    -0.00043088    0.00024877    0.00254387
     atom    6 type  1   force =     0.00079972   -0.00046172   -0.00086142

     Total force =     0.007340     Total SCF correction =     0.000014


     Computing stress (Cartesian axis) and pressure

          total   stress  (Ry/bohr**3)                   (kbar)     P= -133.35
  -0.00086832  -0.00001243  -0.00000200       -127.73     -1.83     -0.29
  -0.00001243  -0.00088268   0.00000115         -1.83   -129.85      0.17
  -0.00000200   0.00000115  -0.00096856         -0.29      0.17   -142.48


     BFGS Geometry Optimization

     number of scf cycles    =   1
     number of bfgs steps    =   0

     enthalpy new            =    -701.1225752142 Ry

     new trust radius        =       0.1376874953 bohr
     new conv_thr            =            1.0E-10 Ry

     new unit-cell volume =    754.61905 a.u.^3 (   111.82300 Ang^3 )
     density =      4.93369 g/cm^3

CELL_PARAMETERS (alat=  1.88972599)
  -2.979151212   0.001089728   4.852210046
  -1.490519338   2.579475953   4.852210046
  -4.468926243   2.580135955  -4.851754253

ATOMIC_POSITIONS (angstrom)
Ti      -4.469162163   2.580272163   0.002139656
Ti      -5.959597738   3.440775606   2.426634253
Ti      -4.469600699   2.580525352   4.849561671
Ti      -5.958718606   3.440268039   7.278388049
Ti      -8.938819962   5.160830482   4.853979415
Nb      -1.489433237   0.859924743   2.425685510


     NEW-OLD atomic charge density approx. for the potential
     extrapolated charge   68.15908, renormalised to   73.00000

     total cpu time spent up to now is     1915.7 secs

     Self-consistent Calculation

     iteration #  1     ecut=    40.00 Ry     beta= 0.60
     Davidson diagonalization with overlap
     c_bands:  3 eigenvalues not converged
     c_bands:  4 eigenvalues not converged
     c_bands:  3 eigenvalues not converged
     c_bands:  3 eigenvalues not converged
     c_bands:  3 eigenvalues not converged
     c_bands:  1 eigenvalues not converged
     c_bands:  1 eigenvalues not converged
     c_bands:  1 eigenvalues not converged
     c_bands:  1 eigenvalues not converged
     c_bands:  4 eigenvalues not converged
     c_bands:  5 eigenvalues not converged
     c_bands:  4 eigenvalues not converged
     c_bands:  4 eigenvalues not converged
     c_bands:  4 eigenvalues not converged
     c_bands:  3 eigenvalues not converged
     c_bands:  2 eigenvalues not converged
     c_bands:  2 eigenvalues not converged
     c_bands:  5 eigenvalues not converged
     c_bands:  3 eigenvalues not converged
     c_bands:  1 eigenvalues not converged
     c_bands:  1 eigenvalues not converged
     c_bands:  2 eigenvalues not converged
     c_bands:  1 eigenvalues not converged
     c_bands:  2 eigenvalues not converged
     c_bands:  1 eigenvalues not converged
     c_bands:  5 eigenvalues not converged
     c_bands:  4 eigenvalues not converged
     c_bands:  1 eigenvalues not converged
     c_bands:  4 eigenvalues not converged
     c_bands:  5 eigenvalues not converged
     c_bands:  3 eigenvalues not converged
     c_bands:  1 eigenvalues not converged
     c_bands:  1 eigenvalues not converged
     c_bands:  2 eigenvalues not converged
     c_bands:  1 eigenvalues not converged
     c_bands:  1 eigenvalues not converged
     c_bands:  1 eigenvalues not converged
     c_bands:  1 eigenvalues not converged
     c_bands:  1 eigenvalues not converged
     c_bands:  1 eigenvalues not converged
     c_bands:  4 eigenvalues not converged
     c_bands:  3 eigenvalues not converged
     c_bands:  3 eigenvalues not converged
     c_bands:  4 eigenvalues not converged
     c_bands:  1 eigenvalues not converged
     c_bands:  3 eigenvalues not converged
     c_bands:  1 eigenvalues not converged
     c_bands:  1 eigenvalues not converged
     c_bands:  1 eigenvalues not converged
     c_bands:  2 eigenvalues not converged
     c_bands:  1 eigenvalues not converged
     c_bands:  3 eigenvalues not converged
     c_bands:  3 eigenvalues not converged
     c_bands:  2 eigenvalues not converged
     c_bands:  1 eigenvalues not converged
     c_bands:  3 eigenvalues not converged
     c_bands:  1 eigenvalues not converged
     c_bands:  2 eigenvalues not converged
     c_bands:  1 eigenvalues not converged
     c_bands:  1 eigenvalues not converged
     c_bands:  2 eigenvalues not converged
     c_bands:  1 eigenvalues not converged
     c_bands:  2 eigenvalues not converged
     c_bands:  3 eigenvalues not converged
     c_bands:  1 eigenvalues not converged
     c_bands:  1 eigenvalues not converged
     c_bands:  1 eigenvalues not converged
     c_bands:  3 eigenvalues not converged
     c_bands:  1 eigenvalues not converged
     c_bands:  2 eigenvalues not converged
     c_bands:  2 eigenvalues not converged
     c_bands:  3 eigenvalues not converged
     c_bands:  3 eigenvalues not converged
     c_bands:  2 eigenvalues not converged
     c_bands:  1 eigenvalues not converged
     c_bands:  1 eigenvalues not converged
     ethr =  1.00E-06,  avg # of iterations = 15.9

     total cpu time spent up to now is     2104.7 secs

     total energy              =    -695.63345342 Ry
     Harris-Foulkes estimate   =    -713.33743851 Ry
     estimated scf accuracy    <       5.50229646 Ry

     iteration #  2     ecut=    40.00 Ry     beta= 0.60
     Davidson diagonalization with overlap
     ethr =  7.54E-03,  avg # of iterations =  5.1

     total cpu time spent up to now is     2198.3 secs

     total energy              =    -699.02603646 Ry
     Harris-Foulkes estimate   =    -708.36307109 Ry
     estimated scf accuracy    <      33.75067859 Ry

     iteration #  3     ecut=    40.00 Ry     beta= 0.60
     Davidson diagonalization with overlap
     ethr =  7.54E-03,  avg # of iterations =  4.3

     total cpu time spent up to now is     2262.9 secs

     total energy              =    -700.48122472 Ry
     Harris-Foulkes estimate   =    -702.94119138 Ry
     estimated scf accuracy    <       9.93464455 Ry

     iteration #  4     ecut=    40.00 Ry     beta= 0.60
     Davidson diagonalization with overlap
     ethr =  7.54E-03,  avg # of iterations =  3.8

     total cpu time spent up to now is     2321.7 secs

     total energy              =    -701.24406372 Ry
     Harris-Foulkes estimate   =    -702.05634364 Ry
     estimated scf accuracy    <       5.91543301 Ry

     iteration #  5     ecut=    40.00 Ry     beta= 0.60
     Davidson diagonalization with overlap
     ethr =  7.54E-03,  avg # of iterations =  1.0

     total cpu time spent up to now is     2366.6 secs

     total energy              =    -701.36649012 Ry
     Harris-Foulkes estimate   =    -701.54257739 Ry
     estimated scf accuracy    <       2.15486756 Ry

     iteration #  6     ecut=    40.00 Ry     beta= 0.60
     Davidson diagonalization with overlap
     ethr =  2.95E-03,  avg # of iterations =  1.0

     total cpu time spent up to now is     2411.6 secs

     total energy              =    -701.31973468 Ry
     Harris-Foulkes estimate   =    -701.41326724 Ry
     estimated scf accuracy    <       1.60116471 Ry

     iteration #  7     ecut=    40.00 Ry     beta= 0.60
     Davidson diagonalization with overlap
     ethr =  2.19E-03,  avg # of iterations =  1.0

     total cpu time spent up to now is     2456.5 secs

     total energy              =    -701.23978632 Ry
     Harris-Foulkes estimate   =    -701.33896931 Ry
     estimated scf accuracy    <       1.15756199 Ry

     iteration #  8     ecut=    40.00 Ry     beta= 0.60
     Davidson diagonalization with overlap
     ethr =  1.59E-03,  avg # of iterations =  1.0

     total cpu time spent up to now is     2501.5 secs

     total energy              =    -701.21782663 Ry
     Harris-Foulkes estimate   =    -701.25895651 Ry
     estimated scf accuracy    <       0.71051967 Ry

     iteration #  9     ecut=    40.00 Ry     beta= 0.60
     Davidson diagonalization with overlap
     ethr =  9.73E-04,  avg # of iterations =  1.1

     total cpu time spent up to now is     2546.6 secs

     total energy              =    -701.16069426 Ry
     Harris-Foulkes estimate   =    -701.22816223 Ry
     estimated scf accuracy    <       0.53118200 Ry

     iteration # 10     ecut=    40.00 Ry     beta= 0.60
     Davidson diagonalization with overlap
     ethr =  7.28E-04,  avg # of iterations =  2.6

     total cpu time spent up to now is     2595.8 secs

     total energy              =    -701.08190184 Ry
     Harris-Foulkes estimate   =    -701.17747305 Ry
     estimated scf accuracy    <       0.23107378 Ry

     iteration # 11     ecut=    40.00 Ry     beta= 0.60
     Davidson diagonalization with overlap
     ethr =  3.17E-04,  avg # of iterations =  5.6

     total cpu time spent up to now is     2677.0 secs

     total energy              =    -701.17098025 Ry
     Harris-Foulkes estimate   =    -701.18084914 Ry
     estimated scf accuracy    <       0.29107373 Ry

     iteration # 12     ecut=    40.00 Ry     beta= 0.60
     Davidson diagonalization with overlap
     ethr =  3.17E-04,  avg # of iterations =  1.0

     total cpu time spent up to now is     2722.0 secs

     total energy              =    -701.16250490 Ry
     Harris-Foulkes estimate   =    -701.17246726 Ry
     estimated scf accuracy    <       0.19418370 Ry

     iteration # 13     ecut=    40.00 Ry     beta= 0.60
     Davidson diagonalization with overlap
     ethr =  2.66E-04,  avg # of iterations =  1.0

     total cpu time spent up to now is     2766.9 secs

     total energy              =    -701.16273209 Ry
     Harris-Foulkes estimate   =    -701.16746262 Ry
     estimated scf accuracy    <       0.15830480 Ry

     iteration # 14     ecut=    40.00 Ry     beta= 0.60
     Davidson diagonalization with overlap
     ethr =  2.17E-04,  avg # of iterations =  1.0

     total cpu time spent up to now is     2811.8 secs

     total energy              =    -701.16205889 Ry
     Harris-Foulkes estimate   =    -701.16478774 Ry
     estimated scf accuracy    <       0.10620246 Ry

     iteration # 15     ecut=    40.00 Ry     beta= 0.60
     Davidson diagonalization with overlap
     ethr =  1.45E-04,  avg # of iterations =  1.0

     total cpu time spent up to now is     2856.7 secs

     total energy              =    -701.16308242 Ry
     Harris-Foulkes estimate   =    -701.16281975 Ry
     estimated scf accuracy    <       0.06976313 Ry

     iteration # 16     ecut=    40.00 Ry     beta= 0.60
     Davidson diagonalization with overlap
     ethr =  9.56E-05,  avg # of iterations =  1.1

     total cpu time spent up to now is     2901.8 secs

     total energy              =    -701.15975262 Ry
     Harris-Foulkes estimate   =    -701.16391946 Ry
     estimated scf accuracy    <       0.07368022 Ry

     iteration # 17     ecut=    40.00 Ry     beta= 0.60
     Davidson diagonalization with overlap
     ethr =  9.56E-05,  avg # of iterations =  1.1

     total cpu time spent up to now is     2947.0 secs

     total energy              =    -701.15818513 Ry
     Harris-Foulkes estimate   =    -701.16133661 Ry
     estimated scf accuracy    <       0.02926168 Ry

     iteration # 18     ecut=    40.00 Ry     beta= 0.60
     Davidson diagonalization with overlap
     c_bands:  2 eigenvalues not converged
     ethr =  4.01E-05,  avg # of iterations =  5.1

     total cpu time spent up to now is     3005.9 secs

     total energy              =    -701.16013800 Ry
     Harris-Foulkes estimate   =    -701.16048036 Ry
     estimated scf accuracy    <       0.00206263 Ry

     iteration # 19     ecut=    40.00 Ry     beta= 0.60
     Davidson diagonalization with overlap
     c_bands:  1 eigenvalues not converged
     c_bands:  1 eigenvalues not converged
     ethr =  2.83E-06,  avg # of iterations =  8.2

     total cpu time spent up to now is     3102.8 secs

     total energy              =    -701.16089722 Ry
     Harris-Foulkes estimate   =    -701.16110206 Ry
     estimated scf accuracy    <       0.00296694 Ry

     iteration # 20     ecut=    40.00 Ry     beta= 0.60
     Davidson diagonalization with overlap
     ethr =  2.83E-06,  avg # of iterations =  1.0

     total cpu time spent up to now is     3147.4 secs

     total energy              =    -701.16081900 Ry
     Harris-Foulkes estimate   =    -701.16096133 Ry
     estimated scf accuracy    <       0.00116702 Ry

     iteration # 21     ecut=    40.00 Ry     beta= 0.60
     Davidson diagonalization with overlap
     ethr =  1.60E-06,  avg # of iterations =  3.8

     total cpu time spent up to now is     3204.5 secs

     total energy              =    -701.16090744 Ry
     Harris-Foulkes estimate   =    -701.16094784 Ry
     estimated scf accuracy    <       0.00042426 Ry

     iteration # 22     ecut=    40.00 Ry     beta= 0.60
     Davidson diagonalization with overlap
     ethr =  5.81E-07,  avg # of iterations =  1.9

     total cpu time spent up to now is     3251.6 secs

     total energy              =    -701.16091291 Ry
     Harris-Foulkes estimate   =    -701.16092959 Ry
     estimated scf accuracy    <       0.00018038 Ry

     iteration # 23     ecut=    40.00 Ry     beta= 0.60
     Davidson diagonalization with overlap
     ethr =  2.47E-07,  avg # of iterations =  3.6

     total cpu time spent up to now is     3306.6 secs

     total energy              =    -701.16092224 Ry
     Harris-Foulkes estimate   =    -701.16092678 Ry
     estimated scf accuracy    <       0.00002692 Ry

     iteration # 24     ecut=    40.00 Ry     beta= 0.60
     Davidson diagonalization with overlap
     ethr =  3.69E-08,  avg # of iterations =  4.5

     total cpu time spent up to now is     3371.7 secs

     total energy              =    -701.16092693 Ry
     Harris-Foulkes estimate   =    -701.16092837 Ry
     estimated scf accuracy    <       0.00001087 Ry

     iteration # 25     ecut=    40.00 Ry     beta= 0.60
     Davidson diagonalization with overlap
     ethr =  1.49E-08,  avg # of iterations =  1.6

     total cpu time spent up to now is     3418.2 secs

     total energy              =    -701.16092722 Ry
     Harris-Foulkes estimate   =    -701.16092747 Ry
     estimated scf accuracy    <       0.00000279 Ry

     iteration # 26     ecut=    40.00 Ry     beta= 0.60
     Davidson diagonalization with overlap
     ethr =  3.83E-09,  avg # of iterations =  4.3

     total cpu time spent up to now is     3481.0 secs

     total energy              =    -701.16092743 Ry
     Harris-Foulkes estimate   =    -701.16092772 Ry
     estimated scf accuracy    <       0.00000233 Ry

     iteration # 27     ecut=    40.00 Ry     beta= 0.60
     Davidson diagonalization with overlap
     ethr =  3.19E-09,  avg # of iterations =  1.3

     total cpu time spent up to now is     3526.5 secs

     total energy              =    -701.16092754 Ry
     Harris-Foulkes estimate   =    -701.16092762 Ry
     estimated scf accuracy    <       0.00000055 Ry

     iteration # 28     ecut=    40.00 Ry     beta= 0.60
     Davidson diagonalization with overlap
     ethr =  7.56E-10,  avg # of iterations =  4.4

     total cpu time spent up to now is     3590.0 secs

     total energy              =    -701.16092761 Ry
     Harris-Foulkes estimate   =    -701.16092764 Ry
     estimated scf accuracy    <       0.00000032 Ry

     iteration # 29     ecut=    40.00 Ry     beta= 0.60
     Davidson diagonalization with overlap
     ethr =  4.41E-10,  avg # of iterations =  1.0

     total cpu time spent up to now is     3635.0 secs

     total energy              =    -701.16092761 Ry
     Harris-Foulkes estimate   =    -701.16092762 Ry
     estimated scf accuracy    <       0.00000007 Ry

     iteration # 30     ecut=    40.00 Ry     beta= 0.60
     Davidson diagonalization with overlap
     ethr =  8.95E-11,  avg # of iterations =  4.2

     total cpu time spent up to now is     3697.5 secs

     total energy              =    -701.16092762 Ry
     Harris-Foulkes estimate   =    -701.16092762 Ry
     estimated scf accuracy    <       0.00000001 Ry

     iteration # 31     ecut=    40.00 Ry     beta= 0.60
     Davidson diagonalization with overlap
     ethr =  1.59E-11,  avg # of iterations =  4.5

     total cpu time spent up to now is     3760.2 secs

     total energy              =    -701.16092762 Ry
     Harris-Foulkes estimate   =    -701.16092762 Ry
     estimated scf accuracy    <       0.00000002 Ry

     iteration # 32     ecut=    40.00 Ry     beta= 0.60
     Davidson diagonalization with overlap
     ethr =  1.59E-11,  avg # of iterations =  1.0

     total cpu time spent up to now is     3805.1 secs

     total energy              =    -701.16092762 Ry
     Harris-Foulkes estimate   =    -701.16092762 Ry
     estimated scf accuracy    <          4.9E-09 Ry

     iteration # 33     ecut=    40.00 Ry     beta= 0.60
     Davidson diagonalization with overlap
     ethr =  6.69E-12,  avg # of iterations =  4.0

     total cpu time spent up to now is     3865.5 secs

     total energy              =    -701.16092762 Ry
     Harris-Foulkes estimate   =    -701.16092762 Ry
     estimated scf accuracy    <          7.9E-10 Ry

     iteration # 34     ecut=    40.00 Ry     beta= 0.60
     Davidson diagonalization with overlap
     ethr =  1.08E-12,  avg # of iterations =  3.6

     total cpu time spent up to now is     3920.3 secs

     total energy              =    -701.16092762 Ry
     Harris-Foulkes estimate   =    -701.16092762 Ry
     estimated scf accuracy    <          3.1E-10 Ry

     iteration # 35     ecut=    40.00 Ry     beta= 0.60
     Davidson diagonalization with overlap
     ethr =  4.22E-13,  avg # of iterations =  2.7

     total cpu time spent up to now is     3970.1 secs

     End of self-consistent calculation

     Number of k-points >= 100: set verbosity='high' to print the bands.

     the Fermi energy is    13.1897 ev

!    total energy              =    -701.16092762 Ry
     Harris-Foulkes estimate   =    -701.16092762 Ry
     estimated scf accuracy    <          7.5E-11 Ry

     The total energy is the sum of the following terms:

     one-electron contribution =    -240.65905492 Ry
     hartree contribution      =     142.37882274 Ry
     xc contribution           =     -90.73909473 Ry
     ewald contribution        =    -512.13845894 Ry
     smearing contrib. (-TS)   =      -0.00314177 Ry

     convergence has been achieved in  35 iterations

     Forces acting on atoms (cartesian axes, Ry/au):

     atom    1 type  2   force =     0.00078026   -0.00045048    0.00482274
     atom    2 type  2   force =     0.00131453   -0.00075894    0.00060856
     atom    3 type  2   force =    -0.00131966    0.00076190   -0.00814178
     atom    4 type  2   force =    -0.00085469    0.00049345   -0.00017837
     atom    5 type  2   force =    -0.00056465    0.00032600    0.00388885
     atom    6 type  1   force =     0.00064420   -0.00037193   -0.00100000

     Total force =     0.010652     Total SCF correction =     0.000027


     Computing stress (Cartesian axis) and pressure

          total   stress  (Ry/bohr**3)                   (kbar)     P=  -72.33
  -0.00045971  -0.00001008  -0.00000213        -67.63     -1.48     -0.31
  -0.00001008  -0.00047134   0.00000123         -1.48    -69.34      0.18
  -0.00000213   0.00000123  -0.00054394         -0.31      0.18    -80.02


     number of scf cycles    =   2
     number of bfgs steps    =   1

     enthalpy old            =    -701.1225752142 Ry
     enthalpy new            =    -701.1609276233 Ry

     CASE: enthalpy_new < enthalpy_old

     new trust radius        =       0.1532346179 bohr
     new conv_thr            =            1.0E-10 Ry

     new unit-cell volume =    699.12135 a.u.^3 (   103.59909 Ang^3 )
     density =      5.32533 g/cm^3

CELL_PARAMETERS (alat=  1.88972599)
  -2.909805147   0.002949865   4.717210168
  -1.457457231   2.518490435   4.717210168
  -4.364914834   2.520084944  -4.715773164

ATOMIC_POSITIONS (angstrom)
Ti      -4.364882706   2.520066395   0.007669910
Ti      -5.820531051   3.360485423   2.360458702
Ti      -4.368012527   2.521873398   4.706650224
Ti      -5.822441389   3.361588357   7.076090458
Ti      -8.732979186   5.041988263   4.723896801
Nb      -1.454551531   0.839785781   2.357230172


     NEW-OLD atomic charge density approx. for the potential
     extrapolated charge   67.60225, renormalised to   73.00000

     total cpu time spent up to now is     3988.7 secs

     Self-consistent Calculation

     iteration #  1     ecut=    40.00 Ry     beta= 0.60
     Davidson diagonalization with overlap
     c_bands:  3 eigenvalues not converged
     c_bands:  4 eigenvalues not converged
     c_bands:  5 eigenvalues not converged
     c_bands:  4 eigenvalues not converged
     c_bands:  3 eigenvalues not converged
     c_bands:  3 eigenvalues not converged
     c_bands:  1 eigenvalues not converged
     c_bands:  1 eigenvalues not converged
     c_bands:  4 eigenvalues not converged
     c_bands:  5 eigenvalues not converged
     c_bands:  4 eigenvalues not converged
     c_bands:  3 eigenvalues not converged
     c_bands:  4 eigenvalues not converged
     c_bands:  3 eigenvalues not converged
     c_bands:  2 eigenvalues not converged
     c_bands:  4 eigenvalues not converged
     c_bands:  2 eigenvalues not converged
     c_bands:  3 eigenvalues not converged
     c_bands:  1 eigenvalues not converged
     c_bands:  2 eigenvalues not converged
     c_bands:  1 eigenvalues not converged
     c_bands:  2 eigenvalues not converged
     c_bands:  1 eigenvalues not converged
     c_bands:  1 eigenvalues not converged
     c_bands:  4 eigenvalues not converged
     c_bands:  3 eigenvalues not converged
     c_bands:  3 eigenvalues not converged
     c_bands:  3 eigenvalues not converged
     c_bands:  4 eigenvalues not converged
     c_bands:  1 eigenvalues not converged
     c_bands:  3 eigenvalues not converged
     c_bands:  2 eigenvalues not converged
     c_bands:  2 eigenvalues not converged
     c_bands:  4 eigenvalues not converged
     c_bands:  1 eigenvalues not converged
     c_bands:  2 eigenvalues not converged
     c_bands:  2 eigenvalues not converged
     c_bands:  4 eigenvalues not converged
     c_bands:  4 eigenvalues not converged
     c_bands:  5 eigenvalues not converged
     c_bands:  4 eigenvalues not converged
     c_bands:  5 eigenvalues not converged
     c_bands:  3 eigenvalues not converged
     c_bands:  1 eigenvalues not converged
     c_bands:  1 eigenvalues not converged
     c_bands:  1 eigenvalues not converged
     c_bands:  1 eigenvalues not converged
     c_bands:  2 eigenvalues not converged
     c_bands:  3 eigenvalues not converged
     c_bands:  3 eigenvalues not converged
     c_bands:  2 eigenvalues not converged
     c_bands:  3 eigenvalues not converged
     c_bands:  1 eigenvalues not converged
     c_bands:  1 eigenvalues not converged
     c_bands:  1 eigenvalues not converged
     c_bands:  3 eigenvalues not converged
     c_bands:  1 eigenvalues not converged
     c_bands:  2 eigenvalues not converged
     c_bands:  4 eigenvalues not converged
     c_bands:  3 eigenvalues not converged
     c_bands:  2 eigenvalues not converged
     c_bands:  1 eigenvalues not converged
     c_bands:  2 eigenvalues not converged
     c_bands:  2 eigenvalues not converged
     c_bands:  1 eigenvalues not converged
     c_bands:  4 eigenvalues not converged
     c_bands:  3 eigenvalues not converged
     c_bands:  1 eigenvalues not converged
     c_bands:  4 eigenvalues not converged
     c_bands:  2 eigenvalues not converged
     c_bands:  4 eigenvalues not converged
     c_bands:  1 eigenvalues not converged
     c_bands:  3 eigenvalues not converged
     c_bands:  1 eigenvalues not converged
     ethr =  1.00E-06,  avg # of iterations = 15.6

     total cpu time spent up to now is     4176.2 secs

     total energy              =    -695.17330474 Ry
     Harris-Foulkes estimate   =    -713.79199217 Ry
     estimated scf accuracy    <       5.90654893 Ry

     iteration #  2     ecut=    40.00 Ry     beta= 0.60
     Davidson diagonalization with overlap
     ethr =  8.09E-03,  avg # of iterations =  5.0

     total cpu time spent up to now is     4267.5 secs

     total energy              =    -698.90444290 Ry
     Harris-Foulkes estimate   =    -708.63582842 Ry
     estimated scf accuracy    <      34.53785366 Ry

     iteration #  3     ecut=    40.00 Ry     beta= 0.60
     Davidson diagonalization with overlap
     ethr =  8.09E-03,  avg # of iterations =  4.2

     total cpu time spent up to now is     4331.6 secs

     total energy              =    -700.54297296 Ry
     Harris-Foulkes estimate   =    -702.91316335 Ry
     estimated scf accuracy    <       9.09830451 Ry

     iteration #  4     ecut=    40.00 Ry     beta= 0.60
     Davidson diagonalization with overlap
     ethr =  8.09E-03,  avg # of iterations =  3.7

     total cpu time spent up to now is     4389.5 secs

     total energy              =    -701.25831303 Ry
     Harris-Foulkes estimate   =    -702.06992224 Ry
     estimated scf accuracy    <       5.94132618 Ry

     iteration #  5     ecut=    40.00 Ry     beta= 0.60
     Davidson diagonalization with overlap
     ethr =  8.09E-03,  avg # of iterations =  1.0

     total cpu time spent up to now is     4435.0 secs

     total energy              =    -701.37689392 Ry
     Harris-Foulkes estimate   =    -701.56325122 Ry
     estimated scf accuracy    <       2.10002121 Ry

     iteration #  6     ecut=    40.00 Ry     beta= 0.60
     Davidson diagonalization with overlap
     ethr =  2.88E-03,  avg # of iterations =  1.0

     total cpu time spent up to now is     4479.8 secs

     total energy              =    -701.33295596 Ry
     Harris-Foulkes estimate   =    -701.42108202 Ry
     estimated scf accuracy    <       1.51044486 Ry

     iteration #  7     ecut=    40.00 Ry     beta= 0.60
     Davidson diagonalization with overlap
     ethr =  2.07E-03,  avg # of iterations =  1.0

     total cpu time spent up to now is     4524.6 secs

     total energy              =    -701.23747744 Ry
     Harris-Foulkes estimate   =    -701.35144128 Ry
     estimated scf accuracy    <       1.09679971 Ry

     iteration #  8     ecut=    40.00 Ry     beta= 0.60
     Davidson diagonalization with overlap
     ethr =  1.50E-03,  avg # of iterations =  1.0

     total cpu time spent up to now is     4569.4 secs

     total energy              =    -701.22189523 Ry
     Harris-Foulkes estimate   =    -701.25865845 Ry
     estimated scf accuracy    <       0.60844504 Ry

     iteration #  9     ecut=    40.00 Ry     beta= 0.60
     Davidson diagonalization with overlap
     ethr =  8.33E-04,  avg # of iterations =  1.5

     total cpu time spent up to now is     4615.6 secs

     total energy              =    -701.17842897 Ry
     Harris-Foulkes estimate   =    -701.23258359 Ry
     estimated scf accuracy    <       0.45152940 Ry

     iteration # 10     ecut=    40.00 Ry     beta= 0.60
     Davidson diagonalization with overlap
     ethr =  6.19E-04,  avg # of iterations =  2.5

     total cpu time spent up to now is     4664.2 secs

     total energy              =    -701.09462534 Ry
     Harris-Foulkes estimate   =    -701.19159570 Ry
     estimated scf accuracy    <       0.22078130 Ry

     iteration # 11     ecut=    40.00 Ry     beta= 0.60
     Davidson diagonalization with overlap
     ethr =  3.02E-04,  avg # of iterations =  5.6

     total cpu time spent up to now is     4745.2 secs

     total energy              =    -701.17849198 Ry
     Harris-Foulkes estimate   =    -701.19419314 Ry
     estimated scf accuracy    <       0.28216071 Ry

     iteration # 12     ecut=    40.00 Ry     beta= 0.60
     Davidson diagonalization with overlap
     ethr =  3.02E-04,  avg # of iterations =  1.0

     total cpu time spent up to now is     4790.1 secs

     total energy              =    -701.16088707 Ry
     Harris-Foulkes estimate   =    -701.18115735 Ry
     estimated scf accuracy    <       0.14712370 Ry

     iteration # 13     ecut=    40.00 Ry     beta= 0.60
     Davidson diagonalization with overlap
     ethr =  2.02E-04,  avg # of iterations =  2.9

     total cpu time spent up to now is     4843.6 secs

     total energy              =    -701.17061843 Ry
     Harris-Foulkes estimate   =    -701.17443510 Ry
     estimated scf accuracy    <       0.04384796 Ry

     iteration # 14     ecut=    40.00 Ry     beta= 0.60
     Davidson diagonalization with overlap
     ethr =  6.01E-05,  avg # of iterations =  2.6

     total cpu time spent up to now is     4892.7 secs

     total energy              =    -701.17168463 Ry
     Harris-Foulkes estimate   =    -701.17322443 Ry
     estimated scf accuracy    <       0.01769806 Ry

     iteration # 15     ecut=    40.00 Ry     beta= 0.60
     Davidson diagonalization with overlap
     c_bands:  1 eigenvalues not converged
     c_bands:  1 eigenvalues not converged
     ethr =  2.42E-05,  avg # of iterations =  5.4

     total cpu time spent up to now is     4951.5 secs

     total energy              =    -701.17280598 Ry
     Harris-Foulkes estimate   =    -701.17275106 Ry
     estimated scf accuracy    <       0.00172675 Ry

     iteration # 16     ecut=    40.00 Ry     beta= 0.60
     Davidson diagonalization with overlap
     c_bands:  1 eigenvalues not converged
     ethr =  2.37E-06,  avg # of iterations =  8.6

     total cpu time spent up to now is     5041.7 secs

     total energy              =    -701.17250615 Ry
     Harris-Foulkes estimate   =    -701.17315024 Ry
     estimated scf accuracy    <       0.00280618 Ry

     iteration # 17     ecut=    40.00 Ry     beta= 0.60
     Davidson diagonalization with overlap
     ethr =  2.37E-06,  avg # of iterations =  4.4

     total cpu time spent up to now is     5105.3 secs

     total energy              =    -701.17284020 Ry
     Harris-Foulkes estimate   =    -701.17298852 Ry
     estimated scf accuracy    <       0.00087578 Ry

     iteration # 18     ecut=    40.00 Ry     beta= 0.60
     Davidson diagonalization with overlap
     ethr =  1.20E-06,  avg # of iterations =  2.0

     total cpu time spent up to now is     5152.4 secs

     total energy              =    -701.17287785 Ry
     Harris-Foulkes estimate   =    -701.17289942 Ry
     estimated scf accuracy    <       0.00015876 Ry

     iteration # 19     ecut=    40.00 Ry     beta= 0.60
     Davidson diagonalization with overlap
     ethr =  2.17E-07,  avg # of iterations =  4.3

     total cpu time spent up to now is     5216.8 secs

     total energy              =    -701.17290991 Ry
     Harris-Foulkes estimate   =    -701.17292082 Ry
     estimated scf accuracy    <       0.00010050 Ry

     iteration # 20     ecut=    40.00 Ry     beta= 0.60
     Davidson diagonalization with overlap
     ethr =  1.38E-07,  avg # of iterations =  1.0

     total cpu time spent up to now is     5261.6 secs

     total energy              =    -701.17291182 Ry
     Harris-Foulkes estimate   =    -701.17291499 Ry
     estimated scf accuracy    <       0.00002531 Ry

     iteration # 21     ecut=    40.00 Ry     beta= 0.60
     Davidson diagonalization with overlap
     ethr =  3.47E-08,  avg # of iterations =  4.2

     total cpu time spent up to now is     5321.0 secs

     total energy              =    -701.17291386 Ry
     Harris-Foulkes estimate   =    -701.17291545 Ry
     estimated scf accuracy    <       0.00000833 Ry

     iteration # 22     ecut=    40.00 Ry     beta= 0.60
     Davidson diagonalization with overlap
     ethr =  1.14E-08,  avg # of iterations =  4.2

     total cpu time spent up to now is     5383.2 secs

     total energy              =    -701.17291461 Ry
     Harris-Foulkes estimate   =    -701.17291586 Ry
     estimated scf accuracy    <       0.00001163 Ry

     iteration # 23     ecut=    40.00 Ry     beta= 0.60
     Davidson diagonalization with overlap
     ethr =  1.14E-08,  avg # of iterations =  1.0

     total cpu time spent up to now is     5428.1 secs

     total energy              =    -701.17291477 Ry
     Harris-Foulkes estimate   =    -701.17291504 Ry
     estimated scf accuracy    <       0.00000217 Ry

     iteration # 24     ecut=    40.00 Ry     beta= 0.60
     Davidson diagonalization with overlap
     ethr =  2.97E-09,  avg # of iterations =  4.3

     total cpu time spent up to now is     5489.5 secs

     total energy              =    -701.17291509 Ry
     Harris-Foulkes estimate   =    -701.17291512 Ry
     estimated scf accuracy    <       0.00000030 Ry

     iteration # 25     ecut=    40.00 Ry     beta= 0.60
     Davidson diagonalization with overlap
     ethr =  4.16E-10,  avg # of iterations =  2.9

     total cpu time spent up to now is     5541.4 secs

     total energy              =    -701.17291510 Ry
     Harris-Foulkes estimate   =    -701.17291511 Ry
     estimated scf accuracy    <       0.00000007 Ry

     iteration # 26     ecut=    40.00 Ry     beta= 0.60
     Davidson diagonalization with overlap
     ethr =  9.99E-11,  avg # of iterations =  4.2

     total cpu time spent up to now is     5603.0 secs

     total energy              =    -701.17291511 Ry
     Harris-Foulkes estimate   =    -701.17291511 Ry
     estimated scf accuracy    <       0.00000001 Ry

     iteration # 27     ecut=    40.00 Ry     beta= 0.60
     Davidson diagonalization with overlap
     ethr =  1.58E-11,  avg # of iterations =  3.0

     total cpu time spent up to now is     5656.4 secs

     total energy              =    -701.17291511 Ry
     Harris-Foulkes estimate   =    -701.17291511 Ry
     estimated scf accuracy    <          2.7E-09 Ry

     iteration # 28     ecut=    40.00 Ry     beta= 0.60
     Davidson diagonalization with overlap
     ethr =  3.68E-12,  avg # of iterations =  4.3

     total cpu time spent up to now is     5718.7 secs

     total energy              =    -701.17291511 Ry
     Harris-Foulkes estimate   =    -701.17291511 Ry
     estimated scf accuracy    <          1.2E-09 Ry

     iteration # 29     ecut=    40.00 Ry     beta= 0.60
     Davidson diagonalization with overlap
     ethr =  1.70E-12,  avg # of iterations =  3.0

     total cpu time spent up to now is     5768.3 secs

     total energy              =    -701.17291511 Ry
     Harris-Foulkes estimate   =    -701.17291511 Ry
     estimated scf accuracy    <          2.9E-10 Ry

     iteration # 30     ecut=    40.00 Ry     beta= 0.60
     Davidson diagonalization with overlap
     ethr =  4.04E-13,  avg # of iterations =  4.5

     total cpu time spent up to now is     5832.7 secs

     total energy              =    -701.17291511 Ry
     Harris-Foulkes estimate   =    -701.17291511 Ry
     estimated scf accuracy    <          1.8E-10 Ry

     iteration # 31     ecut=    40.00 Ry     beta= 0.60
     Davidson diagonalization with overlap
     ethr =  2.40E-13,  avg # of iterations =  1.0

     total cpu time spent up to now is     5877.2 secs

     End of self-consistent calculation

     Number of k-points >= 100: set verbosity='high' to print the bands.

     the Fermi energy is    14.4362 ev

!    total energy              =    -701.17291511 Ry
     Harris-Foulkes estimate   =    -701.17291511 Ry
     estimated scf accuracy    <          3.7E-11 Ry

     The total energy is the sum of the following terms:

     one-electron contribution =    -221.02478632 Ry
     hartree contribution      =     136.33205756 Ry
     xc contribution           =     -91.11098630 Ry
     ewald contribution        =    -525.36561064 Ry
     smearing contrib. (-TS)   =      -0.00358941 Ry

     convergence has been achieved in  31 iterations

     Forces acting on atoms (cartesian axes, Ry/au):

     atom    1 type  2   force =     0.00134632   -0.00077730    0.00538382
     atom    2 type  2   force =     0.00383547   -0.00221441    0.00107587
     atom    3 type  2   force =    -0.00244926    0.00141408   -0.01004896
     atom    4 type  2   force =    -0.00247403    0.00142838   -0.00023839
     atom    5 type  2   force =    -0.00070411    0.00040652    0.00486621
     atom    6 type  1   force =     0.00044560   -0.00025727   -0.00103856

     Total force =     0.013966     Total SCF correction =     0.000019


     Computing stress (Cartesian axis) and pressure

          total   stress  (Ry/bohr**3)                   (kbar)     P=   15.89
   0.00012312  -0.00000552  -0.00000131         18.11     -0.81     -0.19
  -0.00000552   0.00011675   0.00000076         -0.81     17.17      0.11
  -0.00000131   0.00000076   0.00008412         -0.19      0.11     12.37


     number of scf cycles    =   3
     number of bfgs steps    =   2

     enthalpy old            =    -701.1609276233 Ry
     enthalpy new            =    -701.1729151135 Ry

     CASE: enthalpy_new < enthalpy_old

     new trust radius        =       0.0228190609 bohr
     new conv_thr            =            1.0E-10 Ry

     new unit-cell volume =    707.89151 a.u.^3 (   104.89870 Ang^3 )
     density =      5.25936 g/cm^3

CELL_PARAMETERS (alat=  1.88972599)
  -2.922436602   0.003186015   4.735816684
  -1.463977471   2.529311520   4.735816684
  -4.383826762   2.531003750  -4.734233331

ATOMIC_POSITIONS (angstrom)
Ti      -4.383389843   2.530751495   0.009553610
Ti      -5.844442607   3.374290765   2.370250989
Ti      -4.387975279   2.533398898   4.721907828
Ti      -5.848817717   3.376816736   7.103975524
Ti      -8.771286565   5.064105038   4.744299329
Nb      -1.460788959   0.843386962   2.366201751


     NEW-OLD atomic charge density approx. for the potential
     extrapolated charge   73.84242, renormalised to   73.00000

     total cpu time spent up to now is     5895.7 secs

     Self-consistent Calculation

     iteration #  1     ecut=    40.00 Ry     beta= 0.60
     Davidson diagonalization with overlap
     c_bands:  2 eigenvalues not converged
     c_bands:  1 eigenvalues not converged
     c_bands:  1 eigenvalues not converged
     c_bands:  1 eigenvalues not converged
     c_bands:  1 eigenvalues not converged
     c_bands:  1 eigenvalues not converged
     c_bands:  1 eigenvalues not converged
     c_bands:  2 eigenvalues not converged
     c_bands:  1 eigenvalues not converged
     c_bands:  2 eigenvalues not converged
     c_bands:  1 eigenvalues not converged
     c_bands:  1 eigenvalues not converged
     c_bands:  1 eigenvalues not converged
     c_bands:  1 eigenvalues not converged
     c_bands:  1 eigenvalues not converged
     c_bands:  1 eigenvalues not converged
     ethr =  1.00E-06,  avg # of iterations = 10.5

     total cpu time spent up to now is     6017.0 secs

     total energy              =    -701.10173035 Ry
     Harris-Foulkes estimate   =    -699.32492910 Ry
     estimated scf accuracy    <       0.06079294 Ry

     iteration #  2     ecut=    40.00 Ry     beta= 0.60
     Davidson diagonalization with overlap
     c_bands:  1 eigenvalues not converged
     ethr =  8.33E-05,  avg # of iterations =  6.1

     total cpu time spent up to now is     6112.8 secs

     total energy              =    -701.10353646 Ry
     Harris-Foulkes estimate   =    -701.25083789 Ry
     estimated scf accuracy    <       0.73584452 Ry

     iteration #  3     ecut=    40.00 Ry     beta= 0.60
     Davidson diagonalization with overlap
     ethr =  8.33E-05,  avg # of iterations =  6.0

     total cpu time spent up to now is     6200.4 secs

     total energy              =    -701.14601846 Ry
     Harris-Foulkes estimate   =    -701.21552802 Ry
     estimated scf accuracy    <       0.45424656 Ry

     iteration #  4     ecut=    40.00 Ry     beta= 0.60
     Davidson diagonalization with overlap
     ethr =  8.33E-05,  avg # of iterations =  5.7

     total cpu time spent up to now is     6279.0 secs

     total energy              =    -701.16671605 Ry
     Harris-Foulkes estimate   =    -701.18744755 Ry
     estimated scf accuracy    <       0.15047371 Ry

     iteration #  5     ecut=    40.00 Ry     beta= 0.60
     Davidson diagonalization with overlap
     ethr =  8.33E-05,  avg # of iterations =  3.6

     total cpu time spent up to now is     6332.4 secs

     total energy              =    -701.17596739 Ry
     Harris-Foulkes estimate   =    -701.17651347 Ry
     estimated scf accuracy    <       0.01497511 Ry

     iteration #  6     ecut=    40.00 Ry     beta= 0.60
     Davidson diagonalization with overlap
     ethr =  2.05E-05,  avg # of iterations =  4.3

     total cpu time spent up to now is     6390.5 secs

     total energy              =    -701.17562641 Ry
     Harris-Foulkes estimate   =    -701.17703542 Ry
     estimated scf accuracy    <       0.01408829 Ry

     iteration #  7     ecut=    40.00 Ry     beta= 0.60
     Davidson diagonalization with overlap
     ethr =  1.93E-05,  avg # of iterations =  1.0

     total cpu time spent up to now is     6435.4 secs

     total energy              =    -701.17528472 Ry
     Harris-Foulkes estimate   =    -701.17582340 Ry
     estimated scf accuracy    <       0.01056366 Ry

     iteration #  8     ecut=    40.00 Ry     beta= 0.60
     Davidson diagonalization with overlap
     ethr =  1.45E-05,  avg # of iterations =  1.0

     total cpu time spent up to now is     6480.1 secs

     total energy              =    -701.17450183 Ry
     Harris-Foulkes estimate   =    -701.17538064 Ry
     estimated scf accuracy    <       0.00876371 Ry

     iteration #  9     ecut=    40.00 Ry     beta= 0.60
     Davidson diagonalization with overlap
     ethr =  1.20E-05,  avg # of iterations =  1.0

     total cpu time spent up to now is     6525.0 secs

     total energy              =    -701.17397823 Ry
     Harris-Foulkes estimate   =    -701.17460180 Ry
     estimated scf accuracy    <       0.00602940 Ry

     iteration # 10     ecut=    40.00 Ry     beta= 0.60
     Davidson diagonalization with overlap
     ethr =  8.26E-06,  avg # of iterations =  1.4

     total cpu time spent up to now is     6571.0 secs

     total energy              =    -701.17278351 Ry
     Harris-Foulkes estimate   =    -701.17411595 Ry
     estimated scf accuracy    <       0.00341221 Ry

     iteration # 11     ecut=    40.00 Ry     beta= 0.60
     Davidson diagonalization with overlap
     c_bands:  1 eigenvalues not converged
     ethr =  4.67E-06,  avg # of iterations =  5.2

     total cpu time spent up to now is     6638.4 secs

     total energy              =    -701.17344268 Ry
     Harris-Foulkes estimate   =    -701.17347033 Ry
     estimated scf accuracy    <       0.00021576 Ry

     iteration # 12     ecut=    40.00 Ry     beta= 0.60
     Davidson diagonalization with overlap
     ethr =  2.96E-07,  avg # of iterations =  6.0

     total cpu time spent up to now is     6714.3 secs

     total energy              =    -701.17348840 Ry
     Harris-Foulkes estimate   =    -701.17348963 Ry
     estimated scf accuracy    <       0.00002046 Ry

     iteration # 13     ecut=    40.00 Ry     beta= 0.60
     Davidson diagonalization with overlap
     ethr =  2.80E-08,  avg # of iterations =  3.4

     total cpu time spent up to now is     6770.5 secs

     total energy              =    -701.17348975 Ry
     Harris-Foulkes estimate   =    -701.17349063 Ry
     estimated scf accuracy    <       0.00001586 Ry

     iteration # 14     ecut=    40.00 Ry     beta= 0.60
     Davidson diagonalization with overlap
     ethr =  2.17E-08,  avg # of iterations =  1.1

     total cpu time spent up to now is     6815.9 secs

     total energy              =    -701.17348931 Ry
     Harris-Foulkes estimate   =    -701.17349014 Ry
     estimated scf accuracy    <       0.00001086 Ry

     iteration # 15     ecut=    40.00 Ry     beta= 0.60
     Davidson diagonalization with overlap
     ethr =  1.49E-08,  avg # of iterations =  2.4

     total cpu time spent up to now is     6864.2 secs

     total energy              =    -701.17348901 Ry
     Harris-Foulkes estimate   =    -701.17348989 Ry
     estimated scf accuracy    <       0.00000773 Ry

     iteration # 16     ecut=    40.00 Ry     beta= 0.60
     Davidson diagonalization with overlap
     ethr =  1.06E-08,  avg # of iterations =  2.8

     total cpu time spent up to now is     6913.8 secs

     total energy              =    -701.17348938 Ry
     Harris-Foulkes estimate   =    -701.17348957 Ry
     estimated scf accuracy    <       0.00000143 Ry

     iteration # 17     ecut=    40.00 Ry     beta= 0.60
     Davidson diagonalization with overlap
     ethr =  1.96E-09,  avg # of iterations =  4.8

     total cpu time spent up to now is     6980.9 secs

     total energy              =    -701.17348969 Ry
     Harris-Foulkes estimate   =    -701.17348977 Ry
     estimated scf accuracy    <       0.00000111 Ry

     iteration # 18     ecut=    40.00 Ry     beta= 0.60
     Davidson diagonalization with overlap
     ethr =  1.52E-09,  avg # of iterations =  1.0

     total cpu time spent up to now is     7025.5 secs

     total energy              =    -701.17348963 Ry
     Harris-Foulkes estimate   =    -701.17348972 Ry
     estimated scf accuracy    <       0.00000062 Ry

     iteration # 19     ecut=    40.00 Ry     beta= 0.60
     Davidson diagonalization with overlap
     ethr =  8.53E-10,  avg # of iterations =  2.9

     total cpu time spent up to now is     7077.1 secs

     total energy              =    -701.17348967 Ry
     Harris-Foulkes estimate   =    -701.17348968 Ry
     estimated scf accuracy    <       0.00000001 Ry

     iteration # 20     ecut=    40.00 Ry     beta= 0.60
     Davidson diagonalization with overlap
     ethr =  1.50E-11,  avg # of iterations =  6.3

     total cpu time spent up to now is     7160.1 secs

     total energy              =    -701.17348968 Ry
     Harris-Foulkes estimate   =    -701.17348969 Ry
     estimated scf accuracy    <       0.00000005 Ry

     iteration # 21     ecut=    40.00 Ry     beta= 0.60
     Davidson diagonalization with overlap
     ethr =  1.50E-11,  avg # of iterations =  4.1

     total cpu time spent up to now is     7217.6 secs

     total energy              =    -701.17348968 Ry
     Harris-Foulkes estimate   =    -701.17348968 Ry
     estimated scf accuracy    <          4.7E-09 Ry

     iteration # 22     ecut=    40.00 Ry     beta= 0.60
     Davidson diagonalization with overlap
     ethr =  6.50E-12,  avg # of iterations =  4.0

     total cpu time spent up to now is     7276.5 secs

     total energy              =    -701.17348968 Ry
     Harris-Foulkes estimate   =    -701.17348968 Ry
     estimated scf accuracy    <          4.9E-10 Ry

     iteration # 23     ecut=    40.00 Ry     beta= 0.60
     Davidson diagonalization with overlap
     ethr =  6.70E-13,  avg # of iterations =  4.3

     total cpu time spent up to now is     7338.9 secs

     End of self-consistent calculation

     Number of k-points >= 100: set verbosity='high' to print the bands.

     the Fermi energy is    14.2272 ev

!    total energy              =    -701.17348968 Ry
     Harris-Foulkes estimate   =    -701.17348968 Ry
     estimated scf accuracy    <          4.8E-11 Ry

     The total energy is the sum of the following terms:

     one-electron contribution =    -224.22554097 Ry
     hartree contribution      =     137.29970036 Ry
     xc contribution           =     -91.04732305 Ry
     ewald contribution        =    -523.19678107 Ry
     smearing contrib. (-TS)   =      -0.00354496 Ry

     convergence has been achieved in  23 iterations

     Forces acting on atoms (cartesian axes, Ry/au):

     atom    1 type  2   force =     0.00093813   -0.00054163    0.00443933
     atom    2 type  2   force =     0.00298040   -0.00172074    0.00108043
     atom    3 type  2   force =    -0.00205166    0.00118453   -0.00844003
     atom    4 type  2   force =    -0.00163698    0.00094511   -0.00028903
     atom    5 type  2   force =    -0.00070541    0.00040727    0.00420140
     atom    6 type  1   force =     0.00047551   -0.00027454   -0.00099209

     Total force =     0.011576     Total SCF correction =     0.000021


     Computing stress (Cartesian axis) and pressure

          total   stress  (Ry/bohr**3)                   (kbar)     P=   -0.32
   0.00001336  -0.00000600  -0.00000056          1.96     -0.88     -0.08
  -0.00000600   0.00000643   0.00000032         -0.88      0.95      0.05
  -0.00000056   0.00000032  -0.00002627         -0.08      0.05     -3.86


     number of scf cycles    =   4
     number of bfgs steps    =   3

     enthalpy old            =    -701.1729151135 Ry
     enthalpy new            =    -701.1734896839 Ry

     CASE: enthalpy_new < enthalpy_old

     new trust radius        =       0.0100132848 bohr
     new conv_thr            =            1.0E-10 Ry

     new unit-cell volume =    708.44819 a.u.^3 (   104.98119 Ang^3 )
     density =      5.25522 g/cm^3

CELL_PARAMETERS (alat=  1.88972599)
  -2.924623675   0.003745817   4.733747187
  -1.465555810   2.530925680   4.733747187
  -4.387323470   2.533022576  -4.731998608

ATOMIC_POSITIONS (angstrom)
Ti      -4.386385367   2.532480961   0.012345991
Ti      -5.847420246   3.376009906   2.369972451
Ti      -4.392910849   2.536248450   4.714806157
Ti      -5.854773179   3.380255123   7.100768624
Ti      -8.778974768   5.068543823   4.744919049
Nb      -1.461743553   0.843938097   2.364587237


     NEW-OLD atomic charge density approx. for the potential
     extrapolated charge   73.05343, renormalised to   73.00000

     total cpu time spent up to now is     7357.3 secs

     Self-consistent Calculation

     iteration #  1     ecut=    40.00 Ry     beta= 0.60
     Davidson diagonalization with overlap
     ethr =  1.00E-06,  avg # of iterations =  4.0

     total cpu time spent up to now is     7452.7 secs

     total energy              =    -701.17244383 Ry
     Harris-Foulkes estimate   =    -701.05562376 Ry
     estimated scf accuracy    <       0.00154504 Ry

     iteration #  2     ecut=    40.00 Ry     beta= 0.60
     Davidson diagonalization with overlap
     c_bands:  2 eigenvalues not converged
     c_bands:  1 eigenvalues not converged
     c_bands:  1 eigenvalues not converged
     ethr =  2.12E-06,  avg # of iterations =  6.6

     total cpu time spent up to now is     7551.7 secs

     total energy              =    -701.16748909 Ry
     Harris-Foulkes estimate   =    -701.17952934 Ry
     estimated scf accuracy    <       0.10933772 Ry

     iteration #  3     ecut=    40.00 Ry     beta= 0.60
     Davidson diagonalization with overlap
     ethr =  2.12E-06,  avg # of iterations =  6.9

     total cpu time spent up to now is     7647.3 secs

     total energy              =    -701.17343735 Ry
     Harris-Foulkes estimate   =    -701.17389341 Ry
     estimated scf accuracy    <       0.00236624 Ry

     iteration #  4     ecut=    40.00 Ry     beta= 0.60
     Davidson diagonalization with overlap
     ethr =  2.12E-06,  avg # of iterations =  3.9

     total cpu time spent up to now is     7705.6 secs

     total energy              =    -701.17358583 Ry
     Harris-Foulkes estimate   =    -701.17375115 Ry
     estimated scf accuracy    <       0.00110319 Ry

     iteration #  5     ecut=    40.00 Ry     beta= 0.60
     Davidson diagonalization with overlap
     ethr =  1.51E-06,  avg # of iterations =  1.1

     total cpu time spent up to now is     7750.7 secs

     total energy              =    -701.17363233 Ry
     Harris-Foulkes estimate   =    -701.17364321 Ry
     estimated scf accuracy    <       0.00023568 Ry

     iteration #  6     ecut=    40.00 Ry     beta= 0.60
     Davidson diagonalization with overlap
     ethr =  3.23E-07,  avg # of iterations =  3.8

     total cpu time spent up to now is     7808.8 secs

     total energy              =    -701.17363680 Ry
     Harris-Foulkes estimate   =    -701.17365512 Ry
     estimated scf accuracy    <       0.00007617 Ry

     iteration #  7     ecut=    40.00 Ry     beta= 0.60
     Davidson diagonalization with overlap
     ethr =  1.04E-07,  avg # of iterations =  3.4

     total cpu time spent up to now is     7864.2 secs

     total energy              =    -701.17363940 Ry
     Harris-Foulkes estimate   =    -701.17364480 Ry
     estimated scf accuracy    <       0.00001835 Ry

     iteration #  8     ecut=    40.00 Ry     beta= 0.60
     Davidson diagonalization with overlap
     ethr =  2.51E-08,  avg # of iterations =  4.6

     total cpu time spent up to now is     7931.2 secs

     total energy              =    -701.17364347 Ry
     Harris-Foulkes estimate   =    -701.17364550 Ry
     estimated scf accuracy    <       0.00001645 Ry

     iteration #  9     ecut=    40.00 Ry     beta= 0.60
     Davidson diagonalization with overlap
     ethr =  2.25E-08,  avg # of iterations =  1.1

     total cpu time spent up to now is     7976.4 secs

     total energy              =    -701.17364435 Ry
     Harris-Foulkes estimate   =    -701.17364464 Ry
     estimated scf accuracy    <       0.00000474 Ry

     iteration # 10     ecut=    40.00 Ry     beta= 0.60
     Davidson diagonalization with overlap
     ethr =  6.50E-09,  avg # of iterations =  4.0

     total cpu time spent up to now is     8033.9 secs

     total energy              =    -701.17364412 Ry
     Harris-Foulkes estimate   =    -701.17364480 Ry
     estimated scf accuracy    <       0.00000409 Ry

     iteration # 11     ecut=    40.00 Ry     beta= 0.60
     Davidson diagonalization with overlap
     ethr =  5.61E-09,  avg # of iterations =  1.3

     total cpu time spent up to now is     8079.3 secs

     total energy              =    -701.17364417 Ry
     Harris-Foulkes estimate   =    -701.17364433 Ry
     estimated scf accuracy    <       0.00000073 Ry

     iteration # 12     ecut=    40.00 Ry     beta= 0.60
     Davidson diagonalization with overlap
     ethr =  1.01E-09,  avg # of iterations =  4.8

     total cpu time spent up to now is     8149.1 secs

     total energy              =    -701.17364439 Ry
     Harris-Foulkes estimate   =    -701.17364450 Ry
     estimated scf accuracy    <       0.00000079 Ry

     iteration # 13     ecut=    40.00 Ry     beta= 0.60
     Davidson diagonalization with overlap
     ethr =  1.01E-09,  avg # of iterations =  1.0

     total cpu time spent up to now is     8193.9 secs

     total energy              =    -701.17364442 Ry
     Harris-Foulkes estimate   =    -701.17364443 Ry
     estimated scf accuracy    <       0.00000018 Ry

     iteration # 14     ecut=    40.00 Ry     beta= 0.60
     Davidson diagonalization with overlap
     ethr =  2.51E-10,  avg # of iterations =  3.9

     total cpu time spent up to now is     8250.4 secs

     total energy              =    -701.17364443 Ry
     Harris-Foulkes estimate   =    -701.17364444 Ry
     estimated scf accuracy    <       0.00000004 Ry

     iteration # 15     ecut=    40.00 Ry     beta= 0.60
     Davidson diagonalization with overlap
     ethr =  5.96E-11,  avg # of iterations =  4.1

     total cpu time spent up to now is     8309.6 secs

     total energy              =    -701.17364444 Ry
     Harris-Foulkes estimate   =    -701.17364444 Ry
     estimated scf accuracy    <          8.3E-09 Ry

     iteration # 16     ecut=    40.00 Ry     beta= 0.60
     Davidson diagonalization with overlap
     ethr =  1.13E-11,  avg # of iterations =  4.6

     total cpu time spent up to now is     8372.3 secs

     total energy              =    -701.17364444 Ry
     Harris-Foulkes estimate   =    -701.17364444 Ry
     estimated scf accuracy    <          7.0E-09 Ry

     iteration # 17     ecut=    40.00 Ry     beta= 0.60
     Davidson diagonalization with overlap
     ethr =  9.58E-12,  avg # of iterations =  1.2

     total cpu time spent up to now is     8417.4 secs

     total energy              =    -701.17364444 Ry
     Harris-Foulkes estimate   =    -701.17364444 Ry
     estimated scf accuracy    <          5.0E-10 Ry

     iteration # 18     ecut=    40.00 Ry     beta= 0.60
     Davidson diagonalization with overlap
     ethr =  6.85E-13,  avg # of iterations =  5.6

     total cpu time spent up to now is     8493.2 secs

     total energy              =    -701.17364444 Ry
     Harris-Foulkes estimate   =    -701.17364444 Ry
     estimated scf accuracy    <          2.1E-09 Ry

     iteration # 19     ecut=    40.00 Ry     beta= 0.60
     Davidson diagonalization with overlap
     ethr =  6.85E-13,  avg # of iterations =  1.1

     total cpu time spent up to now is     8538.0 secs

     total energy              =    -701.17364444 Ry
     Harris-Foulkes estimate   =    -701.17364444 Ry
     estimated scf accuracy    <          7.8E-10 Ry

     iteration # 20     ecut=    40.00 Ry     beta= 0.60
     Davidson diagonalization with overlap
     ethr =  6.85E-13,  avg # of iterations =  4.0

     total cpu time spent up to now is     8600.6 secs

     total energy              =    -701.17364444 Ry
     Harris-Foulkes estimate   =    -701.17364444 Ry
     estimated scf accuracy    <          1.1E-10 Ry

     iteration # 21     ecut=    40.00 Ry     beta= 0.60
     Davidson diagonalization with overlap
     ethr =  1.54E-13,  avg # of iterations =  1.3

     total cpu time spent up to now is     8645.9 secs

     End of self-consistent calculation

     Number of k-points >= 100: set verbosity='high' to print the bands.

     the Fermi energy is    14.2143 ev

!    total energy              =    -701.17364444 Ry
     Harris-Foulkes estimate   =    -701.17364444 Ry
     estimated scf accuracy    <          8.3E-11 Ry

     The total energy is the sum of the following terms:

     one-electron contribution =    -224.40786033 Ry
     hartree contribution      =     137.35042691 Ry
     xc contribution           =     -91.04276639 Ry
     ewald contribution        =    -523.06987801 Ry
     smearing contrib. (-TS)   =      -0.00356661 Ry

     convergence has been achieved in  21 iterations

     Forces acting on atoms (cartesian axes, Ry/au):

     atom    1 type  2   force =     0.00058015   -0.00033495    0.00350921
     atom    2 type  2   force =     0.00247725   -0.00143024    0.00114025
     atom    3 type  2   force =    -0.00181671    0.00104888   -0.00699039
     atom    4 type  2   force =    -0.00098950    0.00057129   -0.00035435
     atom    5 type  2   force =    -0.00072739    0.00041996    0.00360933
     atom    6 type  1   force =     0.00047619   -0.00027493   -0.00091405

     Total force =     0.009582     Total SCF correction =     0.000020


     Computing stress (Cartesian axis) and pressure

          total   stress  (Ry/bohr**3)                   (kbar)     P=   -1.48
   0.00000247  -0.00000564   0.00000039          0.36     -0.83      0.06
  -0.00000564  -0.00000405  -0.00000023         -0.83     -0.60     -0.03
   0.00000039  -0.00000023  -0.00002861          0.06     -0.03     -4.21


     number of scf cycles    =   5
     number of bfgs steps    =   4

     enthalpy old            =    -701.1734896839 Ry
     enthalpy new            =    -701.1736444398 Ry

     CASE: enthalpy_new < enthalpy_old

     new trust radius        =       0.0150144443 bohr
     new conv_thr            =            1.0E-10 Ry

     new unit-cell volume =    708.27547 a.u.^3 (   104.95560 Ang^3 )
     density =      5.25651 g/cm^3

CELL_PARAMETERS (alat=  1.88972599)
  -2.926356352   0.004575743   4.728505721
  -1.467140886   2.532011259   4.728505721
  -4.390679673   2.534960280  -4.726777196

ATOMIC_POSITIONS (angstrom)
Ti      -4.388993090   2.533986531   0.016211671
Ti      -5.849107682   3.376984147   2.368464337
Ti      -4.398211424   2.539308738   4.701973792
Ti      -5.860487621   3.383554357   7.092565621
Ti      -8.786393062   5.072826777   4.743514372
Nb      -1.462361104   0.844294640   2.361019618


     NEW-OLD atomic charge density approx. for the potential
     extrapolated charge   72.98342, renormalised to   73.00000

     total cpu time spent up to now is     8664.6 secs

     Self-consistent Calculation

     iteration #  1     ecut=    40.00 Ry     beta= 0.60
     Davidson diagonalization with overlap
     ethr =  1.00E-06,  avg # of iterations =  4.6

     total cpu time spent up to now is     8763.9 secs

     total energy              =    -701.17150702 Ry
     Harris-Foulkes estimate   =    -701.21072334 Ry
     estimated scf accuracy    <       0.00315363 Ry

     iteration #  2     ecut=    40.00 Ry     beta= 0.60
     Davidson diagonalization with overlap
     c_bands:  2 eigenvalues not converged
     ethr =  4.32E-06,  avg # of iterations =  6.8

     total cpu time spent up to now is     8862.0 secs

     total energy              =    -701.16037918 Ry
     Harris-Foulkes estimate   =    -701.18769594 Ry
     estimated scf accuracy    <       0.24782975 Ry

     iteration #  3     ecut=    40.00 Ry     beta= 0.60
     Davidson diagonalization with overlap
     ethr =  4.32E-06,  avg # of iterations =  6.8

     total cpu time spent up to now is     8956.5 secs

     total energy              =    -701.17339839 Ry
     Harris-Foulkes estimate   =    -701.17423409 Ry
     estimated scf accuracy    <       0.00578220 Ry

     iteration #  4     ecut=    40.00 Ry     beta= 0.60
     Davidson diagonalization with overlap
     ethr =  4.32E-06,  avg # of iterations =  1.4

     total cpu time spent up to now is     9002.0 secs

     total energy              =    -701.17365472 Ry
[...]
     c_bands:  1 eigenvalues not converged
     c_bands:  1 eigenvalues not converged
     c_bands:  1 eigenvalues not converged
     c_bands:  1 eigenvalues not converged
     c_bands:  1 eigenvalues not converged
     c_bands:  1 eigenvalues not converged
     c_bands:  1 eigenvalues not converged
     c_bands:  1 eigenvalues not converged
     c_bands:  1 eigenvalues not converged
     c_bands:  1 eigenvalues not converged
     c_bands:  1 eigenvalues not converged
     c_bands:  1 eigenvalues not converged
     c_bands:  1 eigenvalues not converged
     c_bands:  1 eigenvalues not converged
     c_bands:  2 eigenvalues not converged
     c_bands:  2 eigenvalues not converged
     c_bands:  1 eigenvalues not converged
     c_bands:  1 eigenvalues not converged
     c_bands:  1 eigenvalues not converged
     c_bands:  1 eigenvalues not converged
     c_bands:  2 eigenvalues not converged
     c_bands:  2 eigenvalues not converged
     c_bands:  1 eigenvalues not converged
     c_bands:  3 eigenvalues not converged
     c_bands:  1 eigenvalues not converged
     c_bands:  1 eigenvalues not converged
     c_bands:  1 eigenvalues not converged
     c_bands:  1 eigenvalues not converged
     c_bands:  1 eigenvalues not converged
     c_bands:  1 eigenvalues not converged
     c_bands:  1 eigenvalues not converged
     c_bands:  1 eigenvalues not converged
     c_bands:  1 eigenvalues not converged
     c_bands:  1 eigenvalues not converged
     c_bands:  1 eigenvalues not converged
     c_bands:  1 eigenvalues not converged
     c_bands:  1 eigenvalues not converged
     c_bands:  1 eigenvalues not converged
     c_bands:  1 eigenvalues not converged
     c_bands:  1 eigenvalues not converged
     c_bands:  2 eigenvalues not converged
     c_bands:  1 eigenvalues not converged
     c_bands:  1 eigenvalues not converged
     c_bands:  2 eigenvalues not converged
     c_bands:  3 eigenvalues not converged
     c_bands:  1 eigenvalues not converged
     c_bands:  1 eigenvalues not converged
     c_bands:  1 eigenvalues not converged
     c_bands:  1 eigenvalues not converged
     c_bands:  1 eigenvalues not converged
     c_bands:  1 eigenvalues not converged
     c_bands:  1 eigenvalues not converged
     c_bands:  1 eigenvalues not converged
     c_bands:  1 eigenvalues not converged
     c_bands:  1 eigenvalues not converged
     c_bands:  1 eigenvalues not converged
     c_bands:  1 eigenvalues not converged
     c_bands:  1 eigenvalues not converged
     c_bands:  1 eigenvalues not converged
     c_bands:  1 eigenvalues not converged
     c_bands:  1 eigenvalues not converged
     c_bands:  1 eigenvalues not converged
     c_bands:  1 eigenvalues not converged
     c_bands:  1 eigenvalues not converged
     c_bands:  1 eigenvalues not converged
     c_bands:  1 eigenvalues not converged
     c_bands:  2 eigenvalues not converged
     c_bands:  2 eigenvalues not converged
     c_bands:  1 eigenvalues not converged
     c_bands:  1 eigenvalues not converged
     c_bands:  2 eigenvalues not converged
     c_bands:  2 eigenvalues not converged
     c_bands:  1 eigenvalues not converged
     c_bands:  1 eigenvalues not converged
     c_bands:  2 eigenvalues not converged
     c_bands:  2 eigenvalues not converged
     c_bands:  2 eigenvalues not converged
     c_bands:  2 eigenvalues not converged
     c_bands:  1 eigenvalues not converged
     c_bands:  1 eigenvalues not converged
     c_bands:  1 eigenvalues not converged
     c_bands:  1 eigenvalues not converged
     c_bands:  2 eigenvalues not converged
     c_bands:  1 eigenvalues not converged
     c_bands:  1 eigenvalues not converged
     c_bands:  1 eigenvalues not converged
     c_bands:  1 eigenvalues not converged
     c_bands:  1 eigenvalues not converged
     c_bands:  1 eigenvalues not converged
     c_bands:  1 eigenvalues not converged
     c_bands:  1 eigenvalues not converged
     c_bands:  1 eigenvalues not converged
     c_bands:  1 eigenvalues not converged
     c_bands:  1 eigenvalues not converged
     c_bands:  1 eigenvalues not converged
     c_bands:  1 eigenvalues not converged
     c_bands:  1 eigenvalues not converged
     c_bands:  1 eigenvalues not converged
     c_bands:  1 eigenvalues not converged
     c_bands:  1 eigenvalues not converged
     c_bands:  1 eigenvalues not converged
     c_bands:  1 eigenvalues not converged
     c_bands:  1 eigenvalues not converged
     ethr =  1.00E-06,  avg # of iterations = 18.6

     total cpu time spent up to now is    43606.1 secs

     total energy              =    -691.14076519 Ry
     Harris-Foulkes estimate   =    -703.85716747 Ry
     estimated scf accuracy    <      16.05449258 Ry

     iteration #  2     ecut=    40.00 Ry     beta= 0.60
     Davidson diagonalization with overlap
     ethr =  1.00E-02,  avg # of iterations =  5.9

     total cpu time spent up to now is    43693.6 secs

     total energy              =    -693.97268461 Ry
     Harris-Foulkes estimate   =    -730.49475629 Ry
     estimated scf accuracy    <     139.58285718 Ry

     iteration #  3     ecut=    40.00 Ry     beta= 0.60
     Davidson diagonalization with overlap
     ethr =  1.00E-02,  avg # of iterations =  5.3

     total cpu time spent up to now is    43772.6 secs

     total energy              =    -699.38562780 Ry
     Harris-Foulkes estimate   =    -703.35781110 Ry
     estimated scf accuracy    <      20.63042418 Ry

     iteration #  4     ecut=    40.00 Ry     beta= 0.60
     Davidson diagonalization with overlap
     ethr =  1.00E-02,  avg # of iterations =  4.8

     total cpu time spent up to now is    43830.9 secs

     total energy              =    -700.26233270 Ry
     Harris-Foulkes estimate   =    -701.96379568 Ry
     estimated scf accuracy    <      11.35931623 Ry

     iteration #  5     ecut=    40.00 Ry     beta= 0.60
     Davidson diagonalization with overlap
     ethr =  1.00E-02,  avg # of iterations =  2.5

     total cpu time spent up to now is    43874.7 secs

     total energy              =    -700.91347685 Ry
     Harris-Foulkes estimate   =    -701.25288306 Ry
     estimated scf accuracy    <       2.05319404 Ry

     iteration #  6     ecut=    40.00 Ry     beta= 0.60
     Davidson diagonalization with overlap
     ethr =  2.81E-03,  avg # of iterations =  4.9

     total cpu time spent up to now is    43934.4 secs

     total energy              =    -701.03572031 Ry
     Harris-Foulkes estimate   =    -701.31462326 Ry
     estimated scf accuracy    <       1.94077616 Ry

     iteration #  7     ecut=    40.00 Ry     beta= 0.60
     Davidson diagonalization with overlap
     ethr =  2.66E-03,  avg # of iterations =  1.0

     total cpu time spent up to now is    43974.7 secs

     total energy              =    -701.12201723 Ry
     Harris-Foulkes estimate   =    -701.15993508 Ry
     estimated scf accuracy    <       0.11564747 Ry

     iteration #  8     ecut=    40.00 Ry     beta= 0.60
     Davidson diagonalization with overlap
     ethr =  1.58E-04,  avg # of iterations =  6.6

     total cpu time spent up to now is    44056.4 secs

     total energy              =    -701.14461329 Ry
     Harris-Foulkes estimate   =    -701.21185972 Ry
     estimated scf accuracy    <       0.65392409 Ry

     iteration #  9     ecut=    40.00 Ry     beta= 0.60
     Davidson diagonalization with overlap
     ethr =  1.58E-04,  avg # of iterations =  5.3

     total cpu time spent up to now is    44120.1 secs

     total energy              =    -701.14764576 Ry
     Harris-Foulkes estimate   =    -701.20376736 Ry
     estimated scf accuracy    <       0.52810986 Ry

     iteration # 10     ecut=    40.00 Ry     beta= 0.60
     Davidson diagonalization with overlap
     ethr =  1.58E-04,  avg # of iterations =  4.0

     total cpu time spent up to now is    44170.8 secs

     total energy              =    -701.16388784 Ry
     Harris-Foulkes estimate   =    -701.17345669 Ry
     estimated scf accuracy    <       0.08676572 Ry

     iteration # 11     ecut=    40.00 Ry     beta= 0.60
     Davidson diagonalization with overlap
     ethr =  1.19E-04,  avg # of iterations =  2.5

     total cpu time spent up to now is    44214.7 secs

     total energy              =    -701.16759779 Ry
     Harris-Foulkes estimate   =    -701.16884983 Ry
     estimated scf accuracy    <       0.01043395 Ry

     iteration # 12     ecut=    40.00 Ry     beta= 0.60
     Davidson diagonalization with overlap
     c_bands:  1 eigenvalues not converged
     c_bands:  1 eigenvalues not converged
     ethr =  1.43E-05,  avg # of iterations =  7.1

     total cpu time spent up to now is    44292.7 secs

     total energy              =    -701.17021828 Ry
     Harris-Foulkes estimate   =    -701.17055787 Ry
     estimated scf accuracy    <       0.00340393 Ry

     iteration # 13     ecut=    40.00 Ry     beta= 0.60
     Davidson diagonalization with overlap
     c_bands:  1 eigenvalues not converged
     ethr =  4.66E-06,  avg # of iterations =  1.4

     total cpu time spent up to now is    44333.7 secs

     total energy              =    -701.17023241 Ry
     Harris-Foulkes estimate   =    -701.17034490 Ry
     estimated scf accuracy    <       0.00087486 Ry

     iteration # 14     ecut=    40.00 Ry     beta= 0.60
     Davidson diagonalization with overlap
     c_bands:  1 eigenvalues not converged
     c_bands:  1 eigenvalues not converged
     c_bands:  1 eigenvalues not converged
     c_bands:  1 eigenvalues not converged
     c_bands:  2 eigenvalues not converged
     ethr =  1.20E-06,  avg # of iterations =  4.9

     total cpu time spent up to now is    44390.4 secs

     total energy              =    -701.17031284 Ry
     Harris-Foulkes estimate   =    -701.17037912 Ry
     estimated scf accuracy    <       0.00067509 Ry

     iteration # 15     ecut=    40.00 Ry     beta= 0.60
     Davidson diagonalization with overlap
     c_bands:  1 eigenvalues not converged
     ethr =  9.25E-07,  avg # of iterations =  1.1

     total cpu time spent up to now is    44430.9 secs

     total energy              =    -701.17032595 Ry
     Harris-Foulkes estimate   =    -701.17033760 Ry
     estimated scf accuracy    <       0.00008540 Ry

     iteration # 16     ecut=    40.00 Ry     beta= 0.60
     Davidson diagonalization with overlap
     c_bands:  1 eigenvalues not converged
     ethr =  1.17E-07,  avg # of iterations =  4.5

     total cpu time spent up to now is    44489.1 secs

     total energy              =    -701.17034276 Ry
     Harris-Foulkes estimate   =    -701.17034844 Ry
     estimated scf accuracy    <       0.00006054 Ry

     iteration # 17     ecut=    40.00 Ry     beta= 0.60
     Davidson diagonalization with overlap
     ethr =  8.29E-08,  avg # of iterations =  1.1

     total cpu time spent up to now is    44529.5 secs

     total energy              =    -701.17034264 Ry
     Harris-Foulkes estimate   =    -701.17034457 Ry
     estimated scf accuracy    <       0.00001367 Ry

     iteration # 18     ecut=    40.00 Ry     beta= 0.60
     Davidson diagonalization with overlap
     ethr =  1.87E-08,  avg # of iterations =  4.2

     total cpu time spent up to now is    44585.0 secs

     total energy              =    -701.17034456 Ry
     Harris-Foulkes estimate   =    -701.17034540 Ry
     estimated scf accuracy    <       0.00000804 Ry

     iteration # 19     ecut=    40.00 Ry     beta= 0.60
     Davidson diagonalization with overlap
     ethr =  1.10E-08,  avg # of iterations =  1.0

     total cpu time spent up to now is    44625.2 secs

     total energy              =    -701.17034477 Ry
     Harris-Foulkes estimate   =    -701.17034491 Ry
     estimated scf accuracy    <       0.00000137 Ry

     iteration # 20     ecut=    40.00 Ry     beta= 0.60
     Davidson diagonalization with overlap
     ethr =  1.88E-09,  avg # of iterations =  4.3

     total cpu time spent up to now is    44680.3 secs

     total energy              =    -701.17034493 Ry
     Harris-Foulkes estimate   =    -701.17034500 Ry
     estimated scf accuracy    <       0.00000057 Ry

     iteration # 21     ecut=    40.00 Ry     beta= 0.60
     Davidson diagonalization with overlap
     ethr =  7.85E-10,  avg # of iterations =  1.6

     total cpu time spent up to now is    44721.9 secs

     total energy              =    -701.17034496 Ry
     Harris-Foulkes estimate   =    -701.17034497 Ry
     estimated scf accuracy    <       0.00000008 Ry

     iteration # 22     ecut=    40.00 Ry     beta= 0.60
     Davidson diagonalization with overlap
     ethr =  1.15E-10,  avg # of iterations =  4.7

     total cpu time spent up to now is    44783.2 secs

     total energy              =    -701.17034498 Ry
     Harris-Foulkes estimate   =    -701.17034499 Ry
     estimated scf accuracy    <       0.00000009 Ry

     iteration # 23     ecut=    40.00 Ry     beta= 0.60
     Davidson diagonalization with overlap
     ethr =  1.15E-10,  avg # of iterations =  1.0

     total cpu time spent up to now is    44823.4 secs

     total energy              =    -701.17034498 Ry
     Harris-Foulkes estimate   =    -701.17034498 Ry
     estimated scf accuracy    <       0.00000001 Ry

     iteration # 24     ecut=    40.00 Ry     beta= 0.60
     Davidson diagonalization with overlap
     ethr =  2.04E-11,  avg # of iterations =  4.5

     total cpu time spent up to now is    44881.7 secs

     total energy              =    -701.17034498 Ry
     Harris-Foulkes estimate   =    -701.17034498 Ry
     estimated scf accuracy    <       0.00000001 Ry

     iteration # 25     ecut=    40.00 Ry     beta= 0.60
     Davidson diagonalization with overlap
     ethr =  1.43E-11,  avg # of iterations =  1.0

     total cpu time spent up to now is    44921.9 secs

     total energy              =    -701.17034498 Ry
     Harris-Foulkes estimate   =    -701.17034498 Ry
     estimated scf accuracy    <          2.3E-09 Ry

     iteration # 26     ecut=    40.00 Ry     beta= 0.60
     Davidson diagonalization with overlap
     ethr =  3.10E-12,  avg # of iterations =  4.2

     total cpu time spent up to now is    44976.9 secs

     total energy              =    -701.17034498 Ry
     Harris-Foulkes estimate   =    -701.17034498 Ry
     estimated scf accuracy    <          4.8E-10 Ry

     iteration # 27     ecut=    40.00 Ry     beta= 0.60
     Davidson diagonalization with overlap
     ethr =  6.59E-13,  avg # of iterations =  2.1

     total cpu time spent up to now is    45019.9 secs

     total energy              =    -701.17034498 Ry
     Harris-Foulkes estimate   =    -701.17034498 Ry
     estimated scf accuracy    <          6.8E-11 Ry

     iteration # 28     ecut=    40.00 Ry     beta= 0.60
     Davidson diagonalization with overlap
     ethr =  1.00E-13,  avg # of iterations =  4.7

     total cpu time spent up to now is    45081.4 secs

     total energy              =    -701.17034498 Ry
     Harris-Foulkes estimate   =    -701.17034498 Ry
     estimated scf accuracy    <          7.9E-11 Ry

     iteration # 29     ecut=    40.00 Ry     beta= 0.60
     Davidson diagonalization with overlap
     ethr =  1.00E-13,  avg # of iterations =  1.0

     total cpu time spent up to now is    45121.6 secs

     total energy              =    -701.17034498 Ry
     Harris-Foulkes estimate   =    -701.17034498 Ry
     estimated scf accuracy    <          3.6E-11 Ry

     iteration # 30     ecut=    40.00 Ry     beta= 0.60
     Davidson diagonalization with overlap
     ethr =  1.00E-13,  avg # of iterations =  1.8

     total cpu time spent up to now is    45163.7 secs

     End of self-consistent calculation

     Number of k-points >= 100: set verbosity='high' to print the bands.

     the Fermi energy is    14.1908 ev

!    total energy              =    -701.17034498 Ry
     Harris-Foulkes estimate   =    -701.17034498 Ry
     estimated scf accuracy    <          6.9E-13 Ry

     The total energy is the sum of the following terms:

     one-electron contribution =    -223.74671301 Ry
     hartree contribution      =     137.20733740 Ry
     xc contribution           =     -91.06438737 Ry
     ewald contribution        =    -523.56652029 Ry
     smearing contrib. (-TS)   =      -0.00006171 Ry

     convergence has been achieved in  30 iterations

     Forces acting on atoms (cartesian axes, Ry/au):

     atom    1 type  2   force =    -0.00016633    0.00009603   -0.00007767
     atom    2 type  2   force =    -0.00011143    0.00006433   -0.00006057
     atom    3 type  2   force =     0.00002119   -0.00001223    0.00012620
     atom    4 type  2   force =     0.00016444   -0.00009494   -0.00003748
     atom    5 type  2   force =     0.00003781   -0.00002183    0.00003055
     atom    6 type  1   force =     0.00005432   -0.00003136    0.00001897

     Total force =     0.000353     Total SCF correction =     0.000003


     Computing stress (Cartesian axis) and pressure

          total   stress  (Ry/bohr**3)                   (kbar)     P=   -6.86
  -0.00003924  -0.00000864   0.00000067         -5.77     -1.27      0.10
  -0.00000864  -0.00004922  -0.00000039         -1.27     -7.24     -0.06
   0.00000067  -0.00000039  -0.00005154          0.10     -0.06     -7.58

 
     init_run     :     47.92s CPU     48.75s WALL (       2 calls)
     electrons    :  43798.68s CPU  44479.59s WALL (      36 calls)
     update_pot   :     48.98s CPU     49.25s WALL (      34 calls)
     forces       :    156.60s CPU    160.28s WALL (      36 calls)
     stress       :    418.18s CPU    428.50s WALL (      36 calls)

     Called by init_run:
     wfcinit      :     45.08s CPU     45.75s WALL (       2 calls)
     potinit      :      0.86s CPU      0.89s WALL (       2 calls)
     hinit0       :      1.52s CPU      1.55s WALL (       2 calls)

     Called by electrons:
     c_bands      :  37393.39s CPU  37872.19s WALL (     743 calls)
     sum_band     :   6203.21s CPU   6338.16s WALL (     743 calls)
     v_of_rho     :     46.18s CPU     46.55s WALL (     769 calls)
     newd         :    157.37s CPU    225.17s WALL (     769 calls)
     mix_rho      :      4.68s CPU      4.70s WALL (     743 calls)

     Called by c_bands:
     init_us_2    :    374.26s CPU    377.67s WALL (  620880 calls)
     cegterg      :  34938.69s CPU  35361.37s WALL (  295715 calls)

     Called by sum_band:
     sum_band:bec :     12.19s CPU     12.64s WALL (  295714 calls)
     addusdens    :    175.51s CPU    235.39s WALL (     743 calls)

     Called by *egterg:
     h_psi        :  25477.87s CPU  25858.68s WALL ( 1345470 calls)
     s_psi        :    848.01s CPU    849.85s WALL ( 1345470 calls)
     g_psi        :    141.57s CPU    144.58s WALL ( 1048959 calls)
     cdiaghg      :   5215.91s CPU   5231.35s WALL ( 1327161 calls)

     Called by h_psi:
     h_psi:pot    :  25409.00s CPU  25788.50s WALL ( 1345470 calls)
     h_psi:calbec :    964.42s CPU    969.49s WALL ( 1345470 calls)
     vloc_psi     :  23574.77s CPU  23944.67s WALL ( 1345470 calls)
     add_vuspsi   :    864.13s CPU    866.82s WALL ( 1345470 calls)

     General routines
     calbec       :   1379.84s CPU   1385.71s WALL ( 1712824 calls)
     fft          :     24.65s CPU     25.11s WALL (   10905 calls)
     ffts         :      0.87s CPU      0.86s WALL (    1512 calls)
     fftw         :  25711.82s CPU  26158.44s WALL (79777164 calls)
     interpolate  :      2.30s CPU      2.32s WALL (     769 calls)
 
     Parallel routines
     fft_scatt_xy :   5235.36s CPU   5334.68s WALL (79789581 calls)
     fft_scatt_yz :   3614.32s CPU   3751.51s WALL (79789581 calls)
 
     PWSCF        :    12h21m CPU       21h12m WALL

      32h
 
   This run was terminated on:   3:28:17  15Feb2020            

=------------------------------------------------------------------------------=
   JOB DONE.
=------------------------------------------------------------------------------=
