
     Program PWSCF v.6.0 (svn rev. 13079) starts on  8May2018 at 13: 8:31 

     This program is part of the open-source Quantum ESPRESSO suite
     for quantum simulation of materials; please cite
         "P. Giannozzi et al., J. Phys.:Condens. Matter 21 395502 (2009);
          URL http://www.quantum-espresso.org", 
     in publications or presentations arising from this work. More details at
     http://www.quantum-espresso.org/quote

     Parallel version (MPI), running on     4 processors
     R & G space division:  proc/nbgrp/npool/nimage =       4
     Waiting for input...
     Reading input from standard input

     Current dimensions of program PWSCF are:
     Max number of different atomic species (ntypx) = 10
     Max number of k-points (npk) =  40000
     Max angular momentum in pseudopotentials (lmaxx) =  3

     Subspace diagonalization in iterative solution of the eigenvalue problem:
     a serial algorithm will be used


     Parallelization info
     --------------------
     sticks:   dense  smooth     PW     G-vecs:    dense   smooth      PW
     Min         684     273     94                27323     6899    1409
     Max         686     274     95                27324     6902    1410
     Sum        2741    1095    377               109295    27603    5639



     bravais-lattice index     =            0
     lattice parameter (alat)  =       1.8897  a.u.
     unit-cell volume          =     808.3427 (a.u.)^3
     number of atoms/cell      =            6
     number of atomic types    =            2
     number of electrons       =        74.00
     number of Kohn-Sham states=           44
     kinetic-energy cutoff     =      40.0000  Ry
     charge density cutoff     =     400.0000  Ry
     convergence threshold     =      1.0E-10
     mixing beta               =       0.6000
     number of iterations used =            8  plain     mixing
     Exchange-correlation      = SLA  PW   PBE  PBE ( 1  4  3  4 0 0)
     nstep                     =           50


     celldm(1)=   1.889726  celldm(2)=   0.000000  celldm(3)=   0.000000
     celldm(4)=   0.000000  celldm(5)=   0.000000  celldm(6)=   0.000000

     crystal axes: (cart. coord. in units of alat)
               a(1) = (   6.090008   5.274102   0.000000 )  
               a(2) = (  -7.612510  -2.637051   0.000000 )  
               a(3) = (   0.000000   0.000000   4.972461 )  

     reciprocal axes: (cart. coord. in units 2 pi/alat)
               b(1) = ( -0.109469  0.316010  0.000000 )  
               b(2) = ( -0.218938  0.252808  0.000000 )  
               b(3) = (  0.000000 -0.000000  0.201108 )  


     PseudoPot. # 1 for Nb read from file:
     ./Nb.pbe-nsp-van.UPF
     MD5 check sum: 0a22fc7fb0ba19a08ca5db297a5d2854
     Pseudo is Ultrasoft + core correction, Zval = 13.0
     Generated by new atomic code, or converted to UPF format
     Using radial grid of  887 points,  6 beta functions with: 
                l(1) =   0
                l(2) =   0
                l(3) =   1
                l(4) =   1
                l(5) =   2
                l(6) =   2
     Q(r) pseudized with  6 coefficients,  rinner =    1.000   1.000   1.000
                                                       1.000   1.000

     PseudoPot. # 2 for Ti read from file:
     ./Ti.pbe-sp-van_ak.UPF
     MD5 check sum: f98fea3e8887528921fefa5636a534ca
     Pseudo is Ultrasoft, Zval = 12.0
     Generated by new atomic code, or converted to UPF format
     Using radial grid of  851 points,  6 beta functions with: 
                l(1) =   0
                l(2) =   0
                l(3) =   1
                l(4) =   1
                l(5) =   2
                l(6) =   2
     Q(r) pseudized with  8 coefficients,  rinner =    1.000   1.000   1.000
                                                       1.000   1.000

     atomic species   valence    mass     pseudopotential
        Nb            13.00    92.90638     Nb( 1.00)
        Ti            12.00    47.86700     Ti( 1.00)

      4 Sym. Ops. (no inversion) found



   Cartesian axes

     site n.     atom                  positions (alat units)
         1           Nb  tau(   1) = (  -1.5225021   2.6370512   4.9724614  )
         2           Ti  tau(   2) = (  -1.5225006   0.8790162   2.4862307  )
         3           Ti  tau(   3) = (   1.5225021   2.6370512   4.9724614  )
         4           Ti  tau(   4) = (  -6.0900069  -1.7580350   2.4862307  )
         5           Ti  tau(   5) = (  -3.0450042   0.0000000   4.9724614  )
         6           Nb  tau(   6) = (   3.0450058   3.5160674   2.4862307  )

     number of k points=   248  Marzari-Vanderbilt smearing, width (Ry)=  0.0200

     Number of k-points >= 100: set verbosity='high' to print them.

     Dense  grid:   109295 G-vectors     FFT dimensions: ( 100, 100,  60)

     Smooth grid:    27603 G-vectors     FFT dimensions: (  64,  64,  40)

     Estimated max dynamical RAM per process >     172.85Mb

     Estimated total allocated dynamical RAM >     691.41Mb

     Initial potential from superposition of free atoms

     starting charge   69.99436, renormalised to   74.00000
     Starting wfc are   66 randomized atomic wfcs

     total cpu time spent up to now is       45.5 secs

     per-process dynamical memory:   240.1 Mb

     Self-consistent Calculation

     iteration #  1     ecut=    40.00 Ry     beta=0.60
     Davidson diagonalization with overlap
     ethr =  1.00E-02,  avg # of iterations =  3.3

     total cpu time spent up to now is      150.9 secs

     total energy              =    -691.47542849 Ry
     Harris-Foulkes estimate   =    -704.52346734 Ry
     estimated scf accuracy    <      16.39876664 Ry

     iteration #  2     ecut=    40.00 Ry     beta=0.60
     Davidson diagonalization with overlap
     ethr =  1.00E-02,  avg # of iterations =  5.5

     total cpu time spent up to now is      337.0 secs

     total energy              =    -687.28465190 Ry
     Harris-Foulkes estimate   =    -725.66492981 Ry
     estimated scf accuracy    <     148.63981862 Ry

     iteration #  3     ecut=    40.00 Ry     beta=0.60
     Davidson diagonalization with overlap
     ethr =  1.00E-02,  avg # of iterations =  5.1

     total cpu time spent up to now is      474.6 secs

     total energy              =    -700.49608558 Ry
     Harris-Foulkes estimate   =    -705.08052809 Ry
     estimated scf accuracy    <      23.74424387 Ry

     iteration #  4     ecut=    40.00 Ry     beta=0.60
     Davidson diagonalization with overlap
     ethr =  1.00E-02,  avg # of iterations =  4.8

     total cpu time spent up to now is      578.5 secs

     total energy              =    -701.58471883 Ry
     Harris-Foulkes estimate   =    -703.21514986 Ry
     estimated scf accuracy    <      17.67038535 Ry

     iteration #  5     ecut=    40.00 Ry     beta=0.60
     Davidson diagonalization with overlap
     ethr =  1.00E-02,  avg # of iterations =  2.3

     total cpu time spent up to now is      655.4 secs

     total energy              =    -702.02696247 Ry
     Harris-Foulkes estimate   =    -702.19536868 Ry
     estimated scf accuracy    <       1.45666455 Ry

     iteration #  6     ecut=    40.00 Ry     beta=0.60
     Davidson diagonalization with overlap
     ethr =  1.97E-03,  avg # of iterations =  6.1

     total cpu time spent up to now is      798.8 secs

     total energy              =    -701.82654764 Ry
     Harris-Foulkes estimate   =    -702.71260889 Ry
     estimated scf accuracy    <       8.69692287 Ry

     iteration #  7     ecut=    40.00 Ry     beta=0.60
     Davidson diagonalization with overlap
     ethr =  1.97E-03,  avg # of iterations =  5.4

     total cpu time spent up to now is      899.3 secs

     total energy              =    -702.43159009 Ry
     Harris-Foulkes estimate   =    -702.46397680 Ry
     estimated scf accuracy    <       1.42885479 Ry

     iteration #  8     ecut=    40.00 Ry     beta=0.60
     Davidson diagonalization with overlap
     ethr =  1.93E-03,  avg # of iterations =  1.4

     total cpu time spent up to now is      971.1 secs

     total energy              =    -702.52042789 Ry
     Harris-Foulkes estimate   =    -702.48430150 Ry
     estimated scf accuracy    <       1.47202536 Ry

     iteration #  9     ecut=    40.00 Ry     beta=0.60
     Davidson diagonalization with overlap
     ethr =  1.93E-03,  avg # of iterations =  1.1

     total cpu time spent up to now is     1042.1 secs

     total energy              =    -702.36672643 Ry
     Harris-Foulkes estimate   =    -702.54846621 Ry
     estimated scf accuracy    <       2.75979060 Ry

     iteration # 10     ecut=    40.00 Ry     beta=0.60
     Davidson diagonalization with overlap
     ethr =  1.93E-03,  avg # of iterations =  1.0

     total cpu time spent up to now is     1112.9 secs

     total energy              =    -702.39782519 Ry
     Harris-Foulkes estimate   =    -702.41268780 Ry
     estimated scf accuracy    <       0.72252338 Ry

     iteration # 11     ecut=    40.00 Ry     beta=0.60
     Davidson diagonalization with overlap
     ethr =  9.76E-04,  avg # of iterations =  1.0

     total cpu time spent up to now is     1183.5 secs

     total energy              =    -702.39133406 Ry
     Harris-Foulkes estimate   =    -702.40238395 Ry
     estimated scf accuracy    <       0.55954663 Ry

     iteration # 12     ecut=    40.00 Ry     beta=0.60
     Davidson diagonalization with overlap
     ethr =  7.56E-04,  avg # of iterations =  1.0

     total cpu time spent up to now is     1254.2 secs

     total energy              =    -702.38734810 Ry
     Harris-Foulkes estimate   =    -702.39410264 Ry
     estimated scf accuracy    <       0.38917788 Ry

     iteration # 13     ecut=    40.00 Ry     beta=0.60
     Davidson diagonalization with overlap
     ethr =  5.26E-04,  avg # of iterations =  1.1

     total cpu time spent up to now is     1325.1 secs

     total energy              =    -702.37994240 Ry
     Harris-Foulkes estimate   =    -702.38971999 Ry
     estimated scf accuracy    <       0.27315498 Ry

     iteration # 14     ecut=    40.00 Ry     beta=0.60
     Davidson diagonalization with overlap
     ethr =  3.69E-04,  avg # of iterations =  1.2

     total cpu time spent up to now is     1396.4 secs

     total energy              =    -702.37181911 Ry
     Harris-Foulkes estimate   =    -702.38297004 Ry
     estimated scf accuracy    <       0.12244879 Ry

     iteration # 15     ecut=    40.00 Ry     beta=0.60
     Davidson diagonalization with overlap
     ethr =  1.65E-04,  avg # of iterations =  4.6

     total cpu time spent up to now is     1488.8 secs

     total energy              =    -702.38433602 Ry
     Harris-Foulkes estimate   =    -702.38494814 Ry
     estimated scf accuracy    <       0.01640797 Ry

     iteration # 16     ecut=    40.00 Ry     beta=0.60
     Davidson diagonalization with overlap
     c_bands:  1 eigenvalues not converged
     c_bands:  1 eigenvalues not converged
     c_bands:  1 eigenvalues not converged
     c_bands:  2 eigenvalues not converged
     ethr =  2.22E-05,  avg # of iterations =  7.8

     total cpu time spent up to now is     1596.7 secs

     total energy              =    -702.38449742 Ry
     Harris-Foulkes estimate   =    -702.38520814 Ry
     estimated scf accuracy    <       0.01003090 Ry

     iteration # 17     ecut=    40.00 Ry     beta=0.60
     Davidson diagonalization with overlap
     ethr =  1.36E-05,  avg # of iterations =  1.6

     total cpu time spent up to now is     1668.8 secs

     total energy              =    -702.38474408 Ry
     Harris-Foulkes estimate   =    -702.38477415 Ry
     estimated scf accuracy    <       0.00121507 Ry

     iteration # 18     ecut=    40.00 Ry     beta=0.60
     Davidson diagonalization with overlap
     c_bands:  1 eigenvalues not converged
     c_bands:  1 eigenvalues not converged
     ethr =  1.64E-06,  avg # of iterations =  8.8

     total cpu time spent up to now is     1797.0 secs

     total energy              =    -702.38489174 Ry
     Harris-Foulkes estimate   =    -702.38490861 Ry
     estimated scf accuracy    <       0.00015637 Ry

     iteration # 19     ecut=    40.00 Ry     beta=0.60
     Davidson diagonalization with overlap
     ethr =  2.11E-07,  avg # of iterations =  3.0

     total cpu time spent up to now is     1878.1 secs

     total energy              =    -702.38490343 Ry
     Harris-Foulkes estimate   =    -702.38490526 Ry
     estimated scf accuracy    <       0.00001043 Ry

     iteration # 20     ecut=    40.00 Ry     beta=0.60
     Davidson diagonalization with overlap
     ethr =  1.41E-08,  avg # of iterations =  5.7

     total cpu time spent up to now is     1995.4 secs

     total energy              =    -702.38490508 Ry
     Harris-Foulkes estimate   =    -702.38490759 Ry
     estimated scf accuracy    <       0.00002716 Ry

     iteration # 21     ecut=    40.00 Ry     beta=0.60
     Davidson diagonalization with overlap
     ethr =  1.41E-08,  avg # of iterations =  3.8

     total cpu time spent up to now is     2077.0 secs

     total energy              =    -702.38490594 Ry
     Harris-Foulkes estimate   =    -702.38490657 Ry
     estimated scf accuracy    <       0.00000722 Ry

     iteration # 22     ecut=    40.00 Ry     beta=0.60
     Davidson diagonalization with overlap
     ethr =  9.75E-09,  avg # of iterations =  3.7

     total cpu time spent up to now is     2160.7 secs

     total energy              =    -702.38490640 Ry
     Harris-Foulkes estimate   =    -702.38490662 Ry
     estimated scf accuracy    <       0.00000395 Ry

     iteration # 23     ecut=    40.00 Ry     beta=0.60
     Davidson diagonalization with overlap
     ethr =  5.33E-09,  avg # of iterations =  1.9

     total cpu time spent up to now is     2234.1 secs

     total energy              =    -702.38490628 Ry
     Harris-Foulkes estimate   =    -702.38490658 Ry
     estimated scf accuracy    <       0.00000321 Ry

     iteration # 24     ecut=    40.00 Ry     beta=0.60
     Davidson diagonalization with overlap
     ethr =  4.33E-09,  avg # of iterations =  1.0

     total cpu time spent up to now is     2306.5 secs

     total energy              =    -702.38490628 Ry
     Harris-Foulkes estimate   =    -702.38490639 Ry
     estimated scf accuracy    <       0.00000078 Ry

     iteration # 25     ecut=    40.00 Ry     beta=0.60
     Davidson diagonalization with overlap
     ethr =  1.05E-09,  avg # of iterations =  4.6

     total cpu time spent up to now is     2412.3 secs

     total energy              =    -702.38490641 Ry
     Harris-Foulkes estimate   =    -702.38490644 Ry
     estimated scf accuracy    <       0.00000032 Ry

     iteration # 26     ecut=    40.00 Ry     beta=0.60
     Davidson diagonalization with overlap
     ethr =  4.34E-10,  avg # of iterations =  1.2

     total cpu time spent up to now is     2483.9 secs

     total energy              =    -702.38490642 Ry
     Harris-Foulkes estimate   =    -702.38490642 Ry
     estimated scf accuracy    <       0.00000010 Ry

     iteration # 27     ecut=    40.00 Ry     beta=0.60
     Davidson diagonalization with overlap
     ethr =  1.38E-10,  avg # of iterations =  3.2

     total cpu time spent up to now is     2562.7 secs

     total energy              =    -702.38490641 Ry
     Harris-Foulkes estimate   =    -702.38490642 Ry
     estimated scf accuracy    <       0.00000004 Ry

     iteration # 28     ecut=    40.00 Ry     beta=0.60
     Davidson diagonalization with overlap
     ethr =  5.88E-11,  avg # of iterations =  4.8

     total cpu time spent up to now is     2673.1 secs

     total energy              =    -702.38490642 Ry
     Harris-Foulkes estimate   =    -702.38490643 Ry
     estimated scf accuracy    <       0.00000007 Ry

     iteration # 29     ecut=    40.00 Ry     beta=0.60
     Davidson diagonalization with overlap
     ethr =  5.88E-11,  avg # of iterations =  1.0

     total cpu time spent up to now is     2743.9 secs

     total energy              =    -702.38490642 Ry
     Harris-Foulkes estimate   =    -702.38490643 Ry
     estimated scf accuracy    <       0.00000002 Ry

     iteration # 30     ecut=    40.00 Ry     beta=0.60
     Davidson diagonalization with overlap
     ethr =  3.27E-11,  avg # of iterations =  3.4

     total cpu time spent up to now is     2836.6 secs

     total energy              =    -702.38490643 Ry
     Harris-Foulkes estimate   =    -702.38490643 Ry
     estimated scf accuracy    <          3.0E-09 Ry

     iteration # 31     ecut=    40.00 Ry     beta=0.60
     Davidson diagonalization with overlap
     ethr =  4.10E-12,  avg # of iterations =  2.9

     total cpu time spent up to now is     2916.5 secs

     total energy              =    -702.38490643 Ry
     Harris-Foulkes estimate   =    -702.38490643 Ry
     estimated scf accuracy    <          1.2E-09 Ry

     iteration # 32     ecut=    40.00 Ry     beta=0.60
     Davidson diagonalization with overlap
     ethr =  1.56E-12,  avg # of iterations =  2.0

     total cpu time spent up to now is     2990.0 secs

     total energy              =    -702.38490643 Ry
     Harris-Foulkes estimate   =    -702.38490643 Ry
     estimated scf accuracy    <          1.0E-09 Ry

     iteration # 33     ecut=    40.00 Ry     beta=0.60
     Davidson diagonalization with overlap
     ethr =  1.37E-12,  avg # of iterations =  3.6

     total cpu time spent up to now is     3078.1 secs

     End of self-consistent calculation

     Number of k-points >= 100: set verbosity='high' to print the bands.

     the Fermi energy is    12.9907 ev

!    total energy              =    -702.38490643 Ry
     Harris-Foulkes estimate   =    -702.38490643 Ry
     estimated scf accuracy    <          5.5E-11 Ry

     The total energy is the sum of the following terms:

     one-electron contribution =    -231.17267930 Ry
     hartree contribution      =     137.66139696 Ry
     xc contribution           =     -94.32982792 Ry
     ewald contribution        =    -514.53750162 Ry
     smearing contrib. (-TS)   =      -0.00629455 Ry

     convergence has been achieved in  33 iterations

     Forces acting on atoms (Ry/au):

     atom    1 type  1   force =     0.00090231    0.00052095    0.00000000
     atom    2 type  2   force =    -0.00161513   -0.00093250    0.00000000
     atom    3 type  2   force =    -0.00122537   -0.00070747    0.00000000
     atom    4 type  2   force =     0.00116543    0.00067286    0.00000000
     atom    5 type  2   force =     0.00168602    0.00097342    0.00000000
     atom    6 type  1   force =    -0.00091326   -0.00052727    0.00000000

     Total force =     0.003644     Total SCF correction =     0.000015


     entering subroutine stress ...

          total   stress  (Ry/bohr**3)                   (kbar)     P= -130.98
  -0.00089040   0.00001352   0.00000000       -130.98      1.99      0.00
   0.00001352  -0.00090601   0.00000000          1.99   -133.28      0.00
   0.00000000   0.00000000  -0.00087481          0.00      0.00   -128.69


     BFGS Geometry Optimization

     number of scf cycles    =   1
     number of bfgs steps    =   0

     enthalpy new            =    -702.3849064256 Ry

     new trust radius        =       0.1288091921 bohr
     new conv_thr            =            1.0E-10 Ry

     new unit-cell volume =    755.55389 a.u.^3 (   111.96153 Ang^3 )

CELL_PARAMETERS (alat=  1.88972599)
   5.956227627   5.156701128   0.000000000
  -7.443947668  -2.579894242   0.000000000
   0.000000000   0.000000000   4.863711935

ATOMIC_POSITIONS (angstrom)
Nb      -1.487253097   2.577076476   4.863711935
Ti      -1.489148548   0.858109162   2.431855968
Ti       1.488868398   2.577469889   4.863711935
Ti      -5.954434702  -1.719925186   2.431855968
Ti      -2.976350053  -0.000525371   4.863711935
Nb       2.977939772   3.437183991   2.431855968


     NEW-OLD atomic charge density approx. for the potential
     extrapolated charge   69.10965, renormalised to   74.00000

     total cpu time spent up to now is     3112.3 secs

     per-process dynamical memory:   254.9 Mb

     Self-consistent Calculation

     iteration #  1     ecut=    40.00 Ry     beta=0.60
     Davidson diagonalization with overlap
     c_bands:  1 eigenvalues not converged
     c_bands:  2 eigenvalues not converged
     c_bands:  3 eigenvalues not converged
     c_bands:  4 eigenvalues not converged
     c_bands:  5 eigenvalues not converged
     c_bands:  1 eigenvalues not converged
     c_bands:  3 eigenvalues not converged
     c_bands:  1 eigenvalues not converged
     c_bands:  1 eigenvalues not converged
     c_bands:  1 eigenvalues not converged
     c_bands:  2 eigenvalues not converged
     c_bands:  1 eigenvalues not converged
     c_bands:  1 eigenvalues not converged
     c_bands:  1 eigenvalues not converged
     c_bands:  1 eigenvalues not converged
     c_bands:  1 eigenvalues not converged
     c_bands:  1 eigenvalues not converged
     c_bands:  2 eigenvalues not converged
     c_bands:  2 eigenvalues not converged
     c_bands:  1 eigenvalues not converged
     c_bands:  1 eigenvalues not converged
     c_bands:  1 eigenvalues not converged
     c_bands:  3 eigenvalues not converged
     c_bands:  1 eigenvalues not converged
     c_bands:  2 eigenvalues not converged
     c_bands:  1 eigenvalues not converged
     c_bands:  1 eigenvalues not converged
     c_bands:  1 eigenvalues not converged
     c_bands:  1 eigenvalues not converged
     c_bands:  2 eigenvalues not converged
     c_bands:  2 eigenvalues not converged
     c_bands:  1 eigenvalues not converged
     c_bands:  1 eigenvalues not converged
     c_bands:  3 eigenvalues not converged
     c_bands:  1 eigenvalues not converged
     c_bands:  2 eigenvalues not converged
     c_bands:  1 eigenvalues not converged
     c_bands:  1 eigenvalues not converged
     c_bands:  2 eigenvalues not converged
     c_bands:  1 eigenvalues not converged
     c_bands:  2 eigenvalues not converged
     c_bands:  4 eigenvalues not converged
     c_bands:  3 eigenvalues not converged
     c_bands:  2 eigenvalues not converged
     c_bands:  1 eigenvalues not converged
     c_bands:  1 eigenvalues not converged
     c_bands:  1 eigenvalues not converged
     c_bands:  1 eigenvalues not converged
     c_bands:  1 eigenvalues not converged
     c_bands:  2 eigenvalues not converged
     c_bands:  1 eigenvalues not converged
     c_bands:  1 eigenvalues not converged
     c_bands:  1 eigenvalues not converged
     c_bands:  2 eigenvalues not converged
     c_bands:  2 eigenvalues not converged
     c_bands:  1 eigenvalues not converged
     c_bands:  1 eigenvalues not converged
     c_bands:  1 eigenvalues not converged
     c_bands:  1 eigenvalues not converged
     c_bands:  1 eigenvalues not converged
     c_bands:  1 eigenvalues not converged
     c_bands:  2 eigenvalues not converged
     c_bands:  2 eigenvalues not converged
     c_bands:  1 eigenvalues not converged
     c_bands:  3 eigenvalues not converged
     c_bands:  3 eigenvalues not converged
     c_bands:  1 eigenvalues not converged
     c_bands:  2 eigenvalues not converged
     c_bands:  1 eigenvalues not converged
     c_bands:  1 eigenvalues not converged
     c_bands:  1 eigenvalues not converged
     c_bands:  1 eigenvalues not converged
     c_bands:  1 eigenvalues not converged
     c_bands:  1 eigenvalues not converged
     c_bands:  2 eigenvalues not converged
     c_bands:  1 eigenvalues not converged
     c_bands:  1 eigenvalues not converged
     c_bands:  1 eigenvalues not converged
     c_bands:  1 eigenvalues not converged
     c_bands:  2 eigenvalues not converged
     c_bands:  1 eigenvalues not converged
     c_bands:  3 eigenvalues not converged
     c_bands:  1 eigenvalues not converged
     c_bands:  1 eigenvalues not converged
     c_bands:  2 eigenvalues not converged
     c_bands:  1 eigenvalues not converged
     c_bands:  2 eigenvalues not converged
     c_bands:  4 eigenvalues not converged
     c_bands:  3 eigenvalues not converged
     c_bands:  3 eigenvalues not converged
     c_bands:  5 eigenvalues not converged
     c_bands:  4 eigenvalues not converged
     c_bands:  4 eigenvalues not converged
     c_bands:  3 eigenvalues not converged
     c_bands:  1 eigenvalues not converged
     c_bands:  1 eigenvalues not converged
     c_bands:  1 eigenvalues not converged
     c_bands:  1 eigenvalues not converged
     c_bands:  3 eigenvalues not converged
     c_bands:  1 eigenvalues not converged
     c_bands:  2 eigenvalues not converged
     c_bands:  2 eigenvalues not converged
     c_bands:  2 eigenvalues not converged
     c_bands:  4 eigenvalues not converged
     c_bands:  3 eigenvalues not converged
     c_bands:  3 eigenvalues not converged
     c_bands:  3 eigenvalues not converged
     c_bands:  3 eigenvalues not converged
     c_bands:  4 eigenvalues not converged
     c_bands:  2 eigenvalues not converged
     c_bands:  2 eigenvalues not converged
     c_bands:  4 eigenvalues not converged
     c_bands:  3 eigenvalues not converged
     c_bands:  4 eigenvalues not converged
     c_bands:  1 eigenvalues not converged
     c_bands:  2 eigenvalues not converged
     c_bands:  2 eigenvalues not converged
     ethr =  1.00E-06,  avg # of iterations = 18.7

     total cpu time spent up to now is     3497.6 secs

     total energy              =    -694.57630030 Ry
     Harris-Foulkes estimate   =    -713.21582786 Ry
     estimated scf accuracy    <       8.26773538 Ry

     iteration #  2     ecut=    40.00 Ry     beta=0.60
     Davidson diagonalization with overlap
     ethr =  1.00E-02,  avg # of iterations =  5.3

     total cpu time spent up to now is     3680.6 secs

     total energy              =    -700.78027976 Ry
     Harris-Foulkes estimate   =    -714.59577948 Ry
     estimated scf accuracy    <      48.14619415 Ry

     iteration #  3     ecut=    40.00 Ry     beta=0.60
     Davidson diagonalization with overlap
     ethr =  1.00E-02,  avg # of iterations =  3.8

     total cpu time spent up to now is     3783.5 secs

     total energy              =    -702.19740991 Ry
     Harris-Foulkes estimate   =    -704.57623287 Ry
     estimated scf accuracy    <      10.47837852 Ry

     iteration #  4     ecut=    40.00 Ry     beta=0.60
     Davidson diagonalization with overlap
     ethr =  1.00E-02,  avg # of iterations =  3.9

     total cpu time spent up to now is     3873.1 secs

     total energy              =    -702.47086091 Ry
     Harris-Foulkes estimate   =    -703.96171940 Ry
     estimated scf accuracy    <      11.52629963 Ry

     iteration #  5     ecut=    40.00 Ry     beta=0.60
     Davidson diagonalization with overlap
     ethr =  1.00E-02,  avg # of iterations =  1.2

     total cpu time spent up to now is     3946.5 secs

     total energy              =    -702.51920259 Ry
     Harris-Foulkes estimate   =    -702.88204677 Ry
     estimated scf accuracy    <       3.85411570 Ry

     iteration #  6     ecut=    40.00 Ry     beta=0.60
     Davidson diagonalization with overlap
     ethr =  5.21E-03,  avg # of iterations =  1.4

     total cpu time spent up to now is     4020.6 secs

     total energy              =    -702.36102763 Ry
     Harris-Foulkes estimate   =    -702.60553538 Ry
     estimated scf accuracy    <       2.11479964 Ry

     iteration #  7     ecut=    40.00 Ry     beta=0.60
     Davidson diagonalization with overlap
     ethr =  2.86E-03,  avg # of iterations =  2.8

     total cpu time spent up to now is     4097.7 secs

     total energy              =    -702.39170328 Ry
     Harris-Foulkes estimate   =    -702.43857374 Ry
     estimated scf accuracy    <       0.89632299 Ry

     iteration #  8     ecut=    40.00 Ry     beta=0.60
     Davidson diagonalization with overlap
     ethr =  1.21E-03,  avg # of iterations =  4.3

     total cpu time spent up to now is     4190.3 secs

     total energy              =    -702.47353278 Ry
     Harris-Foulkes estimate   =    -702.46233653 Ry
     estimated scf accuracy    <       0.33055393 Ry

     iteration #  9     ecut=    40.00 Ry     beta=0.60
     Davidson diagonalization with overlap
     ethr =  4.47E-04,  avg # of iterations =  3.7

     total cpu time spent up to now is     4271.4 secs

     total energy              =    -702.49670748 Ry
     Harris-Foulkes estimate   =    -702.48210657 Ry
     estimated scf accuracy    <       0.37550096 Ry

     iteration # 10     ecut=    40.00 Ry     beta=0.60
     Davidson diagonalization with overlap
     ethr =  4.47E-04,  avg # of iterations =  1.2

     total cpu time spent up to now is     4343.1 secs

     total energy              =    -702.33338436 Ry
     Harris-Foulkes estimate   =    -702.50004378 Ry
     estimated scf accuracy    <       0.46598871 Ry

     iteration # 11     ecut=    40.00 Ry     beta=0.60
     Davidson diagonalization with overlap
     ethr =  4.47E-04,  avg # of iterations =  6.0

     total cpu time spent up to now is     4463.2 secs

     total energy              =    -702.40166961 Ry
     Harris-Foulkes estimate   =    -702.43232223 Ry
     estimated scf accuracy    <       0.20495094 Ry

     iteration # 12     ecut=    40.00 Ry     beta=0.60
     Davidson diagonalization with overlap
     ethr =  2.77E-04,  avg # of iterations =  2.2

     total cpu time spent up to now is     4537.7 secs

     total energy              =    -702.41679629 Ry
     Harris-Foulkes estimate   =    -702.41841391 Ry
     estimated scf accuracy    <       0.03801067 Ry

     iteration # 13     ecut=    40.00 Ry     beta=0.60
     Davidson diagonalization with overlap
     ethr =  5.14E-05,  avg # of iterations =  6.1

     total cpu time spent up to now is     4665.2 secs

     total energy              =    -702.42395523 Ry
     Harris-Foulkes estimate   =    -702.42894251 Ry
     estimated scf accuracy    <       0.08806526 Ry

     iteration # 14     ecut=    40.00 Ry     beta=0.60
     Davidson diagonalization with overlap
     ethr =  5.14E-05,  avg # of iterations =  1.1

     total cpu time spent up to now is     4736.1 secs

     total energy              =    -702.41804895 Ry
     Harris-Foulkes estimate   =    -702.42450999 Ry
     estimated scf accuracy    <       0.05774608 Ry

     iteration # 15     ecut=    40.00 Ry     beta=0.60
     Davidson diagonalization with overlap
     ethr =  5.14E-05,  avg # of iterations =  3.0

     total cpu time spent up to now is     4819.2 secs

     total energy              =    -702.41892333 Ry
     Harris-Foulkes estimate   =    -702.42131429 Ry
     estimated scf accuracy    <       0.01394943 Ry

     iteration # 16     ecut=    40.00 Ry     beta=0.60
     Davidson diagonalization with overlap
     c_bands:  1 eigenvalues not converged
     c_bands:  1 eigenvalues not converged
     ethr =  1.89E-05,  avg # of iterations =  5.9

     total cpu time spent up to now is     4945.9 secs

     total energy              =    -702.42070065 Ry
     Harris-Foulkes estimate   =    -702.42490901 Ry
     estimated scf accuracy    <       0.04846675 Ry

     iteration # 17     ecut=    40.00 Ry     beta=0.60
     Davidson diagonalization with overlap
     ethr =  1.89E-05,  avg # of iterations =  1.0

     total cpu time spent up to now is     5016.5 secs

     total energy              =    -702.41776817 Ry
     Harris-Foulkes estimate   =    -702.42139373 Ry
     estimated scf accuracy    <       0.02252944 Ry

     iteration # 18     ecut=    40.00 Ry     beta=0.60
     Davidson diagonalization with overlap
     ethr =  1.89E-05,  avg # of iterations =  4.1

     total cpu time spent up to now is     5117.3 secs

     total energy              =    -702.42081899 Ry
     Harris-Foulkes estimate   =    -702.42104056 Ry
     estimated scf accuracy    <       0.00260067 Ry

     iteration # 19     ecut=    40.00 Ry     beta=0.60
     Davidson diagonalization with overlap
     ethr =  3.51E-06,  avg # of iterations =  2.4

     total cpu time spent up to now is     5194.0 secs

     total energy              =    -702.42076989 Ry
     Harris-Foulkes estimate   =    -702.42089397 Ry
     estimated scf accuracy    <       0.00102005 Ry

     iteration # 20     ecut=    40.00 Ry     beta=0.60
     Davidson diagonalization with overlap
     ethr =  1.38E-06,  avg # of iterations =  3.6

     total cpu time spent up to now is     5280.7 secs

     total energy              =    -702.42084799 Ry
     Harris-Foulkes estimate   =    -702.42086169 Ry
     estimated scf accuracy    <       0.00008228 Ry

     iteration # 21     ecut=    40.00 Ry     beta=0.60
     Davidson diagonalization with overlap
     ethr =  1.11E-07,  avg # of iterations =  5.5

     total cpu time spent up to now is     5398.4 secs

     total energy              =    -702.42086281 Ry
     Harris-Foulkes estimate   =    -702.42087791 Ry
     estimated scf accuracy    <       0.00012179 Ry

     iteration # 22     ecut=    40.00 Ry     beta=0.60
     Davidson diagonalization with overlap
     ethr =  1.11E-07,  avg # of iterations =  1.1

     total cpu time spent up to now is     5469.2 secs

     total energy              =    -702.42086294 Ry
     Harris-Foulkes estimate   =    -702.42086673 Ry
     estimated scf accuracy    <       0.00002275 Ry

     iteration # 23     ecut=    40.00 Ry     beta=0.60
     Davidson diagonalization with overlap
     ethr =  3.07E-08,  avg # of iterations =  4.5

     total cpu time spent up to now is     5575.5 secs

     total energy              =    -702.42086872 Ry
     Harris-Foulkes estimate   =    -702.42086915 Ry
     estimated scf accuracy    <       0.00001058 Ry

     iteration # 24     ecut=    40.00 Ry     beta=0.60
     Davidson diagonalization with overlap
     ethr =  1.43E-08,  avg # of iterations =  1.0

     total cpu time spent up to now is     5646.3 secs

     total energy              =    -702.42086821 Ry
     Harris-Foulkes estimate   =    -702.42086884 Ry
     estimated scf accuracy    <       0.00000728 Ry

     iteration # 25     ecut=    40.00 Ry     beta=0.60
     Davidson diagonalization with overlap
     ethr =  9.84E-09,  avg # of iterations =  1.1

     total cpu time spent up to now is     5717.2 secs

     total energy              =    -702.42086812 Ry
     Harris-Foulkes estimate   =    -702.42086838 Ry
     estimated scf accuracy    <       0.00000245 Ry

     iteration # 26     ecut=    40.00 Ry     beta=0.60
     Davidson diagonalization with overlap
     ethr =  3.31E-09,  avg # of iterations =  3.9

     total cpu time spent up to now is     5806.4 secs

     total energy              =    -702.42086835 Ry
     Harris-Foulkes estimate   =    -702.42086836 Ry
     estimated scf accuracy    <       0.00000006 Ry

     iteration # 27     ecut=    40.00 Ry     beta=0.60
     Davidson diagonalization with overlap
     ethr =  7.72E-11,  avg # of iterations =  6.2

     total cpu time spent up to now is     5942.2 secs

     total energy              =    -702.42086840 Ry
     Harris-Foulkes estimate   =    -702.42086841 Ry
     estimated scf accuracy    <       0.00000018 Ry

     iteration # 28     ecut=    40.00 Ry     beta=0.60
     Davidson diagonalization with overlap
     ethr =  7.72E-11,  avg # of iterations =  1.0

     total cpu time spent up to now is     6012.8 secs

     total energy              =    -702.42086839 Ry
     Harris-Foulkes estimate   =    -702.42086840 Ry
     estimated scf accuracy    <       0.00000015 Ry

     iteration # 29     ecut=    40.00 Ry     beta=0.60
     Davidson diagonalization with overlap
     ethr =  7.72E-11,  avg # of iterations =  2.8

     total cpu time spent up to now is     6091.8 secs

     total energy              =    -702.42086839 Ry
     Harris-Foulkes estimate   =    -702.42086839 Ry
     estimated scf accuracy    <       0.00000003 Ry

     iteration # 30     ecut=    40.00 Ry     beta=0.60
     Davidson diagonalization with overlap
     ethr =  3.46E-11,  avg # of iterations =  3.6

     total cpu time spent up to now is     6179.0 secs

     total energy              =    -702.42086839 Ry
     Harris-Foulkes estimate   =    -702.42086839 Ry
     estimated scf accuracy    <          1.8E-09 Ry

     iteration # 31     ecut=    40.00 Ry     beta=0.60
     Davidson diagonalization with overlap
     ethr =  2.48E-12,  avg # of iterations =  5.5

     total cpu time spent up to now is     6286.7 secs

     total energy              =    -702.42086839 Ry
     Harris-Foulkes estimate   =    -702.42086839 Ry
     estimated scf accuracy    <          3.6E-10 Ry

     iteration # 32     ecut=    40.00 Ry     beta=0.60
     Davidson diagonalization with overlap
     ethr =  4.91E-13,  avg # of iterations =  4.0

     total cpu time spent up to now is     6378.8 secs

     total energy              =    -702.42086839 Ry
     Harris-Foulkes estimate   =    -702.42086839 Ry
     estimated scf accuracy    <          3.0E-10 Ry

     iteration # 33     ecut=    40.00 Ry     beta=0.60
     Davidson diagonalization with overlap
     ethr =  4.08E-13,  avg # of iterations =  1.0

     total cpu time spent up to now is     6449.5 secs

     total energy              =    -702.42086839 Ry
     Harris-Foulkes estimate   =    -702.42086839 Ry
     estimated scf accuracy    <          1.9E-10 Ry

     iteration # 34     ecut=    40.00 Ry     beta=0.60
     Davidson diagonalization with overlap
     ethr =  2.59E-13,  avg # of iterations =  1.0

     total cpu time spent up to now is     6520.4 secs

     End of self-consistent calculation

     Number of k-points >= 100: set verbosity='high' to print the bands.

     the Fermi energy is    14.0827 ev

!    total energy              =    -702.42086839 Ry
     Harris-Foulkes estimate   =    -702.42086839 Ry
     estimated scf accuracy    <          6.0E-11 Ry

     The total energy is the sum of the following terms:

     one-electron contribution =    -213.84682378 Ry
     hartree contribution      =     132.33809348 Ry
     xc contribution           =     -94.65522025 Ry
     ewald contribution        =    -526.25099868 Ry
     smearing contrib. (-TS)   =      -0.00591917 Ry

     convergence has been achieved in  34 iterations

     Forces acting on atoms (Ry/au):

     atom    1 type  1   force =     0.00056236    0.00032468    0.00000000
     atom    2 type  2   force =    -0.00168719   -0.00097410    0.00000000
     atom    3 type  2   force =    -0.00043131   -0.00024902    0.00000000
     atom    4 type  2   force =     0.00042854    0.00024742    0.00000000
     atom    5 type  2   force =     0.00169529    0.00097878    0.00000000
     atom    6 type  1   force =    -0.00056768   -0.00032775    0.00000000

     Total force =     0.002995     Total SCF correction =     0.000015


     entering subroutine stress ...

          total   stress  (Ry/bohr**3)                   (kbar)     P=  -65.68
  -0.00045392   0.00001198   0.00000000        -66.77      1.76      0.00
   0.00001198  -0.00046775   0.00000000          1.76    -68.81      0.00
   0.00000000   0.00000000  -0.00041785          0.00      0.00    -61.47


     number of scf cycles    =   2
     number of bfgs steps    =   1

     enthalpy old            =    -702.3849064256 Ry
     enthalpy new            =    -702.4208683931 Ry

     CASE: enthalpy_new < enthalpy_old

     new trust radius        =       0.1211114649 bohr
     new conv_thr            =            1.0E-10 Ry

     new unit-cell volume =    708.93012 a.u.^3 (   105.05260 Ang^3 )

CELL_PARAMETERS (alat=  1.88972599)
   5.832018679   5.046582784   0.000000000
  -7.286477905  -2.527385319   0.000000000
   0.000000000   0.000000000   4.768171880

ATOMIC_POSITIONS (angstrom)
Nb      -1.453466003   2.519770903   4.768171880
Ti      -1.458459509   0.837421244   2.384085940
Ti       1.458154189   2.521330754   4.768171880
Ti      -5.827866466  -1.685257228   2.384085940
Ti      -2.911176050  -0.001303426   4.768171880
Nb       2.915794823   3.362898350   2.384085940


     NEW-OLD atomic charge density approx. for the potential
     extrapolated charge   69.39672, renormalised to   74.00000

     total cpu time spent up to now is     6556.7 secs

     per-process dynamical memory:   254.9 Mb

     Self-consistent Calculation

     iteration #  1     ecut=    40.00 Ry     beta=0.60
     Davidson diagonalization with overlap
     c_bands:  1 eigenvalues not converged
     c_bands:  1 eigenvalues not converged
     c_bands:  2 eigenvalues not converged
     c_bands:  4 eigenvalues not converged
     c_bands:  3 eigenvalues not converged
     c_bands:  2 eigenvalues not converged
     c_bands:  2 eigenvalues not converged
     c_bands:  1 eigenvalues not converged
     c_bands:  2 eigenvalues not converged
     c_bands:  1 eigenvalues not converged
     c_bands:  1 eigenvalues not converged
     c_bands:  1 eigenvalues not converged
     c_bands:  1 eigenvalues not converged
     c_bands:  1 eigenvalues not converged
     c_bands:  1 eigenvalues not converged
     c_bands:  1 eigenvalues not converged
     c_bands:  1 eigenvalues not converged
     c_bands:  2 eigenvalues not converged
     c_bands:  1 eigenvalues not converged
     c_bands:  1 eigenvalues not converged
     c_bands:  1 eigenvalues not converged
     c_bands:  1 eigenvalues not converged
     c_bands:  1 eigenvalues not converged
     c_bands:  1 eigenvalues not converged
     c_bands:  1 eigenvalues not converged
     c_bands:  1 eigenvalues not converged
     c_bands:  1 eigenvalues not converged
     c_bands:  1 eigenvalues not converged
     c_bands:  1 eigenvalues not converged
     c_bands:  2 eigenvalues not converged
     c_bands:  1 eigenvalues not converged
     c_bands:  1 eigenvalues not converged
     c_bands:  1 eigenvalues not converged
     c_bands:  1 eigenvalues not converged
     c_bands:  2 eigenvalues not converged
     c_bands:  1 eigenvalues not converged
     c_bands:  1 eigenvalues not converged
     c_bands:  2 eigenvalues not converged
     c_bands:  2 eigenvalues not converged
     c_bands:  1 eigenvalues not converged
     c_bands:  2 eigenvalues not converged
     c_bands:  3 eigenvalues not converged
     c_bands:  1 eigenvalues not converged
     c_bands:  1 eigenvalues not converged
     c_bands:  2 eigenvalues not converged
     c_bands:  1 eigenvalues not converged
     c_bands:  1 eigenvalues not converged
     c_bands:  1 eigenvalues not converged
     c_bands:  1 eigenvalues not converged
     c_bands:  1 eigenvalues not converged
     c_bands:  4 eigenvalues not converged
     c_bands:  1 eigenvalues not converged
     c_bands:  2 eigenvalues not converged
     c_bands:  2 eigenvalues not converged
     c_bands:  2 eigenvalues not converged
     c_bands:  1 eigenvalues not converged
     c_bands:  2 eigenvalues not converged
     c_bands:  2 eigenvalues not converged
     c_bands:  2 eigenvalues not converged
     c_bands:  2 eigenvalues not converged
     c_bands:  2 eigenvalues not converged
     c_bands:  1 eigenvalues not converged
     c_bands:  2 eigenvalues not converged
     c_bands:  1 eigenvalues not converged
     c_bands:  1 eigenvalues not converged
     c_bands:  1 eigenvalues not converged
     c_bands:  1 eigenvalues not converged
     c_bands:  1 eigenvalues not converged
     c_bands:  1 eigenvalues not converged
     c_bands:  2 eigenvalues not converged
     c_bands:  3 eigenvalues not converged
     c_bands:  3 eigenvalues not converged
     c_bands:  2 eigenvalues not converged
     c_bands:  2 eigenvalues not converged
     c_bands:  1 eigenvalues not converged
     c_bands:  1 eigenvalues not converged
     c_bands:  1 eigenvalues not converged
     c_bands:  1 eigenvalues not converged
     c_bands:  2 eigenvalues not converged
     c_bands:  1 eigenvalues not converged
     c_bands:  2 eigenvalues not converged
     c_bands:  1 eigenvalues not converged
     c_bands:  1 eigenvalues not converged
     c_bands:  1 eigenvalues not converged
     c_bands:  1 eigenvalues not converged
     c_bands:  1 eigenvalues not converged
     c_bands:  1 eigenvalues not converged
     c_bands:  1 eigenvalues not converged
     c_bands:  1 eigenvalues not converged
     c_bands:  2 eigenvalues not converged
     c_bands:  1 eigenvalues not converged
     c_bands:  2 eigenvalues not converged
     c_bands:  4 eigenvalues not converged
     c_bands:  3 eigenvalues not converged
     c_bands:  2 eigenvalues not converged
     c_bands:  3 eigenvalues not converged
     c_bands:  3 eigenvalues not converged
     c_bands:  3 eigenvalues not converged
     c_bands:  1 eigenvalues not converged
     c_bands:  2 eigenvalues not converged
     c_bands:  1 eigenvalues not converged
     c_bands:  1 eigenvalues not converged
     c_bands:  1 eigenvalues not converged
     c_bands:  1 eigenvalues not converged
     c_bands:  1 eigenvalues not converged
     c_bands:  1 eigenvalues not converged
     c_bands:  2 eigenvalues not converged
     c_bands:  1 eigenvalues not converged
     c_bands:  2 eigenvalues not converged
     c_bands:  2 eigenvalues not converged
     c_bands:  3 eigenvalues not converged
     c_bands:  1 eigenvalues not converged
     c_bands:  2 eigenvalues not converged
     c_bands:  1 eigenvalues not converged
     c_bands:  1 eigenvalues not converged
     c_bands:  1 eigenvalues not converged
     c_bands:  3 eigenvalues not converged
     c_bands:  2 eigenvalues not converged
     c_bands:  1 eigenvalues not converged
     c_bands:  1 eigenvalues not converged
     ethr =  1.00E-06,  avg # of iterations = 18.6

     total cpu time spent up to now is     6944.2 secs

     total energy              =    -697.02465807 Ry
     Harris-Foulkes estimate   =    -711.79569065 Ry
     estimated scf accuracy    <       5.56325923 Ry

     iteration #  2     ecut=    40.00 Ry     beta=0.60
     Davidson diagonalization with overlap
     ethr =  7.52E-03,  avg # of iterations =  5.3

     total cpu time spent up to now is     7128.5 secs

     total energy              =    -700.82156115 Ry
     Harris-Foulkes estimate   =    -710.93307357 Ry
     estimated scf accuracy    <      37.22780994 Ry

     iteration #  3     ecut=    40.00 Ry     beta=0.60
     Davidson diagonalization with overlap
     ethr =  7.52E-03,  avg # of iterations =  4.2

     total cpu time spent up to now is     7231.9 secs

     total energy              =    -702.04652799 Ry
     Harris-Foulkes estimate   =    -703.91230511 Ry
     estimated scf accuracy    <       8.38006719 Ry

     iteration #  4     ecut=    40.00 Ry     beta=0.60
     Davidson diagonalization with overlap
     ethr =  7.52E-03,  avg # of iterations =  4.3

     total cpu time spent up to now is     7324.9 secs

     total energy              =    -702.36825951 Ry
     Harris-Foulkes estimate   =    -703.56895106 Ry
     estimated scf accuracy    <       9.32998873 Ry

     iteration #  5     ecut=    40.00 Ry     beta=0.60
     Davidson diagonalization with overlap
     ethr =  7.52E-03,  avg # of iterations =  1.2

     total cpu time spent up to now is     7396.2 secs

     total energy              =    -702.49750477 Ry
     Harris-Foulkes estimate   =    -702.72844002 Ry
     estimated scf accuracy    <       2.69639616 Ry

     iteration #  6     ecut=    40.00 Ry     beta=0.60
     Davidson diagonalization with overlap
     ethr =  3.64E-03,  avg # of iterations =  1.7

     total cpu time spent up to now is     7469.1 secs

     total energy              =    -702.36043018 Ry
     Harris-Foulkes estimate   =    -702.56214131 Ry
     estimated scf accuracy    <       1.51934330 Ry

     iteration #  7     ecut=    40.00 Ry     beta=0.60
     Davidson diagonalization with overlap
     ethr =  2.05E-03,  avg # of iterations =  3.3

     total cpu time spent up to now is     7548.7 secs

     total energy              =    -702.39600551 Ry
     Harris-Foulkes estimate   =    -702.43385349 Ry
     estimated scf accuracy    <       0.50087265 Ry

     iteration #  8     ecut=    40.00 Ry     beta=0.60
     Davidson diagonalization with overlap
     ethr =  6.77E-04,  avg # of iterations =  4.7

     total cpu time spent up to now is     7649.7 secs

     total energy              =    -702.47088352 Ry
     Harris-Foulkes estimate   =    -702.45321987 Ry
     estimated scf accuracy    <       0.13336068 Ry

     iteration #  9     ecut=    40.00 Ry     beta=0.60
     Davidson diagonalization with overlap
     ethr =  1.80E-04,  avg # of iterations =  3.5

     total cpu time spent up to now is     7729.8 secs

     total energy              =    -702.49068071 Ry
     Harris-Foulkes estimate   =    -702.47624839 Ry
     estimated scf accuracy    <       0.23218548 Ry

     iteration # 10     ecut=    40.00 Ry     beta=0.60
     Davidson diagonalization with overlap
     ethr =  1.80E-04,  avg # of iterations =  1.2

     total cpu time spent up to now is     7803.0 secs

     total energy              =    -702.36149871 Ry
     Harris-Foulkes estimate   =    -702.49377559 Ry
     estimated scf accuracy    <       0.32640583 Ry

     iteration # 11     ecut=    40.00 Ry     beta=0.60
     Davidson diagonalization with overlap
     ethr =  1.80E-04,  avg # of iterations =  5.8

     total cpu time spent up to now is     7952.8 secs

     total energy              =    -702.40806189 Ry
     Harris-Foulkes estimate   =    -702.44389160 Ry
     estimated scf accuracy    <       0.22239567 Ry

     iteration # 12     ecut=    40.00 Ry     beta=0.60
     Davidson diagonalization with overlap
     ethr =  1.80E-04,  avg # of iterations =  3.8

     total cpu time spent up to now is     8044.9 secs

     total energy              =    -702.43592666 Ry
     Harris-Foulkes estimate   =    -702.43798514 Ry
     estimated scf accuracy    <       0.10056779 Ry

     iteration # 13     ecut=    40.00 Ry     beta=0.60
     Davidson diagonalization with overlap
     ethr =  1.36E-04,  avg # of iterations =  1.1

     total cpu time spent up to now is     8116.9 secs

     total energy              =    -702.43462417 Ry
     Harris-Foulkes estimate   =    -702.43702605 Ry
     estimated scf accuracy    <       0.08687258 Ry

     iteration # 14     ecut=    40.00 Ry     beta=0.60
     Davidson diagonalization with overlap
     ethr =  1.17E-04,  avg # of iterations =  1.0

     total cpu time spent up to now is     8187.8 secs

     total energy              =    -702.43187366 Ry
     Harris-Foulkes estimate   =    -702.43512848 Ry
     estimated scf accuracy    <       0.07542655 Ry

     iteration # 15     ecut=    40.00 Ry     beta=0.60
     Davidson diagonalization with overlap
     ethr =  1.02E-04,  avg # of iterations =  1.0

     total cpu time spent up to now is     8258.6 secs

     total energy              =    -702.42601922 Ry
     Harris-Foulkes estimate   =    -702.43244206 Ry
     estimated scf accuracy    <       0.05435793 Ry

     iteration # 16     ecut=    40.00 Ry     beta=0.60
     Davidson diagonalization with overlap
     ethr =  7.35E-05,  avg # of iterations =  2.7

     total cpu time spent up to now is     8339.9 secs

     total energy              =    -702.43062871 Ry
     Harris-Foulkes estimate   =    -702.43020011 Ry
     estimated scf accuracy    <       0.01711269 Ry

     iteration # 17     ecut=    40.00 Ry     beta=0.60
     Davidson diagonalization with overlap
     ethr =  2.31E-05,  avg # of iterations =  4.7

     total cpu time spent up to now is     8445.8 secs

     total energy              =    -702.42518270 Ry
     Harris-Foulkes estimate   =    -702.43482303 Ry
     estimated scf accuracy    <       0.05248961 Ry

     iteration # 18     ecut=    40.00 Ry     beta=0.60
     Davidson diagonalization with overlap
     ethr =  2.31E-05,  avg # of iterations =  4.3

     total cpu time spent up to now is     8546.8 secs

     total energy              =    -702.42984869 Ry
     Harris-Foulkes estimate   =    -702.42985787 Ry
     estimated scf accuracy    <       0.00013346 Ry

     iteration # 19     ecut=    40.00 Ry     beta=0.60
     Davidson diagonalization with overlap
     ethr =  1.80E-07,  avg # of iterations =  7.0

     total cpu time spent up to now is     8731.4 secs

     total energy              =    -702.42990567 Ry
     Harris-Foulkes estimate   =    -702.43004171 Ry
     estimated scf accuracy    <       0.00122838 Ry

     iteration # 20     ecut=    40.00 Ry     beta=0.60
     Davidson diagonalization with overlap
     ethr =  1.80E-07,  avg # of iterations =  4.0

     total cpu time spent up to now is     8831.9 secs

     total energy              =    -702.42990666 Ry
     Harris-Foulkes estimate   =    -702.42994751 Ry
     estimated scf accuracy    <       0.00027772 Ry

     iteration # 21     ecut=    40.00 Ry     beta=0.60
     Davidson diagonalization with overlap
     ethr =  1.80E-07,  avg # of iterations =  2.4

     total cpu time spent up to now is     8907.9 secs

     total energy              =    -702.42991321 Ry
     Harris-Foulkes estimate   =    -702.42991921 Ry
     estimated scf accuracy    <       0.00003427 Ry

     iteration # 22     ecut=    40.00 Ry     beta=0.60
     Davidson diagonalization with overlap
     ethr =  4.63E-08,  avg # of iterations =  4.5

     total cpu time spent up to now is     9016.8 secs

     total energy              =    -702.42992477 Ry
     Harris-Foulkes estimate   =    -702.42992683 Ry
     estimated scf accuracy    <       0.00001913 Ry

     iteration # 23     ecut=    40.00 Ry     beta=0.60
     Davidson diagonalization with overlap
     ethr =  2.59E-08,  avg # of iterations =  1.0

     total cpu time spent up to now is     9087.6 secs

     total energy              =    -702.42992437 Ry
     Harris-Foulkes estimate   =    -702.42992522 Ry
     estimated scf accuracy    <       0.00000642 Ry

     iteration # 24     ecut=    40.00 Ry     beta=0.60
     Davidson diagonalization with overlap
     ethr =  8.67E-09,  avg # of iterations =  3.6

     total cpu time spent up to now is     9178.6 secs

     total energy              =    -702.42992515 Ry
     Harris-Foulkes estimate   =    -702.42992516 Ry
     estimated scf accuracy    <       0.00000005 Ry

     iteration # 25     ecut=    40.00 Ry     beta=0.60
     Davidson diagonalization with overlap
     ethr =  6.81E-11,  avg # of iterations =  6.6

     total cpu time spent up to now is     9309.9 secs

     total energy              =    -702.42992519 Ry
     Harris-Foulkes estimate   =    -702.42992520 Ry
     estimated scf accuracy    <       0.00000003 Ry

     iteration # 26     ecut=    40.00 Ry     beta=0.60
     Davidson diagonalization with overlap
     ethr =  3.93E-11,  avg # of iterations =  3.8

     total cpu time spent up to now is     9403.2 secs

     total energy              =    -702.42992520 Ry
     Harris-Foulkes estimate   =    -702.42992520 Ry
     estimated scf accuracy    <       0.00000002 Ry

     iteration # 27     ecut=    40.00 Ry     beta=0.60
     Davidson diagonalization with overlap
     ethr =  3.22E-11,  avg # of iterations =  2.4

     total cpu time spent up to now is     9478.9 secs

     total energy              =    -702.42992519 Ry
     Harris-Foulkes estimate   =    -702.42992520 Ry
     estimated scf accuracy    <       0.00000004 Ry

     iteration # 28     ecut=    40.00 Ry     beta=0.60
     Davidson diagonalization with overlap
     ethr =  3.22E-11,  avg # of iterations =  2.0

     total cpu time spent up to now is     9552.6 secs

     total energy              =    -702.42992519 Ry
     Harris-Foulkes estimate   =    -702.42992520 Ry
     estimated scf accuracy    <          7.6E-09 Ry

     iteration # 29     ecut=    40.00 Ry     beta=0.60
     Davidson diagonalization with overlap
     ethr =  1.03E-11,  avg # of iterations =  3.8

     total cpu time spent up to now is     9647.0 secs

     total energy              =    -702.42992520 Ry
     Harris-Foulkes estimate   =    -702.42992520 Ry
     estimated scf accuracy    <          7.6E-10 Ry

     iteration # 30     ecut=    40.00 Ry     beta=0.60
     Davidson diagonalization with overlap
     ethr =  1.03E-12,  avg # of iterations =  3.8

     total cpu time spent up to now is     9734.4 secs

     total energy              =    -702.42992520 Ry
     Harris-Foulkes estimate   =    -702.42992520 Ry
     estimated scf accuracy    <          3.9E-10 Ry

     iteration # 31     ecut=    40.00 Ry     beta=0.60
     Davidson diagonalization with overlap
     ethr =  5.33E-13,  avg # of iterations =  3.2

     total cpu time spent up to now is     9815.7 secs

     total energy              =    -702.42992520 Ry
     Harris-Foulkes estimate   =    -702.42992520 Ry
     estimated scf accuracy    <          2.0E-10 Ry

     iteration # 32     ecut=    40.00 Ry     beta=0.60
     Davidson diagonalization with overlap
     ethr =  2.73E-13,  avg # of iterations =  2.2

     total cpu time spent up to now is     9890.0 secs

     End of self-consistent calculation

     Number of k-points >= 100: set verbosity='high' to print the bands.

     the Fermi energy is    15.1722 ev

!    total energy              =    -702.42992520 Ry
     Harris-Foulkes estimate   =    -702.42992520 Ry
     estimated scf accuracy    <          3.8E-11 Ry

     The total energy is the sum of the following terms:

     one-electron contribution =    -197.28285742 Ry
     hartree contribution      =     127.38718560 Ry
     xc contribution           =     -94.98803355 Ry
     ewald contribution        =    -537.54070435 Ry
     smearing contrib. (-TS)   =      -0.00551548 Ry

     convergence has been achieved in  32 iterations

     Forces acting on atoms (Ry/au):

     atom    1 type  1   force =     0.00044058    0.00025437    0.00000000
     atom    2 type  2   force =    -0.00180438   -0.00104176    0.00000000
     atom    3 type  2   force =     0.00046801    0.00027020    0.00000000
     atom    4 type  2   force =    -0.00042999   -0.00024826    0.00000000
     atom    5 type  2   force =     0.00176698    0.00102017    0.00000000
     atom    6 type  1   force =    -0.00044119   -0.00025472    0.00000000

     Total force =     0.003092     Total SCF correction =     0.000007


     entering subroutine stress ...

          total   stress  (Ry/bohr**3)                   (kbar)     P=   12.81
   0.00007135   0.00000956   0.00000000         10.50      1.41      0.00
   0.00000956   0.00006031   0.00000000          1.41      8.87      0.00
   0.00000000   0.00000000   0.00012963          0.00      0.00     19.07


     number of scf cycles    =   3
     number of bfgs steps    =   2

     enthalpy old            =    -702.4208683931 Ry
     enthalpy new            =    -702.4299251961 Ry

     CASE: enthalpy_new < enthalpy_old

     new trust radius        =       0.0215406096 bohr
     new conv_thr            =            1.0E-10 Ry

     new unit-cell volume =    715.95917 a.u.^3 (   106.09420 Ang^3 )

CELL_PARAMETERS (alat=  1.88972599)
   5.850286532   5.061745019   0.000000000
  -7.308742713  -2.535624624   0.000000000
   0.000000000   0.000000000   4.787459480

ATOMIC_POSITIONS (angstrom)
Nb      -1.457317105   2.526778041   4.787459480
Ti      -1.463343742   0.839216613   2.393729740
Ti       1.463129888   2.528818761   4.787459480
Ti      -5.845830668  -1.691013583   2.393729740
Ti      -2.919311811  -0.001385323   4.787459480
Nb       2.924909647   3.372776077   2.393729740


     NEW-OLD atomic charge density approx. for the potential
     extrapolated charge   74.68718, renormalised to   74.00000

     total cpu time spent up to now is     9925.4 secs

     per-process dynamical memory:   254.9 Mb

     Self-consistent Calculation

     iteration #  1     ecut=    40.00 Ry     beta=0.60
     Davidson diagonalization with overlap
     c_bands:  1 eigenvalues not converged
     c_bands:  1 eigenvalues not converged
     c_bands:  2 eigenvalues not converged
     c_bands:  1 eigenvalues not converged
     c_bands:  1 eigenvalues not converged
     ethr =  1.00E-06,  avg # of iterations = 10.5

     total cpu time spent up to now is    10150.4 secs

     total energy              =    -702.38005689 Ry
     Harris-Foulkes estimate   =    -701.10788082 Ry
     estimated scf accuracy    <       0.04440668 Ry

     iteration #  2     ecut=    40.00 Ry     beta=0.60
     Davidson diagonalization with overlap
     ethr =  6.00E-05,  avg # of iterations =  5.7

     total cpu time spent up to now is    10327.9 secs

     total energy              =    -702.36567295 Ry
     Harris-Foulkes estimate   =    -702.52397167 Ry
     estimated scf accuracy    <       0.91874447 Ry

     iteration #  3     ecut=    40.00 Ry     beta=0.60
     Davidson diagonalization with overlap
     ethr =  6.00E-05,  avg # of iterations =  5.1

     total cpu time spent up to now is    10461.9 secs

     total energy              =    -702.42868199 Ry
     Harris-Foulkes estimate   =    -702.43904469 Ry
     estimated scf accuracy    <       0.03109172 Ry

     iteration #  4     ecut=    40.00 Ry     beta=0.60
     Davidson diagonalization with overlap
     ethr =  4.20E-05,  avg # of iterations =  5.0

     total cpu time spent up to now is    10560.4 secs

     total energy              =    -702.42800701 Ry
     Harris-Foulkes estimate   =    -702.43730349 Ry
     estimated scf accuracy    <       0.12503663 Ry

     iteration #  5     ecut=    40.00 Ry     beta=0.60
     Davidson diagonalization with overlap
     ethr =  4.20E-05,  avg # of iterations =  2.6

     total cpu time spent up to now is    10635.9 secs

     total energy              =    -702.43106689 Ry
     Harris-Foulkes estimate   =    -702.43205898 Ry
     estimated scf accuracy    <       0.01407500 Ry

     iteration #  6     ecut=    40.00 Ry     beta=0.60
     Davidson diagonalization with overlap
     ethr =  1.90E-05,  avg # of iterations =  3.6

     total cpu time spent up to now is    10716.6 secs

     total energy              =    -702.43110440 Ry
     Harris-Foulkes estimate   =    -702.43164639 Ry
     estimated scf accuracy    <       0.00864851 Ry

     iteration #  7     ecut=    40.00 Ry     beta=0.60
     Davidson diagonalization with overlap
     ethr =  1.17E-05,  avg # of iterations =  1.5

     total cpu time spent up to now is    10788.3 secs

     total energy              =    -702.43065731 Ry
     Harris-Foulkes estimate   =    -702.43126153 Ry
     estimated scf accuracy    <       0.00693165 Ry

     iteration #  8     ecut=    40.00 Ry     beta=0.60
     Davidson diagonalization with overlap
     ethr =  9.37E-06,  avg # of iterations =  1.3

     total cpu time spent up to now is    10859.3 secs

     total energy              =    -702.43010441 Ry
     Harris-Foulkes estimate   =    -702.43077386 Ry
     estimated scf accuracy    <       0.00433121 Ry

     iteration #  9     ecut=    40.00 Ry     beta=0.60
     Davidson diagonalization with overlap
     ethr =  5.85E-06,  avg # of iterations =  3.2

     total cpu time spent up to now is    10938.8 secs

     total energy              =    -702.43017784 Ry
     Harris-Foulkes estimate   =    -702.43032780 Ry
     estimated scf accuracy    <       0.00137715 Ry

     iteration # 10     ecut=    40.00 Ry     beta=0.60
     Davidson diagonalization with overlap
     ethr =  1.86E-06,  avg # of iterations =  4.9

     total cpu time spent up to now is    11032.1 secs

     total energy              =    -702.43018326 Ry
     Harris-Foulkes estimate   =    -702.43029385 Ry
     estimated scf accuracy    <       0.00052602 Ry

     iteration # 11     ecut=    40.00 Ry     beta=0.60
     Davidson diagonalization with overlap
     ethr =  7.11E-07,  avg # of iterations =  4.0

     total cpu time spent up to now is    11126.3 secs

     total energy              =    -702.43024580 Ry
     Harris-Foulkes estimate   =    -702.43025614 Ry
     estimated scf accuracy    <       0.00014316 Ry

     iteration # 12     ecut=    40.00 Ry     beta=0.60
     Davidson diagonalization with overlap
     ethr =  1.93E-07,  avg # of iterations =  2.7

     total cpu time spent up to now is    11205.7 secs

     total energy              =    -702.43025421 Ry
     Harris-Foulkes estimate   =    -702.43025617 Ry
     estimated scf accuracy    <       0.00003878 Ry

     iteration # 13     ecut=    40.00 Ry     beta=0.60
     Davidson diagonalization with overlap
     ethr =  5.24E-08,  avg # of iterations =  3.5

     total cpu time spent up to now is    11287.1 secs

     total energy              =    -702.43025433 Ry
     Harris-Foulkes estimate   =    -702.43025676 Ry
     estimated scf accuracy    <       0.00002584 Ry

     iteration # 14     ecut=    40.00 Ry     beta=0.60
     Davidson diagonalization with overlap
     ethr =  3.49E-08,  avg # of iterations =  1.2

     total cpu time spent up to now is    11358.4 secs

     total energy              =    -702.43025444 Ry
     Harris-Foulkes estimate   =    -702.43025499 Ry
     estimated scf accuracy    <       0.00001302 Ry

     iteration # 15     ecut=    40.00 Ry     beta=0.60
     Davidson diagonalization with overlap
     ethr =  1.76E-08,  avg # of iterations =  2.2

     total cpu time spent up to now is    11433.1 secs

     total energy              =    -702.43025313 Ry
     Harris-Foulkes estimate   =    -702.43025478 Ry
     estimated scf accuracy    <       0.00000800 Ry

     iteration # 16     ecut=    40.00 Ry     beta=0.60
     Davidson diagonalization with overlap
     ethr =  1.08E-08,  avg # of iterations =  4.0

     total cpu time spent up to now is    11529.2 secs

     total energy              =    -702.43025442 Ry
     Harris-Foulkes estimate   =    -702.43025452 Ry
     estimated scf accuracy    <       0.00000063 Ry

     iteration # 17     ecut=    40.00 Ry     beta=0.60
     Davidson diagonalization with overlap
     ethr =  8.49E-10,  avg # of iterations =  4.4

     total cpu time spent up to now is    11628.0 secs

     total energy              =    -702.43025450 Ry
     Harris-Foulkes estimate   =    -702.43025455 Ry
     estimated scf accuracy    <       0.00000034 Ry

     iteration # 18     ecut=    40.00 Ry     beta=0.60
     Davidson diagonalization with overlap
     ethr =  4.66E-10,  avg # of iterations =  2.4

     total cpu time spent up to now is    11704.0 secs

     total energy              =    -702.43025453 Ry
     Harris-Foulkes estimate   =    -702.43025453 Ry
     estimated scf accuracy    <          9.8E-09 Ry

     iteration # 19     ecut=    40.00 Ry     beta=0.60
     Davidson diagonalization with overlap
     ethr =  1.32E-11,  avg # of iterations =  5.8

     total cpu time spent up to now is    11848.9 secs

     total energy              =    -702.43025453 Ry
     Harris-Foulkes estimate   =    -702.43025454 Ry
     estimated scf accuracy    <       0.00000011 Ry

     iteration # 20     ecut=    40.00 Ry     beta=0.60
     Davidson diagonalization with overlap
     ethr =  1.32E-11,  avg # of iterations =  4.7

     total cpu time spent up to now is    11959.7 secs

     total energy              =    -702.43025453 Ry
     Harris-Foulkes estimate   =    -702.43025454 Ry
     estimated scf accuracy    <       0.00000004 Ry

     iteration # 21     ecut=    40.00 Ry     beta=0.60
     Davidson diagonalization with overlap
     ethr =  1.32E-11,  avg # of iterations =  3.8

     total cpu time spent up to now is    12057.3 secs

     total energy              =    -702.43025453 Ry
     Harris-Foulkes estimate   =    -702.43025453 Ry
     estimated scf accuracy    <          3.9E-09 Ry

     iteration # 22     ecut=    40.00 Ry     beta=0.60
     Davidson diagonalization with overlap
     ethr =  5.25E-12,  avg # of iterations =  3.4

     total cpu time spent up to now is    12142.6 secs

     total energy              =    -702.43025453 Ry
     Harris-Foulkes estimate   =    -702.43025453 Ry
     estimated scf accuracy    <          4.1E-09 Ry

     iteration # 23     ecut=    40.00 Ry     beta=0.60
     Davidson diagonalization with overlap
     ethr =  5.25E-12,  avg # of iterations =  1.1

     total cpu time spent up to now is    12213.6 secs

     total energy              =    -702.43025453 Ry
     Harris-Foulkes estimate   =    -702.43025453 Ry
     estimated scf accuracy    <          8.9E-10 Ry

     iteration # 24     ecut=    40.00 Ry     beta=0.60
     Davidson diagonalization with overlap
     ethr =  1.20E-12,  avg # of iterations =  4.4

     total cpu time spent up to now is    12308.5 secs

     End of self-consistent calculation

     Number of k-points >= 100: set verbosity='high' to print the bands.

     the Fermi energy is    14.9984 ev

!    total energy              =    -702.43025453 Ry
     Harris-Foulkes estimate   =    -702.43025453 Ry
     estimated scf accuracy    <          3.2E-11 Ry

     The total energy is the sum of the following terms:

     one-electron contribution =    -199.86787193 Ry
     hartree contribution      =     128.15270228 Ry
     xc contribution           =     -94.93509190 Ry
     ewald contribution        =    -535.77445960 Ry
     smearing contrib. (-TS)   =      -0.00553339 Ry

     convergence has been achieved in  24 iterations

     Forces acting on atoms (Ry/au):

     atom    1 type  1   force =     0.00057429    0.00033157    0.00000000
     atom    2 type  2   force =    -0.00179921   -0.00103877    0.00000000
     atom    3 type  2   force =     0.00041217    0.00023796    0.00000000
     atom    4 type  2   force =    -0.00038271   -0.00022096    0.00000000
     atom    5 type  2   force =     0.00177008    0.00102196    0.00000000
     atom    6 type  1   force =    -0.00057461   -0.00033175    0.00000000

     Total force =     0.003130     Total SCF correction =     0.000023


     entering subroutine stress ...

          total   stress  (Ry/bohr**3)                   (kbar)     P=   -0.60
  -0.00001566   0.00000922   0.00000000         -2.30      1.36      0.00
   0.00000922  -0.00002631   0.00000000          1.36     -3.87      0.00
   0.00000000   0.00000000   0.00002980          0.00      0.00      4.38


     number of scf cycles    =   4
     number of bfgs steps    =   3

     enthalpy old            =    -702.4299251961 Ry
     enthalpy new            =    -702.4302545343 Ry

     CASE: enthalpy_new < enthalpy_old

     new trust radius        =       0.0047685111 bohr
     new conv_thr            =            1.0E-10 Ry

     new unit-cell volume =    715.95191 a.u.^3 (   106.09313 Ang^3 )

CELL_PARAMETERS (alat=  1.88972599)
   5.849700925   5.060176607   0.000000000
  -7.307091624  -2.535901681   0.000000000
   0.000000000   0.000000000   4.791725411

ATOMIC_POSITIONS (angstrom)
Nb      -1.455952061   2.525105524   4.791725411
Ti      -1.463639178   0.837815731   2.395862705
Ti       1.463508420   2.527806994   4.791725411
Ti      -5.844630861  -1.691551186   2.395862705
Ti      -2.917469475  -0.001551962   4.791725411
Nb       2.924521331   3.371321571   2.395862705


     NEW-OLD atomic charge density approx. for the potential
     extrapolated charge   73.99929, renormalised to   74.00000

     total cpu time spent up to now is    12342.6 secs

     per-process dynamical memory:   254.9 Mb

     Self-consistent Calculation

     iteration #  1     ecut=    40.00 Ry     beta=0.60
     Davidson diagonalization with overlap
     ethr =  1.00E-06,  avg # of iterations =  3.0

     Threshold (ethr) on eigenvalues was too large:
     Diagonalizing with lowered threshold

     Davidson diagonalization with overlap
     ethr =  9.25E-08,  avg # of iterations =  2.5

     total cpu time spent up to now is    12546.6 secs

     total energy              =    -702.43024042 Ry
     Harris-Foulkes estimate   =    -702.43167614 Ry
     estimated scf accuracy    <       0.00007631 Ry

     iteration #  2     ecut=    40.00 Ry     beta=0.60
     Davidson diagonalization with overlap
     ethr =  1.03E-07,  avg # of iterations =  6.1

     total cpu time spent up to now is    12694.7 secs

     total energy              =    -702.42974151 Ry
     Harris-Foulkes estimate   =    -702.43086387 Ry
     estimated scf accuracy    <       0.01511792 Ry

     iteration #  3     ecut=    40.00 Ry     beta=0.60
     Davidson diagonalization with overlap
     ethr =  1.03E-07,  avg # of iterations =  6.1

     total cpu time spent up to now is    12840.2 secs

     total energy              =    -702.43029758 Ry
     Harris-Foulkes estimate   =    -702.43029893 Ry
     estimated scf accuracy    <       0.00000499 Ry

     iteration #  4     ecut=    40.00 Ry     beta=0.60
     Davidson diagonalization with overlap
     ethr =  6.75E-09,  avg # of iterations =  4.1

     total cpu time spent up to now is    12943.6 secs

     total energy              =    -702.43029760 Ry
     Harris-Foulkes estimate   =    -702.43029917 Ry
     estimated scf accuracy    <       0.00000986 Ry

     iteration #  5     ecut=    40.00 Ry     beta=0.60
     Davidson diagonalization with overlap
     ethr =  6.75E-09,  avg # of iterations =  3.6

     total cpu time spent up to now is    13030.1 secs

     total energy              =    -702.43029811 Ry
     Harris-Foulkes estimate   =    -702.43029866 Ry
     estimated scf accuracy    <       0.00000413 Ry

     iteration #  6     ecut=    40.00 Ry     beta=0.60
     Davidson diagonalization with overlap
     ethr =  5.59E-09,  avg # of iterations =  1.4

     total cpu time spent up to now is    13102.1 secs

     total energy              =    -702.43029841 Ry
     Harris-Foulkes estimate   =    -702.43029847 Ry
     estimated scf accuracy    <       0.00000038 Ry

     iteration #  7     ecut=    40.00 Ry     beta=0.60
     Davidson diagonalization with overlap
     ethr =  5.09E-10,  avg # of iterations =  4.9

     total cpu time spent up to now is    13213.6 secs

     total energy              =    -702.43029841 Ry
     Harris-Foulkes estimate   =    -702.43029863 Ry
     estimated scf accuracy    <       0.00000177 Ry

     iteration #  8     ecut=    40.00 Ry     beta=0.60
     Davidson diagonalization with overlap
     ethr =  5.09E-10,  avg # of iterations =  4.1

     total cpu time spent up to now is    13308.1 secs

     total energy              =    -702.43029850 Ry
     Harris-Foulkes estimate   =    -702.43029852 Ry
     estimated scf accuracy    <       0.00000018 Ry

     iteration #  9     ecut=    40.00 Ry     beta=0.60
     Davidson diagonalization with overlap
     ethr =  2.39E-10,  avg # of iterations =  2.3

     total cpu time spent up to now is    13384.4 secs

     total energy              =    -702.43029850 Ry
     Harris-Foulkes estimate   =    -702.43029851 Ry
     estimated scf accuracy    <       0.00000005 Ry

     iteration # 10     ecut=    40.00 Ry     beta=0.60
     Davidson diagonalization with overlap
     ethr =  7.22E-11,  avg # of iterations =  4.0

     total cpu time spent up to now is    13479.7 secs

     total energy              =    -702.43029851 Ry
     Harris-Foulkes estimate   =    -702.43029851 Ry
     estimated scf accuracy    <       0.00000001 Ry

     iteration # 11     ecut=    40.00 Ry     beta=0.60
     Davidson diagonalization with overlap
     ethr =  1.44E-11,  avg # of iterations =  2.5

     total cpu time spent up to now is    13557.1 secs

     total energy              =    -702.43029851 Ry
     Harris-Foulkes estimate   =    -702.43029851 Ry
     estimated scf accuracy    <          2.7E-09 Ry

     iteration # 12     ecut=    40.00 Ry     beta=0.60
     Davidson diagonalization with overlap
     ethr =  3.66E-12,  avg # of iterations =  4.1

     total cpu time spent up to now is    13655.2 secs

     total energy              =    -702.43029851 Ry
     Harris-Foulkes estimate   =    -702.43029851 Ry
     estimated scf accuracy    <          9.8E-10 Ry

     iteration # 13     ecut=    40.00 Ry     beta=0.60
     Davidson diagonalization with overlap
     ethr =  1.32E-12,  avg # of iterations =  1.1

     total cpu time spent up to now is    13726.6 secs

     total energy              =    -702.43029851 Ry
     Harris-Foulkes estimate   =    -702.43029851 Ry
     estimated scf accuracy    <          1.4E-10 Ry

     iteration # 14     ecut=    40.00 Ry     beta=0.60
     Davidson diagonalization with overlap
     ethr =  1.93E-13,  avg # of iterations =  4.7

     total cpu time spent up to now is    13833.5 secs

     total energy              =    -702.43029851 Ry
     Harris-Foulkes estimate   =    -702.43029851 Ry
     estimated scf accuracy    <          1.5E-10 Ry

     iteration # 15     ecut=    40.00 Ry     beta=0.60
     Davidson diagonalization with overlap
     ethr =  1.93E-13,  avg # of iterations =  1.0

     total cpu time spent up to now is    13904.4 secs

     End of self-consistent calculation

     Number of k-points >= 100: set verbosity='high' to print the bands.

     the Fermi energy is    14.9975 ev

!    total energy              =    -702.43029851 Ry
     Harris-Foulkes estimate   =    -702.43029851 Ry
     estimated scf accuracy    <          2.8E-11 Ry

     The total energy is the sum of the following terms:

     one-electron contribution =    -199.87035910 Ry
     hartree contribution      =     128.15509101 Ry
     xc contribution           =     -94.93542178 Ry
     ewald contribution        =    -535.77411876 Ry
     smearing contrib. (-TS)   =      -0.00548988 Ry

     convergence has been achieved in  15 iterations

     Forces acting on atoms (Ry/au):

     atom    1 type  1   force =     0.00071197    0.00041106    0.00000000
     atom    2 type  2   force =    -0.00180905   -0.00104445    0.00000000
     atom    3 type  2   force =     0.00050393    0.00029095    0.00000000
     atom    4 type  2   force =    -0.00047990   -0.00027707    0.00000000
     atom    5 type  2   force =     0.00178397    0.00102998    0.00000000
     atom    6 type  1   force =    -0.00071093   -0.00041046    0.00000000

     Total force =     0.003256     Total SCF correction =     0.000017


     entering subroutine stress ...

          total   stress  (Ry/bohr**3)                   (kbar)     P=   -0.64
  -0.00001354   0.00000863   0.00000000         -1.99      1.27      0.00
   0.00000863  -0.00002350   0.00000000          1.27     -3.46      0.00
   0.00000000   0.00000000   0.00002390          0.00      0.00      3.52


     number of scf cycles    =   5
     number of bfgs steps    =   4

     enthalpy old            =    -702.4302545343 Ry
     enthalpy new            =    -702.4302985082 Ry

     CASE: enthalpy_new < enthalpy_old


     WARNING: bfgs curvature condition failed, Theta= 0.902
     new trust radius        =       0.0071463625 bohr
     new conv_thr            =            1.0E-10 Ry

     new unit-cell volume =    715.84971 a.u.^3 (   106.07798 Ang^3 )

CELL_PARAMETERS (alat=  1.88972599)
   5.848829933   5.057637398   0.000000000
  -7.304457108  -2.536416983   0.000000000
   0.000000000   0.000000000   4.798124307

ATOMIC_POSITIONS (angstrom)
Nb      -1.453560011   2.522413892   4.798124307
Ti      -1.464252573   0.835425248   2.399062153
Ti       1.464257215   2.526202970   4.798124307
Ti      -5.842813124  -1.692538054   2.399062153
Ti      -2.914338201  -0.001780462   4.798124307
Nb       2.923801451   3.368869609   2.399062153


     NEW-OLD atomic charge density approx. for the potential
     extrapolated charge   73.99001, renormalised to   74.00000

     total cpu time spent up to now is    13938.8 secs

     per-process dynamical memory:   254.9 Mb

     Self-consistent Calculation

     iteration #  1     ecut=    40.00 Ry     beta=0.60
     Davidson diagonalization with overlap
[...]

     iteration #  1     ecut=    40.00 Ry     beta=0.60
     Davidson diagonalization with overlap
     c_bands:  1 eigenvalues not converged
     c_bands:  1 eigenvalues not converged
     c_bands:  1 eigenvalues not converged
     c_bands:  1 eigenvalues not converged
     c_bands:  1 eigenvalues not converged
     c_bands:  1 eigenvalues not converged
     c_bands:  1 eigenvalues not converged
     c_bands:  1 eigenvalues not converged
     c_bands:  2 eigenvalues not converged
     c_bands:  2 eigenvalues not converged
     c_bands:  3 eigenvalues not converged
     c_bands:  2 eigenvalues not converged
     c_bands:  1 eigenvalues not converged
     c_bands:  1 eigenvalues not converged
     c_bands:  1 eigenvalues not converged
     c_bands:  2 eigenvalues not converged
     c_bands:  1 eigenvalues not converged
     c_bands:  3 eigenvalues not converged
     c_bands:  3 eigenvalues not converged
     c_bands:  1 eigenvalues not converged
     c_bands:  1 eigenvalues not converged
     c_bands:  1 eigenvalues not converged
     c_bands:  1 eigenvalues not converged
     c_bands:  1 eigenvalues not converged
     c_bands:  1 eigenvalues not converged
     c_bands:  1 eigenvalues not converged
     c_bands:  2 eigenvalues not converged
     c_bands:  2 eigenvalues not converged
     c_bands:  2 eigenvalues not converged
     c_bands:  2 eigenvalues not converged
     c_bands:  1 eigenvalues not converged
     c_bands:  1 eigenvalues not converged
     c_bands:  2 eigenvalues not converged
     c_bands:  2 eigenvalues not converged
     c_bands:  2 eigenvalues not converged
     c_bands:  3 eigenvalues not converged
     c_bands:  3 eigenvalues not converged
     c_bands:  1 eigenvalues not converged
     c_bands:  1 eigenvalues not converged
     c_bands:  1 eigenvalues not converged
     c_bands:  1 eigenvalues not converged
     c_bands:  3 eigenvalues not converged
     c_bands:  3 eigenvalues not converged
     c_bands:  3 eigenvalues not converged
     c_bands:  3 eigenvalues not converged
     c_bands:  1 eigenvalues not converged
     c_bands:  1 eigenvalues not converged
     c_bands:  1 eigenvalues not converged
     c_bands:  1 eigenvalues not converged
     c_bands:  1 eigenvalues not converged
     c_bands:  1 eigenvalues not converged
     c_bands:  1 eigenvalues not converged
     c_bands:  1 eigenvalues not converged
     c_bands:  1 eigenvalues not converged
     c_bands:  1 eigenvalues not converged
     c_bands:  2 eigenvalues not converged
     c_bands:  2 eigenvalues not converged
     c_bands:  2 eigenvalues not converged
     c_bands:  2 eigenvalues not converged
     c_bands:  1 eigenvalues not converged
     c_bands:  1 eigenvalues not converged
     c_bands:  2 eigenvalues not converged
     c_bands:  2 eigenvalues not converged
     c_bands:  2 eigenvalues not converged
     c_bands:  3 eigenvalues not converged
     c_bands:  2 eigenvalues not converged
     c_bands:  1 eigenvalues not converged
     c_bands:  1 eigenvalues not converged
     c_bands:  1 eigenvalues not converged
     c_bands:  1 eigenvalues not converged
     c_bands:  2 eigenvalues not converged
     c_bands:  3 eigenvalues not converged
     c_bands:  3 eigenvalues not converged
     c_bands:  1 eigenvalues not converged
     c_bands:  1 eigenvalues not converged
     c_bands:  1 eigenvalues not converged
     c_bands:  1 eigenvalues not converged
     c_bands:  1 eigenvalues not converged
     c_bands:  1 eigenvalues not converged
     c_bands:  1 eigenvalues not converged
     c_bands:  1 eigenvalues not converged
     c_bands:  1 eigenvalues not converged
     c_bands:  1 eigenvalues not converged
     c_bands:  1 eigenvalues not converged
     c_bands:  1 eigenvalues not converged
     c_bands:  3 eigenvalues not converged
     c_bands:  5 eigenvalues not converged
     c_bands:  3 eigenvalues not converged
     c_bands:  1 eigenvalues not converged
     c_bands:  1 eigenvalues not converged
     c_bands:  1 eigenvalues not converged
     c_bands:  1 eigenvalues not converged
     c_bands:  1 eigenvalues not converged
     c_bands:  1 eigenvalues not converged
     c_bands:  1 eigenvalues not converged
     c_bands:  1 eigenvalues not converged
     c_bands:  1 eigenvalues not converged
     c_bands:  1 eigenvalues not converged
     c_bands:  1 eigenvalues not converged
     c_bands:  1 eigenvalues not converged
     c_bands:  1 eigenvalues not converged
     c_bands:  1 eigenvalues not converged
     c_bands:  1 eigenvalues not converged
     c_bands:  1 eigenvalues not converged
     c_bands:  1 eigenvalues not converged
     c_bands:  1 eigenvalues not converged
     c_bands:  1 eigenvalues not converged
     c_bands:  1 eigenvalues not converged
     c_bands:  1 eigenvalues not converged
     c_bands:  1 eigenvalues not converged
     c_bands:  1 eigenvalues not converged
     c_bands:  1 eigenvalues not converged
     c_bands:  1 eigenvalues not converged
     c_bands:  1 eigenvalues not converged
     c_bands:  1 eigenvalues not converged
     c_bands:  1 eigenvalues not converged
     c_bands:  1 eigenvalues not converged
     c_bands:  1 eigenvalues not converged
     c_bands:  1 eigenvalues not converged
     c_bands:  1 eigenvalues not converged
     c_bands:  2 eigenvalues not converged
     c_bands:  1 eigenvalues not converged
     c_bands:  2 eigenvalues not converged
     c_bands:  2 eigenvalues not converged
     ethr =  1.00E-06,  avg # of iterations = 17.8

     total cpu time spent up to now is    65166.1 secs

     total energy              =    -697.88120715 Ry
     Harris-Foulkes estimate   =    -704.30208549 Ry
     estimated scf accuracy    <       8.34538607 Ry

     iteration #  2     ecut=    40.00 Ry     beta=0.60
     Davidson diagonalization with overlap
     ethr =  1.00E-02,  avg # of iterations =  4.7

     total cpu time spent up to now is    65292.0 secs

     total energy              =    -697.50336707 Ry
     Harris-Foulkes estimate   =    -712.28781746 Ry
     estimated scf accuracy    <      50.17368015 Ry

     iteration #  3     ecut=    40.00 Ry     beta=0.60
     Davidson diagonalization with overlap
     ethr =  1.00E-02,  avg # of iterations =  5.1

     total cpu time spent up to now is    65401.1 secs

     total energy              =    -702.25017847 Ry
     Harris-Foulkes estimate   =    -702.45182626 Ry
     estimated scf accuracy    <       0.66486908 Ry

     iteration #  4     ecut=    40.00 Ry     beta=0.60
     Davidson diagonalization with overlap
     ethr =  8.98E-04,  avg # of iterations =  6.5

     total cpu time spent up to now is    65538.5 secs

     total energy              =    -701.93607533 Ry
     Harris-Foulkes estimate   =    -702.79476110 Ry
     estimated scf accuracy    <       8.49243493 Ry

     iteration #  5     ecut=    40.00 Ry     beta=0.60
     Davidson diagonalization with overlap
     ethr =  8.98E-04,  avg # of iterations =  5.8

     total cpu time spent up to now is    65656.6 secs

     total energy              =    -702.41110479 Ry
     Harris-Foulkes estimate   =    -702.50462713 Ry
     estimated scf accuracy    <       1.53045466 Ry

     iteration #  6     ecut=    40.00 Ry     beta=0.60
     Davidson diagonalization with overlap
     ethr =  8.98E-04,  avg # of iterations =  1.1

     total cpu time spent up to now is    65721.5 secs

     total energy              =    -702.41299475 Ry
     Harris-Foulkes estimate   =    -702.45299026 Ry
     estimated scf accuracy    <       0.36946671 Ry

     iteration #  7     ecut=    40.00 Ry     beta=0.60
     Davidson diagonalization with overlap
     ethr =  4.99E-04,  avg # of iterations =  2.8

     total cpu time spent up to now is    65792.4 secs

     total energy              =    -702.43225738 Ry
     Harris-Foulkes estimate   =    -702.44072639 Ry
     estimated scf accuracy    <       0.07033697 Ry

     iteration #  8     ecut=    40.00 Ry     beta=0.60
     Davidson diagonalization with overlap
     ethr =  9.50E-05,  avg # of iterations =  6.5

     total cpu time spent up to now is    65896.2 secs

     total energy              =    -702.43432298 Ry
     Harris-Foulkes estimate   =    -702.44545085 Ry
     estimated scf accuracy    <       0.09952496 Ry

     iteration #  9     ecut=    40.00 Ry     beta=0.60
     Davidson diagonalization with overlap
     ethr =  9.50E-05,  avg # of iterations =  1.3

     total cpu time spent up to now is    65961.6 secs

     total energy              =    -702.43139698 Ry
     Harris-Foulkes estimate   =    -702.43934381 Ry
     estimated scf accuracy    <       0.05249380 Ry

     iteration # 10     ecut=    40.00 Ry     beta=0.60
     Davidson diagonalization with overlap
     ethr =  7.09E-05,  avg # of iterations =  2.9

     total cpu time spent up to now is    66035.7 secs

     total energy              =    -702.43612666 Ry
     Harris-Foulkes estimate   =    -702.43704895 Ry
     estimated scf accuracy    <       0.00321459 Ry

     iteration # 11     ecut=    40.00 Ry     beta=0.60
     Davidson diagonalization with overlap
     c_bands:  1 eigenvalues not converged
     c_bands:  2 eigenvalues not converged
     c_bands:  1 eigenvalues not converged
     c_bands:  2 eigenvalues not converged
     c_bands:  1 eigenvalues not converged
     ethr =  4.34E-06,  avg # of iterations =  8.4

     total cpu time spent up to now is    66177.4 secs

     total energy              =    -702.43685477 Ry
     Harris-Foulkes estimate   =    -702.43818217 Ry
     estimated scf accuracy    <       0.01559212 Ry

     iteration # 12     ecut=    40.00 Ry     beta=0.60
     Davidson diagonalization with overlap
     c_bands:  1 eigenvalues not converged
     ethr =  4.34E-06,  avg # of iterations =  3.8

     total cpu time spent up to now is    66254.4 secs

     total energy              =    -702.43666387 Ry
     Harris-Foulkes estimate   =    -702.43757597 Ry
     estimated scf accuracy    <       0.00466157 Ry

     iteration # 13     ecut=    40.00 Ry     beta=0.60
     Davidson diagonalization with overlap
     ethr =  4.34E-06,  avg # of iterations =  3.3

     total cpu time spent up to now is    66335.0 secs

     total energy              =    -702.43715738 Ry
     Harris-Foulkes estimate   =    -702.43717276 Ry
     estimated scf accuracy    <       0.00011265 Ry

     iteration # 14     ecut=    40.00 Ry     beta=0.60
     Davidson diagonalization with overlap
     c_bands:  1 eigenvalues not converged
     c_bands:  1 eigenvalues not converged
     c_bands:  1 eigenvalues not converged
     ethr =  1.52E-07,  avg # of iterations =  6.0

     total cpu time spent up to now is    66442.3 secs

     total energy              =    -702.43718336 Ry
     Harris-Foulkes estimate   =    -702.43720197 Ry
     estimated scf accuracy    <       0.00009904 Ry

     iteration # 15     ecut=    40.00 Ry     beta=0.60
     Davidson diagonalization with overlap
     ethr =  1.34E-07,  avg # of iterations =  1.2

     total cpu time spent up to now is    66508.1 secs

     total energy              =    -702.43718964 Ry
     Harris-Foulkes estimate   =    -702.43719035 Ry
     estimated scf accuracy    <       0.00000483 Ry

     iteration # 16     ecut=    40.00 Ry     beta=0.60
     Davidson diagonalization with overlap
     ethr =  6.52E-09,  avg # of iterations =  5.0

     total cpu time spent up to now is    66616.5 secs

     total energy              =    -702.43719296 Ry
     Harris-Foulkes estimate   =    -702.43719389 Ry
     estimated scf accuracy    <       0.00000922 Ry

     iteration # 17     ecut=    40.00 Ry     beta=0.60
     Davidson diagonalization with overlap
     ethr =  6.52E-09,  avg # of iterations =  1.0

     total cpu time spent up to now is    66681.6 secs

     total energy              =    -702.43719280 Ry
     Harris-Foulkes estimate   =    -702.43719319 Ry
     estimated scf accuracy    <       0.00000242 Ry

     iteration # 18     ecut=    40.00 Ry     beta=0.60
     Davidson diagonalization with overlap
     ethr =  3.27E-09,  avg # of iterations =  3.5

     total cpu time spent up to now is    66767.9 secs

     total energy              =    -702.43719311 Ry
     Harris-Foulkes estimate   =    -702.43719324 Ry
     estimated scf accuracy    <       0.00000112 Ry

     iteration # 19     ecut=    40.00 Ry     beta=0.60
     Davidson diagonalization with overlap
     ethr =  1.51E-09,  avg # of iterations =  1.0

     total cpu time spent up to now is    66832.9 secs

     total energy              =    -702.43719317 Ry
     Harris-Foulkes estimate   =    -702.43719318 Ry
     estimated scf accuracy    <       0.00000008 Ry

     iteration # 20     ecut=    40.00 Ry     beta=0.60
     Davidson diagonalization with overlap
     ethr =  1.13E-10,  avg # of iterations =  4.6

     total cpu time spent up to now is    66931.7 secs

     total energy              =    -702.43719319 Ry
     Harris-Foulkes estimate   =    -702.43719320 Ry
     estimated scf accuracy    <       0.00000014 Ry

     iteration # 21     ecut=    40.00 Ry     beta=0.60
     Davidson diagonalization with overlap
     ethr =  1.13E-10,  avg # of iterations =  3.5

     total cpu time spent up to now is    67014.9 secs

     total energy              =    -702.43719319 Ry
     Harris-Foulkes estimate   =    -702.43719321 Ry
     estimated scf accuracy    <       0.00000017 Ry

     iteration # 22     ecut=    40.00 Ry     beta=0.60
     Davidson diagonalization with overlap
     ethr =  1.13E-10,  avg # of iterations =  1.0

     total cpu time spent up to now is    67079.9 secs

     total energy              =    -702.43719319 Ry
     Harris-Foulkes estimate   =    -702.43719319 Ry
     estimated scf accuracy    <       0.00000005 Ry

     iteration # 23     ecut=    40.00 Ry     beta=0.60
     Davidson diagonalization with overlap
     ethr =  6.48E-11,  avg # of iterations =  3.4

     total cpu time spent up to now is    67164.6 secs

     total energy              =    -702.43719319 Ry
     Harris-Foulkes estimate   =    -702.43719319 Ry
     estimated scf accuracy    <          2.8E-09 Ry

     iteration # 24     ecut=    40.00 Ry     beta=0.60
     Davidson diagonalization with overlap
     ethr =  3.85E-12,  avg # of iterations =  3.6

     total cpu time spent up to now is    67246.7 secs

     total energy              =    -702.43719319 Ry
     Harris-Foulkes estimate   =    -702.43719319 Ry
     estimated scf accuracy    <          1.4E-09 Ry

     iteration # 25     ecut=    40.00 Ry     beta=0.60
     Davidson diagonalization with overlap
     ethr =  1.93E-12,  avg # of iterations =  2.1

     total cpu time spent up to now is    67315.6 secs

     total energy              =    -702.43719319 Ry
     Harris-Foulkes estimate   =    -702.43719319 Ry
     estimated scf accuracy    <          1.7E-10 Ry

     iteration # 26     ecut=    40.00 Ry     beta=0.60
     Davidson diagonalization with overlap
     ethr =  2.25E-13,  avg # of iterations =  4.4

     total cpu time spent up to now is    67411.7 secs

     total energy              =    -702.43719319 Ry
     Harris-Foulkes estimate   =    -702.43719319 Ry
     estimated scf accuracy    <          3.1E-11 Ry

     iteration # 27     ecut=    40.00 Ry     beta=0.60
     Davidson diagonalization with overlap
     ethr =  1.00E-13,  avg # of iterations =  1.1

     total cpu time spent up to now is    67477.1 secs

     total energy              =    -702.43719319 Ry
     Harris-Foulkes estimate   =    -702.43719319 Ry
     estimated scf accuracy    <          3.4E-12 Ry

     iteration # 28     ecut=    40.00 Ry     beta=0.60
     Davidson diagonalization with overlap
     ethr =  1.00E-13,  avg # of iterations =  1.0

     total cpu time spent up to now is    67542.1 secs

     End of self-consistent calculation

     Number of k-points >= 100: set verbosity='high' to print the bands.

     the Fermi energy is    14.9838 ev

!    total energy              =    -702.43719319 Ry
     Harris-Foulkes estimate   =    -702.43719319 Ry
     estimated scf accuracy    <          7.9E-13 Ry

     The total energy is the sum of the following terms:

     one-electron contribution =    -198.54182122 Ry
     hartree contribution      =     127.80573796 Ry
     xc contribution           =     -94.98121086 Ry
     ewald contribution        =    -536.71909417 Ry
     smearing contrib. (-TS)   =      -0.00080491 Ry

     convergence has been achieved in  28 iterations

     Forces acting on atoms (Ry/au):

     atom    1 type  1   force =     0.00004136    0.00002388    0.00000000
     atom    2 type  2   force =     0.00001918    0.00001108    0.00000000
     atom    3 type  2   force =    -0.00002289   -0.00001321    0.00000000
     atom    4 type  2   force =     0.00005099    0.00002944    0.00000000
     atom    5 type  2   force =    -0.00004260   -0.00002459    0.00000000
     atom    6 type  1   force =    -0.00004606   -0.00002659    0.00000000

     Total force =     0.000110     Total SCF correction =     0.000001


     entering subroutine stress ...

          total   stress  (Ry/bohr**3)                   (kbar)     P=   -4.73
  -0.00002427   0.00001168   0.00000000         -3.57      1.72      0.00
   0.00001168  -0.00003775   0.00000000          1.72     -5.55      0.00
   0.00000000   0.00000000  -0.00003437          0.00      0.00     -5.06


     init_run     :     80.20s CPU     82.24s WALL (       2 calls)
     electrons    :  65112.73s CPU  66358.49s WALL (      32 calls)
     update_pot   :     86.40s CPU     86.97s WALL (      30 calls)
     forces       :    409.66s CPU    413.04s WALL (      32 calls)
     stress       :    607.50s CPU    613.98s WALL (      32 calls)

     Called by init_run:
     wfcinit      :     75.92s CPU     77.62s WALL (       2 calls)
     potinit      :      1.42s CPU      1.46s WALL (       2 calls)

     Called by electrons:
     c_bands      :  55351.59s CPU  56348.00s WALL (     651 calls)
     sum_band     :   9442.62s CPU   9663.04s WALL (     651 calls)
     v_of_rho     :    104.14s CPU    105.91s WALL (     674 calls)
     newd         :    205.52s CPU    233.40s WALL (     674 calls)
     mix_rho      :     13.04s CPU     13.28s WALL (     651 calls)

     Called by c_bands:
     init_us_2    :    474.80s CPU    481.34s WALL (  339264 calls)
     cegterg      :  54316.69s CPU  55297.49s WALL (  161449 calls)

     Called by sum_band:
     sum_band:bec :     26.51s CPU     26.65s WALL (  161448 calls)
     addusdens    :    259.23s CPU    295.58s WALL (     651 calls)

     Called by *egterg:
     h_psi        :  33243.09s CPU  34068.31s WALL (  738375 calls)
     s_psi        :   4264.57s CPU   4283.70s WALL (  738375 calls)
     g_psi        :     73.97s CPU     74.35s WALL (  576430 calls)
     cdiaghg      :   4916.24s CPU   4941.04s WALL (  728206 calls)

     Called by h_psi:
     h_psi:pot    :  32992.68s CPU  33814.96s WALL (  738375 calls)
     h_psi:calbec :   4654.23s CPU   4722.50s WALL (  738375 calls)
     vloc_psi     :  24286.76s CPU  25026.86s WALL (  738375 calls)
     add_vuspsi   :   4045.68s CPU   4062.04s WALL (  738375 calls)

     General routines
     calbec       :   6748.21s CPU   6837.32s WALL (  939503 calls)
     fft          :     61.37s CPU     63.25s WALL (   11522 calls)
     ffts         :      0.68s CPU      0.71s WALL (    1325 calls)
     fftw         :  15269.57s CPU  15828.96s WALL (43640456 calls)
     interpolate  :     11.69s CPU     11.93s WALL (    1325 calls)

     Parallel routines
     fft_scatter  :   4059.21s CPU   4415.90s WALL (43653303 calls)

     PWSCF        :    18h25m CPU       18h46m WALL


   This run was terminated on:   7:54:38   9May2018            

=------------------------------------------------------------------------------=
   JOB DONE.
=------------------------------------------------------------------------------=
