
     Program PWSCF v.6.3MaX starts on 31Jan2020 at 12: 3:51 

     This program is part of the open-source Quantum ESPRESSO suite
     for quantum simulation of materials; please cite
         "P. Giannozzi et al., J. Phys.:Condens. Matter 21 395502 (2009);
         "P. Giannozzi et al., J. Phys.:Condens. Matter 29 465901 (2017);
          URL http://www.quantum-espresso.org", 
     in publications or presentations arising from this work. More details at
     http://www.quantum-espresso.org/quote

     Parallel version (MPI), running on     4 processors

     MPI processes distributed on     1 nodes
     R & G space division:  proc/nbgrp/npool/nimage =       4
     Waiting for input...
     Reading input from standard input

     Current dimensions of program PWSCF are:
     Max number of different atomic species (ntypx) = 10
     Max number of k-points (npk) =  40000
     Max angular momentum in pseudopotentials (lmaxx) =  3
     Message from routine iosys:
     minimal I/O required, wf_collect reset to FALSE

     Subspace diagonalization in iterative solution of the eigenvalue problem:
     a serial algorithm will be used

 
     Parallelization info
     --------------------
     sticks:   dense  smooth     PW     G-vecs:    dense   smooth      PW
     Min        1281     514    159                34640     8741    1516
     Max        1282     515    160                34641     8742    1517
     Sum        5125    2057    637               138561    34965    6067
 


     bravais-lattice index     =            0
     lattice parameter (alat)  =       1.8897  a.u.
     unit-cell volume          =     733.3418 (a.u.)^3
     number of atoms/cell      =            5
     number of atomic types    =            2
     number of electrons       =        62.00
     number of Kohn-Sham states=           37
     kinetic-energy cutoff     =      50.0000  Ry
     charge density cutoff     =     500.0000  Ry
     convergence threshold     =      1.0E-10
     mixing beta               =       0.6000
     number of iterations used =            8  plain     mixing
     Exchange-correlation      = SLA PW PBE PBE ( 1  4  3  4 0 0)
     nstep                     =           50


     celldm(1)=   1.889726  celldm(2)=   0.000000  celldm(3)=   0.000000
     celldm(4)=   0.000000  celldm(5)=   0.000000  celldm(6)=   0.000000

     crystal axes: (cart. coord. in units of alat)
               a(1) = (   5.274095   1.758031   5.274095 )  
               a(2) = (   1.758031   5.274095   5.274095 )  
               a(3) = (  -1.758031  -1.758031   1.758031 )  

     reciprocal axes: (cart. coord. in units 2 pi/alat)
               b(1) = (  0.170645 -0.113764  0.056882 )  
               b(2) = ( -0.113764  0.170645  0.056882 )  
               b(3) = ( -0.170645 -0.170645  0.227527 )  


     PseudoPot. # 1 for Nb read from file:
     ./Nb.pbe-nsp-van.UPF
     MD5 check sum: 0a22fc7fb0ba19a08ca5db297a5d2854
     Pseudo is Ultrasoft + core correction, Zval = 13.0
     Generated by new atomic code, or converted to UPF format
     Using radial grid of  887 points,  6 beta functions with: 
                l(1) =   0
                l(2) =   0
                l(3) =   1
                l(4) =   1
                l(5) =   2
                l(6) =   2
     Q(r) pseudized with  6 coefficients,  rinner =    1.000   1.000   1.000
                                                       1.000   1.000

     PseudoPot. # 2 for Ti read from file:
     ./Ti.pbe-sp-van_ak.UPF
     MD5 check sum: f98fea3e8887528921fefa5636a534ca
     Pseudo is Ultrasoft, Zval = 12.0
     Generated by new atomic code, or converted to UPF format
     Using radial grid of  851 points,  6 beta functions with: 
                l(1) =   0
                l(2) =   0
                l(3) =   1
                l(4) =   1
                l(5) =   2
                l(6) =   2
     Q(r) pseudized with  8 coefficients,  rinner =    1.000   1.000   1.000
                                                       1.000   1.000

     atomic species   valence    mass     pseudopotential
        Nb            13.00    92.90638     Nb( 1.00)
        Ti            12.00    47.86700     Ti( 1.00)

      2 Sym. Ops. (no inversion) found
          (note:  2 additional sym.ops. were found but ignored
           their fractional translations are incommensurate with FFT grid)


   Cartesian axes

     site n.     atom                  positions (alat units)
         1           Ti  tau(   1) = (   0.0000000   0.0000000   3.5160633  )
         2           Ti  tau(   2) = (   1.7580316   1.7580316   5.2740949  )
         3           Ti  tau(   3) = (   3.5160633   3.5160633   7.0321265  )
         4           Nb  tau(   4) = (   5.2740949   5.2740949   8.7901582  )
         5           Nb  tau(   5) = (   5.2740949   5.2740949  12.3062214  )

     number of k points=   500  Marzari-Vanderbilt smearing, width (Ry)=  0.0200

     Number of k-points >= 100: set verbosity='high' to print them.

     Dense  grid:   138561 G-vectors     FFT dimensions: ( 108, 108,  45)

     Smooth grid:    34965 G-vectors     FFT dimensions: (  72,  72,  25)

     Estimated max dynamical RAM per process >     444.23 MB

     Estimated total dynamical RAM >       1.74 GB

     Initial potential from superposition of free atoms

     starting charge   58.99440, renormalised to   62.00000
     Starting wfcs are   56 randomized atomic wfcs

     total cpu time spent up to now is       33.4 secs

     Self-consistent Calculation

     iteration #  1     ecut=    50.00 Ry     beta= 0.60
     Davidson diagonalization with overlap
     ethr =  1.00E-02,  avg # of iterations =  3.4

     total cpu time spent up to now is      113.1 secs

     total energy              =    -569.51747779 Ry
     Harris-Foulkes estimate   =    -588.23795672 Ry
     estimated scf accuracy    <      23.39512786 Ry

     iteration #  2     ecut=    50.00 Ry     beta= 0.60
     Davidson diagonalization with overlap
     ethr =  1.00E-02,  avg # of iterations =  8.2

     total cpu time spent up to now is      257.4 secs

     total energy              =    -553.98126111 Ry
     Harris-Foulkes estimate   =    -620.31245932 Ry
     estimated scf accuracy    <     283.20646529 Ry

     iteration #  3     ecut=    50.00 Ry     beta= 0.60
     Davidson diagonalization with overlap
     ethr =  1.00E-02,  avg # of iterations =  5.1

     total cpu time spent up to now is      389.1 secs

     total energy              =    -584.43355912 Ry
     Harris-Foulkes estimate   =    -589.16863988 Ry
     estimated scf accuracy    <      26.04792665 Ry

     iteration #  4     ecut=    50.00 Ry     beta= 0.60
     Davidson diagonalization with overlap
     ethr =  1.00E-02,  avg # of iterations =  4.8

     total cpu time spent up to now is      481.7 secs

     total energy              =    -585.86579205 Ry
     Harris-Foulkes estimate   =    -586.21161226 Ry
     estimated scf accuracy    <       6.54637977 Ry

     iteration #  5     ecut=    50.00 Ry     beta= 0.60
     Davidson diagonalization with overlap
     ethr =  1.00E-02,  avg # of iterations =  1.2

     total cpu time spent up to now is      544.0 secs

     total energy              =    -585.36181697 Ry
     Harris-Foulkes estimate   =    -585.93320617 Ry
     estimated scf accuracy    <       4.64385497 Ry

     iteration #  6     ecut=    50.00 Ry     beta= 0.60
     Davidson diagonalization with overlap
     ethr =  7.49E-03,  avg # of iterations =  2.4

     total cpu time spent up to now is      611.6 secs

     total energy              =    -585.48594270 Ry
     Harris-Foulkes estimate   =    -585.58573851 Ry
     estimated scf accuracy    <       0.28778778 Ry

     iteration #  7     ecut=    50.00 Ry     beta= 0.60
     Davidson diagonalization with overlap
     ethr =  4.64E-04,  avg # of iterations =  6.1

     total cpu time spent up to now is      742.6 secs

     total energy              =    -585.10478298 Ry
     Harris-Foulkes estimate   =    -585.97453421 Ry
     estimated scf accuracy    <       7.53290172 Ry

     iteration #  8     ecut=    50.00 Ry     beta= 0.60
     Davidson diagonalization with overlap
     ethr =  4.64E-04,  avg # of iterations =  6.1

     total cpu time spent up to now is      868.3 secs

     total energy              =    -585.81123338 Ry
     Harris-Foulkes estimate   =    -585.80613761 Ry
     estimated scf accuracy    <       1.21406460 Ry

     iteration #  9     ecut=    50.00 Ry     beta= 0.60
     Davidson diagonalization with overlap
     ethr =  4.64E-04,  avg # of iterations =  1.0

     total cpu time spent up to now is      929.3 secs

     total energy              =    -585.77607287 Ry
     Harris-Foulkes estimate   =    -585.82050166 Ry
     estimated scf accuracy    <       1.66479745 Ry

     iteration # 10     ecut=    50.00 Ry     beta= 0.60
     Davidson diagonalization with overlap
     ethr =  4.64E-04,  avg # of iterations =  1.1

     total cpu time spent up to now is      990.6 secs

     total energy              =    -585.62838435 Ry
     Harris-Foulkes estimate   =    -585.78503927 Ry
     estimated scf accuracy    <       1.54427840 Ry

     iteration # 11     ecut=    50.00 Ry     beta= 0.60
     Davidson diagonalization with overlap
     ethr =  4.64E-04,  avg # of iterations =  3.8

     total cpu time spent up to now is     1070.6 secs

     total energy              =    -585.68769641 Ry
     Harris-Foulkes estimate   =    -585.69185108 Ry
     estimated scf accuracy    <       0.02875351 Ry

     iteration # 12     ecut=    50.00 Ry     beta= 0.60
     Davidson diagonalization with overlap
     ethr =  4.64E-05,  avg # of iterations =  6.9

     total cpu time spent up to now is     1201.3 secs

     total energy              =    -585.69662415 Ry
     Harris-Foulkes estimate   =    -585.69871114 Ry
     estimated scf accuracy    <       0.06792695 Ry

     iteration # 13     ecut=    50.00 Ry     beta= 0.60
     Davidson diagonalization with overlap
     ethr =  4.64E-05,  avg # of iterations =  1.0

     total cpu time spent up to now is     1267.4 secs

     total energy              =    -585.69259524 Ry
     Harris-Foulkes estimate   =    -585.69734439 Ry
     estimated scf accuracy    <       0.04273838 Ry

     iteration # 14     ecut=    50.00 Ry     beta= 0.60
     Davidson diagonalization with overlap
     ethr =  4.64E-05,  avg # of iterations =  2.6

     total cpu time spent up to now is     1339.6 secs

     total energy              =    -585.69629889 Ry
     Harris-Foulkes estimate   =    -585.69610781 Ry
     estimated scf accuracy    <       0.00780915 Ry

     iteration # 15     ecut=    50.00 Ry     beta= 0.60
     Davidson diagonalization with overlap
     c_bands:  1 eigenvalues not converged
     ethr =  1.26E-05,  avg # of iterations =  6.8

     total cpu time spent up to now is     1440.5 secs

     total energy              =    -585.69531069 Ry
     Harris-Foulkes estimate   =    -585.69689922 Ry
     estimated scf accuracy    <       0.02023879 Ry

     iteration # 16     ecut=    50.00 Ry     beta= 0.60
     Davidson diagonalization with overlap
     ethr =  1.26E-05,  avg # of iterations =  1.0

     total cpu time spent up to now is     1505.8 secs

     total energy              =    -585.69562677 Ry
     Harris-Foulkes estimate   =    -585.69581155 Ry
     estimated scf accuracy    <       0.00276933 Ry

     iteration # 17     ecut=    50.00 Ry     beta= 0.60
     Davidson diagonalization with overlap
     ethr =  4.47E-06,  avg # of iterations =  5.1

     total cpu time spent up to now is     1598.2 secs

     total energy              =    -585.69584360 Ry
     Harris-Foulkes estimate   =    -585.69586789 Ry
     estimated scf accuracy    <       0.00030082 Ry

     iteration # 18     ecut=    50.00 Ry     beta= 0.60
     Davidson diagonalization with overlap
     c_bands:  1 eigenvalues not converged
     ethr =  4.85E-07,  avg # of iterations =  3.9

     total cpu time spent up to now is     1683.1 secs

     total energy              =    -585.69586649 Ry
     Harris-Foulkes estimate   =    -585.69587129 Ry
     estimated scf accuracy    <       0.00018009 Ry

     iteration # 19     ecut=    50.00 Ry     beta= 0.60
     Davidson diagonalization with overlap
     ethr =  2.90E-07,  avg # of iterations =  1.3

     total cpu time spent up to now is     1749.7 secs

     total energy              =    -585.69585464 Ry
     Harris-Foulkes estimate   =    -585.69587336 Ry
     estimated scf accuracy    <       0.00023442 Ry

     iteration # 20     ecut=    50.00 Ry     beta= 0.60
     Davidson diagonalization with overlap
     ethr =  2.90E-07,  avg # of iterations =  1.0

     total cpu time spent up to now is     1814.7 secs

     total energy              =    -585.69585909 Ry
     Harris-Foulkes estimate   =    -585.69586168 Ry
     estimated scf accuracy    <       0.00003174 Ry

     iteration # 21     ecut=    50.00 Ry     beta= 0.60
     Davidson diagonalization with overlap
     ethr =  5.12E-08,  avg # of iterations =  4.7

     total cpu time spent up to now is     1916.5 secs

     total energy              =    -585.69586539 Ry
     Harris-Foulkes estimate   =    -585.69586661 Ry
     estimated scf accuracy    <       0.00001529 Ry

     iteration # 22     ecut=    50.00 Ry     beta= 0.60
     Davidson diagonalization with overlap
     ethr =  2.47E-08,  avg # of iterations =  1.0

     total cpu time spent up to now is     1980.2 secs

     total energy              =    -585.69586521 Ry
     Harris-Foulkes estimate   =    -585.69586573 Ry
     estimated scf accuracy    <       0.00000451 Ry

     iteration # 23     ecut=    50.00 Ry     beta= 0.60
     Davidson diagonalization with overlap
     ethr =  7.27E-09,  avg # of iterations =  3.5

     total cpu time spent up to now is     2065.4 secs

     total energy              =    -585.69586563 Ry
     Harris-Foulkes estimate   =    -585.69586572 Ry
     estimated scf accuracy    <       0.00000082 Ry

     iteration # 24     ecut=    50.00 Ry     beta= 0.60
     Davidson diagonalization with overlap
     ethr =  1.32E-09,  avg # of iterations =  2.7

     total cpu time spent up to now is     2142.7 secs

     total energy              =    -585.69586570 Ry
     Harris-Foulkes estimate   =    -585.69586570 Ry
     estimated scf accuracy    <       0.00000004 Ry

     iteration # 25     ecut=    50.00 Ry     beta= 0.60
     Davidson diagonalization with overlap
     ethr =  6.35E-11,  avg # of iterations =  5.2

     total cpu time spent up to now is     2255.7 secs

     total energy              =    -585.69586571 Ry
     Harris-Foulkes estimate   =    -585.69586573 Ry
     estimated scf accuracy    <       0.00000021 Ry

     iteration # 26     ecut=    50.00 Ry     beta= 0.60
     Davidson diagonalization with overlap
     ethr =  6.35E-11,  avg # of iterations =  1.7

     total cpu time spent up to now is     2322.9 secs

     total energy              =    -585.69586571 Ry
     Harris-Foulkes estimate   =    -585.69586572 Ry
     estimated scf accuracy    <       0.00000004 Ry

     iteration # 27     ecut=    50.00 Ry     beta= 0.60
     Davidson diagonalization with overlap
     ethr =  6.20E-11,  avg # of iterations =  3.5

     total cpu time spent up to now is     2404.3 secs

     total energy              =    -585.69586572 Ry
     Harris-Foulkes estimate   =    -585.69586572 Ry
     estimated scf accuracy    <          9.3E-09 Ry

     iteration # 28     ecut=    50.00 Ry     beta= 0.60
     Davidson diagonalization with overlap
     ethr =  1.50E-11,  avg # of iterations =  4.0

     total cpu time spent up to now is     2489.4 secs

     total energy              =    -585.69586572 Ry
     Harris-Foulkes estimate   =    -585.69586572 Ry
     estimated scf accuracy    <          2.3E-09 Ry

     iteration # 29     ecut=    50.00 Ry     beta= 0.60
     Davidson diagonalization with overlap
     ethr =  3.64E-12,  avg # of iterations =  3.3

     total cpu time spent up to now is     2570.3 secs

     total energy              =    -585.69586572 Ry
     Harris-Foulkes estimate   =    -585.69586572 Ry
     estimated scf accuracy    <          2.4E-10 Ry

     iteration # 30     ecut=    50.00 Ry     beta= 0.60
     Davidson diagonalization with overlap
     ethr =  3.90E-13,  avg # of iterations =  4.7

     total cpu time spent up to now is     2665.5 secs

     End of self-consistent calculation

     Number of k-points >= 100: set verbosity='high' to print the bands.

     the Fermi energy is    11.7252 ev

!    total energy              =    -585.69586572 Ry
     Harris-Foulkes estimate   =    -585.69586572 Ry
     estimated scf accuracy    <          9.3E-11 Ry

     The total energy is the sum of the following terms:

     one-electron contribution =    -201.79165538 Ry
     hartree contribution      =     117.06946841 Ry
     xc contribution           =     -79.61980059 Ry
     ewald contribution        =    -421.35330293 Ry
     smearing contrib. (-TS)   =      -0.00057523 Ry

     convergence has been achieved in  30 iterations

     Forces acting on atoms (cartesian axes, Ry/au):

     atom    1 type  2   force =    -0.00515433   -0.00515433    0.00283586
     atom    2 type  2   force =    -0.00000161   -0.00000161   -0.00000343
     atom    3 type  2   force =     0.00515375    0.00515375   -0.00283677
     atom    4 type  1   force =     0.00693451    0.00693451    0.00392947
     atom    5 type  1   force =    -0.00693232   -0.00693232   -0.00392513

     Total force =     0.018587     Total SCF correction =     0.000020


     Computing stress (Cartesian axis) and pressure

          total   stress  (Ry/bohr**3)                   (kbar)     P= -193.72
  -0.00131784  -0.00003094   0.00000353       -193.86     -4.55      0.52
  -0.00003094  -0.00131784   0.00000353         -4.55   -193.86      0.52
   0.00000353   0.00000353  -0.00131489          0.52      0.52   -193.43


     BFGS Geometry Optimization

     number of scf cycles    =   1
     number of bfgs steps    =   0

     enthalpy new            =    -585.6958657162 Ry

     new trust radius        =       0.1784867082 bohr
     new conv_thr            =            1.0E-10 Ry

     new unit-cell volume =    663.27184 a.u.^3 (    98.28675 Ang^3 )
     density =      5.56539 g/cm^3

CELL_PARAMETERS (alat=  1.88972599)
   5.099440278   1.696497825   5.101343587
   1.696497825   5.099440278   5.101343587
  -1.698596796  -1.698596796   1.699930890

ATOMIC_POSITIONS (angstrom)
Ti      -0.002325268  -0.002325268   3.401933008
Ti       1.699216340   1.699216340   5.101031650
Ti       3.400759295   3.400759295   6.800133334
Nb       5.100577154   5.100577154   8.504147595
Nb       5.093796397   5.093796397  11.900608604


     NEW-OLD atomic charge density approx. for the potential
     extrapolated charge   55.76766, renormalised to   62.00000

     total cpu time spent up to now is     2692.8 secs

     Self-consistent Calculation

     iteration #  1     ecut=    50.00 Ry     beta= 0.60
     Davidson diagonalization with overlap
     c_bands:  1 eigenvalues not converged
     c_bands:  1 eigenvalues not converged
     c_bands:  1 eigenvalues not converged
     c_bands:  1 eigenvalues not converged
     c_bands:  1 eigenvalues not converged
     c_bands:  2 eigenvalues not converged
     c_bands:  1 eigenvalues not converged
     c_bands:  1 eigenvalues not converged
     c_bands:  1 eigenvalues not converged
     c_bands:  1 eigenvalues not converged
     c_bands:  1 eigenvalues not converged
     c_bands:  1 eigenvalues not converged
     c_bands:  1 eigenvalues not converged
     c_bands:  1 eigenvalues not converged
     c_bands:  1 eigenvalues not converged
     c_bands:  1 eigenvalues not converged
     c_bands:  1 eigenvalues not converged
     c_bands:  1 eigenvalues not converged
     c_bands:  1 eigenvalues not converged
     c_bands:  1 eigenvalues not converged
     c_bands:  1 eigenvalues not converged
     c_bands:  1 eigenvalues not converged
     c_bands:  1 eigenvalues not converged
     c_bands:  1 eigenvalues not converged
     c_bands:  1 eigenvalues not converged
     c_bands:  1 eigenvalues not converged
     c_bands:  1 eigenvalues not converged
     ethr =  1.00E-06,  avg # of iterations = 17.0

     total cpu time spent up to now is     2979.4 secs

     total energy              =    -560.08659024 Ry
     Harris-Foulkes estimate   =    -600.40040247 Ry
     estimated scf accuracy    <      28.50067456 Ry

     iteration #  2     ecut=    50.00 Ry     beta= 0.60
     Davidson diagonalization with overlap
     ethr =  1.00E-02,  avg # of iterations =  5.5

     total cpu time spent up to now is     3113.1 secs

     total energy              =    -576.55811920 Ry
     Harris-Foulkes estimate   =    -622.37031669 Ry
     estimated scf accuracy    <     148.57456431 Ry

     iteration #  3     ecut=    50.00 Ry     beta= 0.60
     Davidson diagonalization with overlap
     ethr =  1.00E-02,  avg # of iterations =  4.0

     total cpu time spent up to now is     3216.4 secs

     total energy              =    -587.45639864 Ry
     Harris-Foulkes estimate   =    -590.78542108 Ry
     estimated scf accuracy    <      16.46364202 Ry

     iteration #  4     ecut=    50.00 Ry     beta= 0.60
     Davidson diagonalization with overlap
     ethr =  1.00E-02,  avg # of iterations =  2.1

     total cpu time spent up to now is     3280.2 secs

     total energy              =    -586.65567374 Ry
     Harris-Foulkes estimate   =    -587.78890779 Ry
     estimated scf accuracy    <       9.08008293 Ry

     iteration #  5     ecut=    50.00 Ry     beta= 0.60
     Davidson diagonalization with overlap
     ethr =  1.00E-02,  avg # of iterations =  1.4

     total cpu time spent up to now is     3347.9 secs

     total energy              =    -585.63186479 Ry
     Harris-Foulkes estimate   =    -586.84677510 Ry
     estimated scf accuracy    <       6.49148065 Ry

     iteration #  6     ecut=    50.00 Ry     beta= 0.60
     Davidson diagonalization with overlap
     ethr =  1.00E-02,  avg # of iterations =  2.5

     total cpu time spent up to now is     3425.5 secs

     total energy              =    -586.13184186 Ry
     Harris-Foulkes estimate   =    -585.91304637 Ry
     estimated scf accuracy    <       2.23519481 Ry

     iteration #  7     ecut=    50.00 Ry     beta= 0.60
     Davidson diagonalization with overlap
     ethr =  3.61E-03,  avg # of iterations =  2.3

     total cpu time spent up to now is     3492.6 secs

     total energy              =    -585.89408508 Ry
     Harris-Foulkes estimate   =    -586.28214617 Ry
     estimated scf accuracy    <       3.68203583 Ry

     iteration #  8     ecut=    50.00 Ry     beta= 0.60
     Davidson diagonalization with overlap
     ethr =  3.61E-03,  avg # of iterations =  1.3

     total cpu time spent up to now is     3552.0 secs

     total energy              =    -585.91770184 Ry
     Harris-Foulkes estimate   =    -585.94343262 Ry
     estimated scf accuracy    <       2.19140312 Ry

     iteration #  9     ecut=    50.00 Ry     beta= 0.60
     Davidson diagonalization with overlap
     ethr =  3.53E-03,  avg # of iterations =  1.1

     total cpu time spent up to now is     3610.7 secs

     total energy              =    -585.92078958 Ry
     Harris-Foulkes estimate   =    -585.94156811 Ry
     estimated scf accuracy    <       2.01121423 Ry

     iteration # 10     ecut=    50.00 Ry     beta= 0.60
     Davidson diagonalization with overlap
     ethr =  3.24E-03,  avg # of iterations =  1.1

     total cpu time spent up to now is     3668.7 secs

     total energy              =    -585.19981473 Ry
     Harris-Foulkes estimate   =    -585.93696243 Ry
     estimated scf accuracy    <       1.75439657 Ry

     iteration # 11     ecut=    50.00 Ry     beta= 0.60
     Davidson diagonalization with overlap
     ethr =  2.83E-03,  avg # of iterations =  4.6

     total cpu time spent up to now is     3772.7 secs

     total energy              =    -586.24585237 Ry
     Harris-Foulkes estimate   =    -586.25823065 Ry
     estimated scf accuracy    <       8.44857524 Ry

     iteration # 12     ecut=    50.00 Ry     beta= 0.60
     Davidson diagonalization with overlap
     ethr =  2.83E-03,  avg # of iterations =  1.0

     total cpu time spent up to now is     3830.4 secs

     total energy              =    -586.16249361 Ry
     Harris-Foulkes estimate   =    -586.25226860 Ry
     estimated scf accuracy    <       8.78462946 Ry

     iteration # 13     ecut=    50.00 Ry     beta= 0.60
     Davidson diagonalization with overlap
     ethr =  2.83E-03,  avg # of iterations =  1.0

     total cpu time spent up to now is     3889.0 secs

     total energy              =    -586.55001468 Ry
     Harris-Foulkes estimate   =    -586.21434523 Ry
     estimated scf accuracy    <      10.70577021 Ry

     iteration # 14     ecut=    50.00 Ry     beta= 0.60
     Davidson diagonalization with overlap
     ethr =  2.83E-03,  avg # of iterations =  1.1

     total cpu time spent up to now is     3953.6 secs

     total energy              =    -586.60767049 Ry
     Harris-Foulkes estimate   =    -586.60426124 Ry
     estimated scf accuracy    <      15.52881563 Ry

     iteration # 15     ecut=    50.00 Ry     beta= 0.60
     Davidson diagonalization with overlap
     ethr =  2.83E-03,  avg # of iterations =  1.0

     total cpu time spent up to now is     4020.0 secs

     total energy              =    -586.99372519 Ry
     Harris-Foulkes estimate   =    -586.62181521 Ry
     estimated scf accuracy    <      16.05857984 Ry

     iteration # 16     ecut=    50.00 Ry     beta= 0.60
     Davidson diagonalization with overlap
     ethr =  2.83E-03,  avg # of iterations =  1.2

     total cpu time spent up to now is     4088.0 secs

     total energy              =    -584.35823105 Ry
     Harris-Foulkes estimate   =    -587.04006730 Ry
     estimated scf accuracy    <      20.10746190 Ry

     iteration # 17     ecut=    50.00 Ry     beta= 0.60
     Davidson diagonalization with overlap
     ethr =  2.83E-03,  avg # of iterations =  4.2

     total cpu time spent up to now is     4200.0 secs

     total energy              =    -585.76473679 Ry
     Harris-Foulkes estimate   =    -585.81059375 Ry
     estimated scf accuracy    <       0.40232359 Ry

     iteration # 18     ecut=    50.00 Ry     beta= 0.60
     Davidson diagonalization with overlap
     ethr =  6.49E-04,  avg # of iterations =  1.4

     total cpu time spent up to now is     4269.3 secs

     total energy              =    -585.76504874 Ry
     Harris-Foulkes estimate   =    -585.77834652 Ry
     estimated scf accuracy    <       0.15027079 Ry

     iteration # 19     ecut=    50.00 Ry     beta= 0.60
     Davidson diagonalization with overlap
     ethr =  2.42E-04,  avg # of iterations =  3.6

     total cpu time spent up to now is     4356.3 secs

     total energy              =    -585.77496512 Ry
     Harris-Foulkes estimate   =    -585.77829887 Ry
     estimated scf accuracy    <       0.03176921 Ry

     iteration # 20     ecut=    50.00 Ry     beta= 0.60
     Davidson diagonalization with overlap
     c_bands:  1 eigenvalues not converged
     c_bands:  1 eigenvalues not converged
     ethr =  5.12E-05,  avg # of iterations =  6.1

     total cpu time spent up to now is     4454.1 secs

     total energy              =    -585.77613442 Ry
     Harris-Foulkes estimate   =    -585.77676606 Ry
     estimated scf accuracy    <       0.02055194 Ry

     iteration # 21     ecut=    50.00 Ry     beta= 0.60
     Davidson diagonalization with overlap
     ethr =  3.31E-05,  avg # of iterations =  1.6

     total cpu time spent up to now is     4523.7 secs

     total energy              =    -585.77317911 Ry
     Harris-Foulkes estimate   =    -585.77663718 Ry
     estimated scf accuracy    <       0.02016664 Ry

     iteration # 22     ecut=    50.00 Ry     beta= 0.60
     Davidson diagonalization with overlap
     ethr =  3.25E-05,  avg # of iterations =  1.9

     total cpu time spent up to now is     4594.6 secs

     total energy              =    -585.77342933 Ry
     Harris-Foulkes estimate   =    -585.77431887 Ry
     estimated scf accuracy    <       0.00923697 Ry

     iteration # 23     ecut=    50.00 Ry     beta= 0.60
     Davidson diagonalization with overlap
     c_bands:  1 eigenvalues not converged
     c_bands:  1 eigenvalues not converged
     ethr =  1.49E-05,  avg # of iterations =  3.3

     total cpu time spent up to now is     4673.0 secs

     total energy              =    -585.77360760 Ry
     Harris-Foulkes estimate   =    -585.77387658 Ry
     estimated scf accuracy    <       0.00278593 Ry

     iteration # 24     ecut=    50.00 Ry     beta= 0.60
     Davidson diagonalization with overlap
     c_bands:  1 eigenvalues not converged
     c_bands:  1 eigenvalues not converged
     c_bands:  1 eigenvalues not converged
     c_bands:  1 eigenvalues not converged
     c_bands:  1 eigenvalues not converged
     c_bands:  1 eigenvalues not converged
     c_bands:  1 eigenvalues not converged
     ethr =  4.49E-06,  avg # of iterations =  8.1

     total cpu time spent up to now is     4791.6 secs

     total energy              =    -585.77371848 Ry
     Harris-Foulkes estimate   =    -585.77387787 Ry
     estimated scf accuracy    <       0.00117201 Ry

     iteration # 25     ecut=    50.00 Ry     beta= 0.60
     Davidson diagonalization with overlap
     c_bands:  1 eigenvalues not converged
     c_bands:  1 eigenvalues not converged
     ethr =  1.89E-06,  avg # of iterations =  2.8

     total cpu time spent up to now is     4870.2 secs

     total energy              =    -585.77379932 Ry
     Harris-Foulkes estimate   =    -585.77381445 Ry
     estimated scf accuracy    <       0.00005005 Ry

     iteration # 26     ecut=    50.00 Ry     beta= 0.60
     Davidson diagonalization with overlap
     ethr =  8.07E-08,  avg # of iterations =  5.3

     total cpu time spent up to now is     4988.4 secs

     total energy              =    -585.77382312 Ry
     Harris-Foulkes estimate   =    -585.77382854 Ry
     estimated scf accuracy    <       0.00003966 Ry

     iteration # 27     ecut=    50.00 Ry     beta= 0.60
     Davidson diagonalization with overlap
     ethr =  6.40E-08,  avg # of iterations =  1.0

     total cpu time spent up to now is     5055.7 secs

     total energy              =    -585.77382421 Ry
     Harris-Foulkes estimate   =    -585.77382541 Ry
     estimated scf accuracy    <       0.00001166 Ry

     iteration # 28     ecut=    50.00 Ry     beta= 0.60
     Davidson diagonalization with overlap
     ethr =  1.88E-08,  avg # of iterations =  3.3

     total cpu time spent up to now is     5144.3 secs

     total energy              =    -585.77382496 Ry
     Harris-Foulkes estimate   =    -585.77382585 Ry
     estimated scf accuracy    <       0.00001003 Ry

     iteration # 29     ecut=    50.00 Ry     beta= 0.60
     Davidson diagonalization with overlap
     ethr =  1.62E-08,  avg # of iterations =  1.0

     total cpu time spent up to now is     5211.1 secs

     total energy              =    -585.77382521 Ry
     Harris-Foulkes estimate   =    -585.77382535 Ry
     estimated scf accuracy    <       0.00000102 Ry

     iteration # 30     ecut=    50.00 Ry     beta= 0.60
     Davidson diagonalization with overlap
     ethr =  1.64E-09,  avg # of iterations =  4.2

     total cpu time spent up to now is     5312.6 secs

     total energy              =    -585.77382540 Ry
     Harris-Foulkes estimate   =    -585.77382548 Ry
     estimated scf accuracy    <       0.00000090 Ry

     iteration # 31     ecut=    50.00 Ry     beta= 0.60
     Davidson diagonalization with overlap
     ethr =  1.44E-09,  avg # of iterations =  1.0

     total cpu time spent up to now is     5379.6 secs

     total energy              =    -585.77382540 Ry
     Harris-Foulkes estimate   =    -585.77382542 Ry
     estimated scf accuracy    <       0.00000018 Ry

     iteration # 32     ecut=    50.00 Ry     beta= 0.60
     Davidson diagonalization with overlap
     ethr =  2.97E-10,  avg # of iterations =  3.7

     total cpu time spent up to now is     5473.5 secs

     total energy              =    -585.77382543 Ry
     Harris-Foulkes estimate   =    -585.77382543 Ry
     estimated scf accuracy    <       0.00000005 Ry

     iteration # 33     ecut=    50.00 Ry     beta= 0.60
     Davidson diagonalization with overlap
     ethr =  8.48E-11,  avg # of iterations =  1.1

     total cpu time spent up to now is     5541.2 secs

     total energy              =    -585.77382543 Ry
     Harris-Foulkes estimate   =    -585.77382543 Ry
     estimated scf accuracy    <       0.00000002 Ry

     iteration # 34     ecut=    50.00 Ry     beta= 0.60
     Davidson diagonalization with overlap
     ethr =  2.75E-11,  avg # of iterations =  3.1

     total cpu time spent up to now is     5625.6 secs

     total energy              =    -585.77382543 Ry
     Harris-Foulkes estimate   =    -585.77382543 Ry
     estimated scf accuracy    <          8.6E-10 Ry

     iteration # 35     ecut=    50.00 Ry     beta= 0.60
     Davidson diagonalization with overlap
     ethr =  1.38E-12,  avg # of iterations =  4.2

     total cpu time spent up to now is     5725.3 secs

     End of self-consistent calculation

     Number of k-points >= 100: set verbosity='high' to print the bands.

     the Fermi energy is    13.2624 ev

!    total energy              =    -585.77382543 Ry
     Harris-Foulkes estimate   =    -585.77382543 Ry
     estimated scf accuracy    <          3.4E-11 Ry

     The total energy is the sum of the following terms:

     one-electron contribution =    -180.50988301 Ry
     hartree contribution      =     110.41433228 Ry
     xc contribution           =     -79.99746344 Ry
     ewald contribution        =    -435.68028229 Ry
     smearing contrib. (-TS)   =      -0.00052897 Ry

     convergence has been achieved in  35 iterations

     Forces acting on atoms (cartesian axes, Ry/au):

     atom    1 type  2   force =    -0.00596264   -0.00596264    0.00327482
     atom    2 type  2   force =    -0.00000062   -0.00000062   -0.00000102
     atom    3 type  2   force =     0.00596212    0.00596212   -0.00327567
     atom    4 type  1   force =     0.00538090    0.00538090    0.00117205
     atom    5 type  1   force =    -0.00537976   -0.00537976   -0.00117019

     Total force =     0.016798     Total SCF correction =     0.000010


     Computing stress (Cartesian axis) and pressure

          total   stress  (Ry/bohr**3)                   (kbar)     P= -125.76
  -0.00085323  -0.00002365  -0.00000077       -125.51     -3.48     -0.11
  -0.00002365  -0.00085323  -0.00000077         -3.48   -125.51     -0.11
  -0.00000077  -0.00000077  -0.00085826         -0.11     -0.11   -126.25


     number of scf cycles    =   2
     number of bfgs steps    =   1

     enthalpy old            =    -585.6958657162 Ry
     enthalpy new            =    -585.7738254297 Ry

     CASE: enthalpy_new < enthalpy_old

     new trust radius        =       0.2633030312 bohr
     new conv_thr            =            1.0E-10 Ry

     new unit-cell volume =    567.00988 a.u.^3 (    84.02219 Ang^3 )
     density =      6.51024 g/cm^3

CELL_PARAMETERS (alat=  1.88972599)
   4.837525323   1.602484877   4.840321326
   1.602484877   4.837525323   4.840321326
  -1.609789125  -1.609789125   1.613156676

ATOMIC_POSITIONS (angstrom)
Ti      -0.009199588  -0.009199588   3.231815142
Ti       1.610129104   1.610129104   4.840148223
Ti       3.229459911   3.229459911   6.448485569
Nb       4.839616574   4.839616574   8.070414717
Nb       4.820657224   4.820657224  11.290534331


     NEW-OLD atomic charge density approx. for the potential
     extrapolated charge   51.98445, renormalised to   62.00000

     total cpu time spent up to now is     5756.9 secs

     Self-consistent Calculation

     iteration #  1     ecut=    50.00 Ry     beta= 0.60
     Davidson diagonalization with overlap
     c_bands:  1 eigenvalues not converged
     c_bands:  1 eigenvalues not converged
     c_bands:  2 eigenvalues not converged
     c_bands:  1 eigenvalues not converged
     c_bands:  2 eigenvalues not converged
     c_bands:  2 eigenvalues not converged
     c_bands:  1 eigenvalues not converged
     c_bands:  2 eigenvalues not converged
     c_bands:  1 eigenvalues not converged
     c_bands:  1 eigenvalues not converged
     c_bands:  1 eigenvalues not converged
     c_bands:  1 eigenvalues not converged
     c_bands:  2 eigenvalues not converged
     c_bands:  1 eigenvalues not converged
     c_bands:  2 eigenvalues not converged
     c_bands:  2 eigenvalues not converged
     c_bands:  1 eigenvalues not converged
     c_bands:  2 eigenvalues not converged
     c_bands:  2 eigenvalues not converged
     c_bands:  2 eigenvalues not converged
     c_bands:  2 eigenvalues not converged
     c_bands:  1 eigenvalues not converged
     c_bands:  1 eigenvalues not converged
     c_bands:  1 eigenvalues not converged
     c_bands:  2 eigenvalues not converged
     c_bands:  1 eigenvalues not converged
     c_bands:  1 eigenvalues not converged
     c_bands:  2 eigenvalues not converged
     c_bands:  1 eigenvalues not converged
     c_bands:  1 eigenvalues not converged
     c_bands:  1 eigenvalues not converged
     c_bands:  2 eigenvalues not converged
     c_bands:  2 eigenvalues not converged
     c_bands:  2 eigenvalues not converged
     c_bands:  1 eigenvalues not converged
     c_bands:  1 eigenvalues not converged
     c_bands:  1 eigenvalues not converged
     c_bands:  1 eigenvalues not converged
     c_bands:  2 eigenvalues not converged
     c_bands:  2 eigenvalues not converged
     c_bands:  2 eigenvalues not converged
     c_bands:  1 eigenvalues not converged
     c_bands:  1 eigenvalues not converged
     c_bands:  1 eigenvalues not converged
     c_bands:  1 eigenvalues not converged
     c_bands:  1 eigenvalues not converged
     c_bands:  1 eigenvalues not converged
     c_bands:  1 eigenvalues not converged
     c_bands:  1 eigenvalues not converged
     c_bands:  2 eigenvalues not converged
     c_bands:  1 eigenvalues not converged
     c_bands:  1 eigenvalues not converged
     c_bands:  1 eigenvalues not converged
     c_bands:  1 eigenvalues not converged
     c_bands:  1 eigenvalues not converged
     c_bands:  1 eigenvalues not converged
     c_bands:  1 eigenvalues not converged
     c_bands:  1 eigenvalues not converged
     c_bands:  1 eigenvalues not converged
     c_bands:  2 eigenvalues not converged
     c_bands:  1 eigenvalues not converged
     c_bands:  2 eigenvalues not converged
     c_bands:  1 eigenvalues not converged
     c_bands:  1 eigenvalues not converged
     c_bands:  1 eigenvalues not converged
     c_bands:  1 eigenvalues not converged
     c_bands:  1 eigenvalues not converged
     c_bands:  1 eigenvalues not converged
     c_bands:  1 eigenvalues not converged
     c_bands:  1 eigenvalues not converged
     c_bands:  1 eigenvalues not converged
     c_bands:  1 eigenvalues not converged
     c_bands:  1 eigenvalues not converged
     c_bands:  1 eigenvalues not converged
     c_bands:  1 eigenvalues not converged
     c_bands:  1 eigenvalues not converged
     c_bands:  1 eigenvalues not converged
     c_bands:  1 eigenvalues not converged
     c_bands:  1 eigenvalues not converged
     c_bands:  1 eigenvalues not converged
     c_bands:  1 eigenvalues not converged
     c_bands:  1 eigenvalues not converged
     c_bands:  1 eigenvalues not converged
     c_bands:  1 eigenvalues not converged
     c_bands:  2 eigenvalues not converged
     c_bands:  1 eigenvalues not converged
     c_bands:  1 eigenvalues not converged
     c_bands:  1 eigenvalues not converged
     c_bands:  1 eigenvalues not converged
     c_bands:  1 eigenvalues not converged
     ethr =  1.00E-06,  avg # of iterations = 15.8

     total cpu time spent up to now is     6055.2 secs

     total energy              =    -538.72032134 Ry
     Harris-Foulkes estimate   =    -607.03156666 Ry
     estimated scf accuracy    <      52.17733905 Ry

     iteration #  2     ecut=    50.00 Ry     beta= 0.60
     Davidson diagonalization with overlap
     ethr =  1.00E-02,  avg # of iterations =  6.9

     total cpu time spent up to now is     6213.7 secs

     total energy              =    -576.76249268 Ry
     Harris-Foulkes estimate   =    -646.79053680 Ry
     estimated scf accuracy    <     208.43227233 Ry

     iteration #  3     ecut=    50.00 Ry     beta= 0.60
     Davidson diagonalization with overlap
     ethr =  1.00E-02,  avg # of iterations =  4.9

     total cpu time spent up to now is     6346.5 secs

     total energy              =    -588.52840483 Ry
     Harris-Foulkes estimate   =    -593.87580924 Ry
     estimated scf accuracy    <      23.65272575 Ry

     iteration #  4     ecut=    50.00 Ry     beta= 0.60
     Davidson diagonalization with overlap
     ethr =  1.00E-02,  avg # of iterations =  1.4

     total cpu time spent up to now is     6412.2 secs

     total energy              =    -586.64610599 Ry
     Harris-Foulkes estimate   =    -588.93580160 Ry
     estimated scf accuracy    <      12.64756422 Ry

     iteration #  5     ecut=    50.00 Ry     beta= 0.60
     Davidson diagonalization with overlap
     ethr =  1.00E-02,  avg # of iterations =  2.3

     total cpu time spent up to now is     6485.8 secs

     total energy              =    -586.49004987 Ry
     Harris-Foulkes estimate   =    -587.10629975 Ry
     estimated scf accuracy    <       5.81832982 Ry

     iteration #  6     ecut=    50.00 Ry     beta= 0.60
     Davidson diagonalization with overlap
     ethr =  9.38E-03,  avg # of iterations =  1.1

     total cpu time spent up to now is     6550.3 secs

     total energy              =    -586.66244717 Ry
     Harris-Foulkes estimate   =    -586.57646858 Ry
     estimated scf accuracy    <       3.98264702 Ry

     iteration #  7     ecut=    50.00 Ry     beta= 0.60
     Davidson diagonalization with overlap
     ethr =  6.42E-03,  avg # of iterations =  1.0

     total cpu time spent up to now is     6614.2 secs

     total energy              =    -586.09319316 Ry
     Harris-Foulkes estimate   =    -586.72383800 Ry
     estimated scf accuracy    <       4.88857322 Ry

     iteration #  8     ecut=    50.00 Ry     beta= 0.60
     Davidson diagonalization with overlap
     ethr =  6.42E-03,  avg # of iterations =  1.0

     total cpu time spent up to now is     6678.7 secs

     total energy              =    -586.17644017 Ry
     Harris-Foulkes estimate   =    -586.15179475 Ry
     estimated scf accuracy    <       2.83378055 Ry

     iteration #  9     ecut=    50.00 Ry     beta= 0.60
     Davidson diagonalization with overlap
     ethr =  4.57E-03,  avg # of iterations =  1.0

     total cpu time spent up to now is     6743.4 secs

     total energy              =    -586.25362760 Ry
     Harris-Foulkes estimate   =    -586.19547085 Ry
     estimated scf accuracy    <       2.85097861 Ry

     iteration # 10     ecut=    50.00 Ry     beta= 0.60
     Davidson diagonalization with overlap
     ethr =  4.57E-03,  avg # of iterations =  1.0

     total cpu time spent up to now is     6809.6 secs

     total energy              =    -584.80241234 Ry
     Harris-Foulkes estimate   =    -586.26447490 Ry
     estimated scf accuracy    <       2.86628603 Ry

     iteration # 11     ecut=    50.00 Ry     beta= 0.60
     Davidson diagonalization with overlap
     ethr =  4.57E-03,  avg # of iterations =  4.5

     total cpu time spent up to now is     6921.2 secs

     total energy              =    -586.16285242 Ry
     Harris-Foulkes estimate   =    -586.84523486 Ry
     estimated scf accuracy    <      16.81254957 Ry

     iteration # 12     ecut=    50.00 Ry     beta= 0.60
     Davidson diagonalization with overlap
     ethr =  4.57E-03,  avg # of iterations =  1.0

     total cpu time spent up to now is     6985.1 secs

     total energy              =    -586.17914398 Ry
     Harris-Foulkes estimate   =    -586.24550045 Ry
     estimated scf accuracy    <      10.48310054 Ry

     iteration # 13     ecut=    50.00 Ry     beta= 0.60
     Davidson diagonalization with overlap
     ethr =  4.57E-03,  avg # of iterations =  1.9

     total cpu time spent up to now is     7054.3 secs

     total energy              =    -586.32562436 Ry
     Harris-Foulkes estimate   =    -586.26769186 Ry
     estimated scf accuracy    <      11.59977579 Ry

     iteration # 14     ecut=    50.00 Ry     beta= 0.60
     Davidson diagonalization with overlap
     ethr =  4.57E-03,  avg # of iterations =  1.0

     total cpu time spent up to now is     7119.5 secs

     total energy              =    -586.67672990 Ry
     Harris-Foulkes estimate   =    -586.35470084 Ry
     estimated scf accuracy    <      13.08843127 Ry

     iteration # 15     ecut=    50.00 Ry     beta= 0.60
     Davidson diagonalization with overlap
     ethr =  4.57E-03,  avg # of iterations =  1.0

     total cpu time spent up to now is     7185.7 secs

     total energy              =    -584.79651455 Ry
     Harris-Foulkes estimate   =    -586.72828209 Ry
     estimated scf accuracy    <      18.66434520 Ry

     iteration # 16     ecut=    50.00 Ry     beta= 0.60
     Davidson diagonalization with overlap
     ethr =  4.57E-03,  avg # of iterations =  3.4

     total cpu time spent up to now is     7263.5 secs

     total energy              =    -585.77068549 Ry
     Harris-Foulkes estimate   =    -585.78673293 Ry
     estimated scf accuracy    <       0.12212273 Ry

     iteration # 17     ecut=    50.00 Ry     beta= 0.60
     Davidson diagonalization with overlap
     ethr =  1.97E-04,  avg # of iterations =  6.6

     total cpu time spent up to now is     7389.1 secs

     total energy              =    -585.80295149 Ry
     Harris-Foulkes estimate   =    -585.82268463 Ry
     estimated scf accuracy    <       0.16054242 Ry

     iteration # 18     ecut=    50.00 Ry     beta= 0.60
     Davidson diagonalization with overlap
     ethr =  1.97E-04,  avg # of iterations =  1.0

     total cpu time spent up to now is     7453.4 secs

     total energy              =    -585.79729465 Ry
     Harris-Foulkes estimate   =    -585.80731188 Ry
     estimated scf accuracy    <       0.07312841 Ry

     iteration # 19     ecut=    50.00 Ry     beta= 0.60
     Davidson diagonalization with overlap
     ethr =  1.18E-04,  avg # of iterations =  3.2

     total cpu time spent up to now is     7536.7 secs

     total energy              =    -585.80483891 Ry
     Harris-Foulkes estimate   =    -585.80558038 Ry
     estimated scf accuracy    <       0.01147189 Ry

     iteration # 20     ecut=    50.00 Ry     beta= 0.60
     Davidson diagonalization with overlap
     c_bands:  1 eigenvalues not converged
     c_bands:  1 eigenvalues not converged
     ethr =  1.85E-05,  avg # of iterations =  3.4

     total cpu time spent up to now is     7614.6 secs

     total energy              =    -585.80506605 Ry
     Harris-Foulkes estimate   =    -585.80534784 Ry
     estimated scf accuracy    <       0.00608498 Ry

     iteration # 21     ecut=    50.00 Ry     beta= 0.60
     Davidson diagonalization with overlap
     ethr =  9.81E-06,  avg # of iterations =  1.2

     total cpu time spent up to now is     7679.8 secs

     total energy              =    -585.80446614 Ry
     Harris-Foulkes estimate   =    -585.80516226 Ry
     estimated scf accuracy    <       0.00549416 Ry

     iteration # 22     ecut=    50.00 Ry     beta= 0.60
     Davidson diagonalization with overlap
     ethr =  8.86E-06,  avg # of iterations =  1.5

     total cpu time spent up to now is     7746.6 secs

     total energy              =    -585.80464862 Ry
     Harris-Foulkes estimate   =    -585.80474781 Ry
     estimated scf accuracy    <       0.00051060 Ry

     iteration # 23     ecut=    50.00 Ry     beta= 0.60
     Davidson diagonalization with overlap
     ethr =  8.24E-07,  avg # of iterations =  6.5

     total cpu time spent up to now is     7866.6 secs

     total energy              =    -585.80481749 Ry
     Harris-Foulkes estimate   =    -585.80483818 Ry
     estimated scf accuracy    <       0.00025704 Ry

     iteration # 24     ecut=    50.00 Ry     beta= 0.60
     Davidson diagonalization with overlap
     ethr =  4.15E-07,  avg # of iterations =  1.0

     total cpu time spent up to now is     7932.3 secs

     total energy              =    -585.80480270 Ry
     Harris-Foulkes estimate   =    -585.80482384 Ry
     estimated scf accuracy    <       0.00012918 Ry

     iteration # 25     ecut=    50.00 Ry     beta= 0.60
     Davidson diagonalization with overlap
     ethr =  2.08E-07,  avg # of iterations =  2.8

     total cpu time spent up to now is     8007.5 secs

     total energy              =    -585.80481278 Ry
     Harris-Foulkes estimate   =    -585.80481479 Ry
     estimated scf accuracy    <       0.00001197 Ry

     iteration # 26     ecut=    50.00 Ry     beta= 0.60
     Davidson diagonalization with overlap
     ethr =  1.93E-08,  avg # of iterations =  4.2

     total cpu time spent up to now is     8105.3 secs

     total energy              =    -585.80481592 Ry
     Harris-Foulkes estimate   =    -585.80481718 Ry
     estimated scf accuracy    <       0.00001509 Ry

     iteration # 27     ecut=    50.00 Ry     beta= 0.60
     Davidson diagonalization with overlap
     ethr =  1.93E-08,  avg # of iterations =  1.0

     total cpu time spent up to now is     8170.7 secs

     total energy              =    -585.80481560 Ry
     Harris-Foulkes estimate   =    -585.80481636 Ry
     estimated scf accuracy    <       0.00000339 Ry

     iteration # 28     ecut=    50.00 Ry     beta= 0.60
     Davidson diagonalization with overlap
     ethr =  5.47E-09,  avg # of iterations =  3.5

     total cpu time spent up to now is     8260.4 secs

     total energy              =    -585.80481597 Ry
     Harris-Foulkes estimate   =    -585.80481634 Ry
     estimated scf accuracy    <       0.00000151 Ry

     iteration # 29     ecut=    50.00 Ry     beta= 0.60
     Davidson diagonalization with overlap
     ethr =  2.44E-09,  avg # of iterations =  3.5

     total cpu time spent up to now is     8352.6 secs

     total energy              =    -585.80481603 Ry
     Harris-Foulkes estimate   =    -585.80481641 Ry
     estimated scf accuracy    <       0.00000341 Ry

     iteration # 30     ecut=    50.00 Ry     beta= 0.60
     Davidson diagonalization with overlap
     ethr =  2.44E-09,  avg # of iterations =  1.5

     total cpu time spent up to now is     8420.0 secs

     total energy              =    -585.80481618 Ry
     Harris-Foulkes estimate   =    -585.80481621 Ry
     estimated scf accuracy    <       0.00000023 Ry

     iteration # 31     ecut=    50.00 Ry     beta= 0.60
     Davidson diagonalization with overlap
     ethr =  3.65E-10,  avg # of iterations =  3.9

     total cpu time spent up to now is     8507.6 secs

     total energy              =    -585.80481622 Ry
     Harris-Foulkes estimate   =    -585.80481623 Ry
     estimated scf accuracy    <       0.00000010 Ry

     iteration # 32     ecut=    50.00 Ry     beta= 0.60
     Davidson diagonalization with overlap
     ethr =  1.55E-10,  avg # of iterations =  1.0

     total cpu time spent up to now is     8569.5 secs

     total energy              =    -585.80481622 Ry
     Harris-Foulkes estimate   =    -585.80481622 Ry
     estimated scf accuracy    <       0.00000003 Ry

     iteration # 33     ecut=    50.00 Ry     beta= 0.60
     Davidson diagonalization with overlap
     ethr =  4.36E-11,  avg # of iterations =  3.0

     total cpu time spent up to now is     8645.9 secs

     total energy              =    -585.80481622 Ry
     Harris-Foulkes estimate   =    -585.80481622 Ry
     estimated scf accuracy    <          2.8E-10 Ry

     iteration # 34     ecut=    50.00 Ry     beta= 0.60
     Davidson diagonalization with overlap
     ethr =  4.47E-13,  avg # of iterations =  5.1

     total cpu time spent up to now is     8761.1 secs

     End of self-consistent calculation

     Number of k-points >= 100: set verbosity='high' to print the bands.

     the Fermi energy is    15.9662 ev

!    total energy              =    -585.80481622 Ry
     Harris-Foulkes estimate   =    -585.80481622 Ry
     estimated scf accuracy    <          3.4E-11 Ry

     The total energy is the sum of the following terms:

     one-electron contribution =    -146.39368224 Ry
     hartree contribution      =     100.30883402 Ry
     xc contribution           =     -80.69285418 Ry
     ewald contribution        =    -459.02603512 Ry
     smearing contrib. (-TS)   =      -0.00107871 Ry

     convergence has been achieved in  34 iterations

     Forces acting on atoms (cartesian axes, Ry/au):

     atom    1 type  2   force =    -0.00707808   -0.00707808    0.00393125
     atom    2 type  2   force =    -0.00000051   -0.00000051   -0.00000100
     atom    3 type  2   force =     0.00707867    0.00707867   -0.00392955
     atom    4 type  1   force =     0.00079228    0.00079228   -0.00639922
     atom    5 type  1   force =    -0.00079237   -0.00079237    0.00639852

     Total force =     0.017768     Total SCF correction =     0.000024


     Computing stress (Cartesian axis) and pressure

          total   stress  (Ry/bohr**3)                   (kbar)     P=   54.98
   0.00038008   0.00000608  -0.00001006         55.91      0.89     -1.48
   0.00000608   0.00038008  -0.00001006          0.89     55.91     -1.48
  -0.00001006  -0.00001006   0.00036113         -1.48     -1.48     53.12


     number of scf cycles    =   3
     number of bfgs steps    =   2

     enthalpy old            =    -585.7738254297 Ry
     enthalpy new            =    -585.8048162202 Ry

     CASE: enthalpy_new < enthalpy_old

     new trust radius        =       0.0715010166 bohr
     new conv_thr            =            1.0E-10 Ry

     new unit-cell volume =    592.77162 a.u.^3 (    87.83969 Ang^3 )
     density =      6.22730 g/cm^3

CELL_PARAMETERS (alat=  1.88972599)
   4.909988757   1.627692295   4.910671128
   1.627692295   4.909988757   4.910671128
  -1.634850632  -1.634850632   1.637466679

ATOMIC_POSITIONS (angstrom)
Ti      -0.011020567  -0.011020567   3.280137304
Ti       1.634160471   1.634160471   4.911013891
Ti       3.279344045   3.279344045   6.541895790
Nb       4.912118277   4.912118277   8.185571304
Nb       4.893889035   4.893889035  11.457808513


     NEW-OLD atomic charge density approx. for the potential
     extrapolated charge   64.56389, renormalised to   62.00000

     total cpu time spent up to now is     8792.6 secs

     Self-consistent Calculation

     iteration #  1     ecut=    50.00 Ry     beta= 0.60
     Davidson diagonalization with overlap
     ethr =  1.00E-06,  avg # of iterations = 12.5

     total cpu time spent up to now is     9039.0 secs

     total energy              =    -585.22654527 Ry
     Harris-Foulkes estimate   =    -581.27628790 Ry
     estimated scf accuracy    <       0.47684151 Ry

     iteration #  2     ecut=    50.00 Ry     beta= 0.60
     Davidson diagonalization with overlap
     ethr =  7.69E-04,  avg # of iterations =  6.6

     total cpu time spent up to now is     9195.1 secs

     total energy              =    -584.88606285 Ry
     Harris-Foulkes estimate   =    -586.85398317 Ry
     estimated scf accuracy    <      14.06784475 Ry

     iteration #  3     ecut=    50.00 Ry     beta= 0.60
     Davidson diagonalization with overlap
     ethr =  7.69E-04,  avg # of iterations =  5.4

     total cpu time spent up to now is     9325.9 secs

     total energy              =    -585.59088026 Ry
     Harris-Foulkes estimate   =    -586.05884101 Ry
     estimated scf accuracy    <       2.83585399 Ry

     iteration #  4     ecut=    50.00 Ry     beta= 0.60
     Davidson diagonalization with overlap
     ethr =  7.69E-04,  avg # of iterations =  6.1

     total cpu time spent up to now is     9451.2 secs

     total energy              =    -585.68498374 Ry
     Harris-Foulkes estimate   =    -585.99921992 Ry
     estimated scf accuracy    <       2.79961856 Ry

     iteration #  5     ecut=    50.00 Ry     beta= 0.60
     Davidson diagonalization with overlap
     ethr =  7.69E-04,  avg # of iterations =  4.1

     total cpu time spent up to now is     9546.5 secs

     total energy              =    -585.81930219 Ry
     Harris-Foulkes estimate   =    -585.83097475 Ry
     estimated scf accuracy    <       0.10068896 Ry

     iteration #  6     ecut=    50.00 Ry     beta= 0.60
     Davidson diagonalization with overlap
     ethr =  1.62E-04,  avg # of iterations =  5.5

     total cpu time spent up to now is     9639.8 secs

     total energy              =    -585.81712302 Ry
     Harris-Foulkes estimate   =    -585.82310672 Ry
     estimated scf accuracy    <       0.07316111 Ry

     iteration #  7     ecut=    50.00 Ry     beta= 0.60
     Davidson diagonalization with overlap
     ethr =  1.18E-04,  avg # of iterations =  1.2

     total cpu time spent up to now is     9709.2 secs

     total energy              =    -585.81051667 Ry
     Harris-Foulkes estimate   =    -585.81806736 Ry
     estimated scf accuracy    <       0.05266725 Ry

     iteration #  8     ecut=    50.00 Ry     beta= 0.60
     Davidson diagonalization with overlap
     ethr =  8.49E-05,  avg # of iterations =  1.2

     total cpu time spent up to now is     9775.9 secs

     total energy              =    -585.81109775 Ry
     Harris-Foulkes estimate   =    -585.81176284 Ry
     estimated scf accuracy    <       0.02489605 Ry

     iteration #  9     ecut=    50.00 Ry     beta= 0.60
     Davidson diagonalization with overlap
     c_bands:  1 eigenvalues not converged
     ethr =  4.02E-05,  avg # of iterations =  2.3

     total cpu time spent up to now is     9846.9 secs

     total energy              =    -585.80841626 Ry
     Harris-Foulkes estimate   =    -585.81149656 Ry
     estimated scf accuracy    <       0.02202114 Ry

     iteration # 10     ecut=    50.00 Ry     beta= 0.60
     Davidson diagonalization with overlap
     ethr =  3.55E-05,  avg # of iterations =  2.2

     total cpu time spent up to now is     9916.9 secs

     total energy              =    -585.80702805 Ry
     Harris-Foulkes estimate   =    -585.80911987 Ry
     estimated scf accuracy    <       0.00918637 Ry

     iteration # 11     ecut=    50.00 Ry     beta= 0.60
     Davidson diagonalization with overlap
     c_bands:  1 eigenvalues not converged
     c_bands:  1 eigenvalues not converged
     ethr =  1.48E-05,  avg # of iterations =  6.6

     total cpu time spent up to now is    10031.2 secs

     total energy              =    -585.80886745 Ry
     Harris-Foulkes estimate   =    -585.80893851 Ry
     estimated scf accuracy    <       0.00074016 Ry

     iteration # 12     ecut=    50.00 Ry     beta= 0.60
     Davidson diagonalization with overlap
     c_bands:  1 eigenvalues not converged
     c_bands:  1 eigenvalues not converged
     c_bands:  1 eigenvalues not converged
     c_bands:  1 eigenvalues not converged
     c_bands:  1 eigenvalues not converged
     c_bands:  1 eigenvalues not converged
     c_bands:  1 eigenvalues not converged
     c_bands:  1 eigenvalues not converged
     c_bands:  1 eigenvalues not converged
     c_bands:  1 eigenvalues not converged
     c_bands:  1 eigenvalues not converged
     c_bands:  1 eigenvalues not converged
     c_bands:  1 eigenvalues not converged
     ethr =  1.19E-06,  avg # of iterations =  6.0

     total cpu time spent up to now is    10136.5 secs

     total energy              =    -585.80893942 Ry
     Harris-Foulkes estimate   =    -585.80897786 Ry
     estimated scf accuracy    <       0.00056153 Ry

     iteration # 13     ecut=    50.00 Ry     beta= 0.60
     Davidson diagonalization with overlap
     ethr =  9.06E-07,  avg # of iterations =  1.1

     total cpu time spent up to now is    10204.6 secs

     total energy              =    -585.80894556 Ry
     Harris-Foulkes estimate   =    -585.80895085 Ry
     estimated scf accuracy    <       0.00033996 Ry

     iteration # 14     ecut=    50.00 Ry     beta= 0.60
     Davidson diagonalization with overlap
     ethr =  5.48E-07,  avg # of iterations =  1.0

     total cpu time spent up to now is    10272.6 secs

     total energy              =    -585.80892838 Ry
     Harris-Foulkes estimate   =    -585.80894919 Ry
     estimated scf accuracy    <       0.00029180 Ry

     iteration # 15     ecut=    50.00 Ry     beta= 0.60
     Davidson diagonalization with overlap
     ethr =  4.71E-07,  avg # of iterations =  1.0

     total cpu time spent up to now is    10339.9 secs

     total energy              =    -585.80891780 Ry
     Harris-Foulkes estimate   =    -585.80893166 Ry
     estimated scf accuracy    <       0.00016598 Ry

     iteration # 16     ecut=    50.00 Ry     beta= 0.60
     Davidson diagonalization with overlap
     ethr =  2.68E-07,  avg # of iterations =  1.9

     total cpu time spent up to now is    10411.3 secs

     total energy              =    -585.80891842 Ry
     Harris-Foulkes estimate   =    -585.80892247 Ry
     estimated scf accuracy    <       0.00006289 Ry

     iteration # 17     ecut=    50.00 Ry     beta= 0.60
     Davidson diagonalization with overlap
     ethr =  1.01E-07,  avg # of iterations =  3.4

     total cpu time spent up to now is    10494.8 secs

     total energy              =    -585.80892143 Ry
     Harris-Foulkes estimate   =    -585.80892221 Ry
     estimated scf accuracy    <       0.00001955 Ry

     iteration # 18     ecut=    50.00 Ry     beta= 0.60
     Davidson diagonalization with overlap
     ethr =  3.15E-08,  avg # of iterations =  3.5

     total cpu time spent up to now is    10579.5 secs

     total energy              =    -585.80892064 Ry
     Harris-Foulkes estimate   =    -585.80892273 Ry
     estimated scf accuracy    <       0.00000894 Ry

     iteration # 19     ecut=    50.00 Ry     beta= 0.60
     Davidson diagonalization with overlap
     ethr =  1.44E-08,  avg # of iterations =  3.5

     total cpu time spent up to now is    10667.7 secs

     total energy              =    -585.80892162 Ry
     Harris-Foulkes estimate   =    -585.80892173 Ry
     estimated scf accuracy    <       0.00000067 Ry

     iteration # 20     ecut=    50.00 Ry     beta= 0.60
     Davidson diagonalization with overlap
     ethr =  1.08E-09,  avg # of iterations =  4.7

     total cpu time spent up to now is    10772.5 secs

     total energy              =    -585.80892183 Ry
     Harris-Foulkes estimate   =    -585.80892187 Ry
     estimated scf accuracy    <       0.00000067 Ry

     iteration # 21     ecut=    50.00 Ry     beta= 0.60
     Davidson diagonalization with overlap
     ethr =  1.08E-09,  avg # of iterations =  1.0

     total cpu time spent up to now is    10839.7 secs

     total energy              =    -585.80892182 Ry
     Harris-Foulkes estimate   =    -585.80892185 Ry
     estimated scf accuracy    <       0.00000027 Ry

     iteration # 22     ecut=    50.00 Ry     beta= 0.60
     Davidson diagonalization with overlap
     ethr =  4.39E-10,  avg # of iterations =  1.0

     total cpu time spent up to now is    10906.3 secs

     total energy              =    -585.80892183 Ry
     Harris-Foulkes estimate   =    -585.80892183 Ry
     estimated scf accuracy    <       0.00000010 Ry

     iteration # 23     ecut=    50.00 Ry     beta= 0.60
     Davidson diagonalization with overlap
     ethr =  1.58E-10,  avg # of iterations =  3.3

     total cpu time spent up to now is    10987.0 secs

     total energy              =    -585.80892183 Ry
     Harris-Foulkes estimate   =    -585.80892183 Ry
     estimated scf accuracy    <       0.00000003 Ry

     iteration # 24     ecut=    50.00 Ry     beta= 0.60
     Davidson diagonalization with overlap
     ethr =  4.47E-11,  avg # of iterations =  3.9

     total cpu time spent up to now is    11079.6 secs

     total energy              =    -585.80892183 Ry
     Harris-Foulkes estimate   =    -585.80892183 Ry
     estimated scf accuracy    <          4.9E-10 Ry

     iteration # 25     ecut=    50.00 Ry     beta= 0.60
     Davidson diagonalization with overlap
     ethr =  7.90E-13,  avg # of iterations =  5.0

     total cpu time spent up to now is    11194.3 secs

     End of self-consistent calculation

     Number of k-points >= 100: set verbosity='high' to print the bands.

     the Fermi energy is    15.1586 ev

!    total energy              =    -585.80892183 Ry
     Harris-Foulkes estimate   =    -585.80892183 Ry
     estimated scf accuracy    <          6.0E-11 Ry

     The total energy is the sum of the following terms:

     one-electron contribution =    -156.17056492 Ry
     hartree contribution      =     103.13433305 Ry
     xc contribution           =     -80.48242507 Ry
     ewald contribution        =    -452.28953287 Ry
     smearing contrib. (-TS)   =      -0.00073202 Ry

     convergence has been achieved in  25 iterations

     Forces acting on atoms (cartesian axes, Ry/au):

     atom    1 type  2   force =    -0.00665810   -0.00665810    0.00358003
     atom    2 type  2   force =    -0.00000071   -0.00000071   -0.00000116
     atom    3 type  2   force =     0.00665890    0.00665890   -0.00357820
     atom    4 type  1   force =     0.00257766    0.00257766   -0.00317943
     atom    5 type  1   force =    -0.00257775   -0.00257775    0.00317877

     Total force =     0.015804     Total SCF correction =     0.000028


     Computing stress (Cartesian axis) and pressure

          total   stress  (Ry/bohr**3)                   (kbar)     P=   -7.22
  -0.00004434  -0.00000495  -0.00000736         -6.52     -0.73     -1.08
  -0.00000495  -0.00004434  -0.00000736         -0.73     -6.52     -1.08
  -0.00000736  -0.00000736  -0.00005850         -1.08     -1.08     -8.61


     number of scf cycles    =   4
     number of bfgs steps    =   3

     enthalpy old            =    -585.8048162202 Ry
     enthalpy new            =    -585.8089218334 Ry

     CASE: enthalpy_new < enthalpy_old

     new trust radius        =       0.0091651704 bohr
     new conv_thr            =            1.0E-10 Ry

     new unit-cell volume =    589.83874 a.u.^3 (    87.40508 Ang^3 )
     density =      6.25827 g/cm^3

CELL_PARAMETERS (alat=  1.88972599)
   4.901381408   1.623728244   4.900412801
   1.623728244   4.901381408   4.900412801
  -1.632385941  -1.632385941   1.634952952

ATOMIC_POSITIONS (angstrom)
Ti      -0.014565757  -0.014565757   3.275650285
Ti       1.630610412   1.630610412   4.901298475
Ti       3.275790072   3.275790072   6.526953781
Nb       4.903734905   4.903734905   8.167226914
Nb       4.882601501   4.882601501  11.436206205


     NEW-OLD atomic charge density approx. for the potential
     extrapolated charge   61.70666, renormalised to   62.00000

     total cpu time spent up to now is    11225.3 secs

     Self-consistent Calculation

     iteration #  1     ecut=    50.00 Ry     beta= 0.60
     Davidson diagonalization with overlap
     ethr =  1.00E-06,  avg # of iterations =  5.1

     total cpu time spent up to now is    11375.1 secs

     total energy              =    -585.79805716 Ry
     Harris-Foulkes estimate   =    -586.33767239 Ry
     estimated scf accuracy    <       0.00999396 Ry

     iteration #  2     ecut=    50.00 Ry     beta= 0.60
     Davidson diagonalization with overlap
     ethr =  1.61E-05,  avg # of iterations =  5.6

     total cpu time spent up to now is    11516.7 secs

     total energy              =    -585.79568207 Ry
     Harris-Foulkes estimate   =    -585.83024646 Ry
     estimated scf accuracy    <       0.20212380 Ry

     iteration #  3     ecut=    50.00 Ry     beta= 0.60
     Davidson diagonalization with overlap
     ethr =  1.61E-05,  avg # of iterations =  5.1

     total cpu time spent up to now is    11635.0 secs

     total energy              =    -585.80852430 Ry
     Harris-Foulkes estimate   =    -585.81162483 Ry
     estimated scf accuracy    <       0.00958737 Ry

     iteration #  4     ecut=    50.00 Ry     beta= 0.60
     Davidson diagonalization with overlap
     ethr =  1.55E-05,  avg # of iterations =  4.2

     total cpu time spent up to now is    11723.8 secs

     total energy              =    -585.80844280 Ry
     Harris-Foulkes estimate   =    -585.81139023 Ry
     estimated scf accuracy    <       0.03548094 Ry

     iteration #  5     ecut=    50.00 Ry     beta= 0.60
     Davidson diagonalization with overlap
     ethr =  1.55E-05,  avg # of iterations =  1.7

     total cpu time spent up to now is    11792.1 secs

     total energy              =    -585.80928423 Ry
     Harris-Foulkes estimate   =    -585.80968412 Ry
     estimated scf accuracy    <       0.00409553 Ry

     iteration #  6     ecut=    50.00 Ry     beta= 0.60
     Davidson diagonalization with overlap
     ethr =  6.61E-06,  avg # of iterations =  3.8

     total cpu time spent up to now is    11873.4 secs

     total energy              =    -585.80929614 Ry
     Harris-Foulkes estimate   =    -585.80949045 Ry
     estimated scf accuracy    <       0.00186153 Ry

     iteration #  7     ecut=    50.00 Ry     beta= 0.60
     Davidson diagonalization with overlap
     ethr =  3.00E-06,  avg # of iterations =  1.7

     total cpu time spent up to now is    11939.8 secs

     total energy              =    -585.80930865 Ry
     Harris-Foulkes estimate   =    -585.80934456 Ry
     estimated scf accuracy    <       0.00105475 Ry

     iteration #  8     ecut=    50.00 Ry     beta= 0.60
     Davidson diagonalization with overlap
     ethr =  1.70E-06,  avg # of iterations =  1.2

     total cpu time spent up to now is    12004.5 secs

     total energy              =    -585.80911094 Ry
     Harris-Foulkes estimate   =    -585.80932414 Ry
     estimated scf accuracy    <       0.00086847 Ry

     iteration #  9     ecut=    50.00 Ry     beta= 0.60
     Davidson diagonalization with overlap
     ethr =  1.40E-06,  avg # of iterations =  3.3

     total cpu time spent up to now is    12085.0 secs

     total energy              =    -585.80920519 Ry
     Harris-Foulkes estimate   =    -585.80920628 Ry
     estimated scf accuracy    <       0.00002747 Ry

     iteration # 10     ecut=    50.00 Ry     beta= 0.60
     Davidson diagonalization with overlap
     ethr =  4.43E-08,  avg # of iterations =  4.9

     total cpu time spent up to now is    12196.8 secs

     total energy              =    -585.80921901 Ry
     Harris-Foulkes estimate   =    -585.80922181 Ry
     estimated scf accuracy    <       0.00001678 Ry

     iteration # 11     ecut=    50.00 Ry     beta= 0.60
     Davidson diagonalization with overlap
     ethr =  2.71E-08,  avg # of iterations =  3.3

     total cpu time spent up to now is    12285.7 secs

     total energy              =    -585.80921869 Ry
     Harris-Foulkes estimate   =    -585.80922222 Ry
     estimated scf accuracy    <       0.00002591 Ry

     iteration # 12     ecut=    50.00 Ry     beta= 0.60
     Davidson diagonalization with overlap
     ethr =  2.71E-08,  avg # of iterations =  1.0

     total cpu time spent up to now is    12348.7 secs

     total energy              =    -585.80921894 Ry
     Harris-Foulkes estimate   =    -585.80921959 Ry
     estimated scf accuracy    <       0.00000572 Ry

     iteration # 13     ecut=    50.00 Ry     beta= 0.60
     Davidson diagonalization with overlap
     ethr =  9.23E-09,  avg # of iterations =  3.5

     total cpu time spent up to now is    12432.2 secs

     total energy              =    -585.80921965 Ry
     Harris-Foulkes estimate   =    -585.80921966 Ry
     estimated scf accuracy    <       0.00000009 Ry

     iteration # 14     ecut=    50.00 Ry     beta= 0.60
     Davidson diagonalization with overlap
     ethr =  1.38E-10,  avg # of iterations =  4.7

     total cpu time spent up to now is    12532.9 secs

     total energy              =    -585.80921968 Ry
     Harris-Foulkes estimate   =    -585.80921969 Ry
     estimated scf accuracy    <       0.00000002 Ry

     iteration # 15     ecut=    50.00 Ry     beta= 0.60
     Davidson diagonalization with overlap
     ethr =  2.77E-11,  avg # of iterations =  3.1

     total cpu time spent up to now is    12619.5 secs

     total energy              =    -585.80921969 Ry
     Harris-Foulkes estimate   =    -585.80921969 Ry
     estimated scf accuracy    <          4.2E-10 Ry

     iteration # 16     ecut=    50.00 Ry     beta= 0.60
     Davidson diagonalization with overlap
     ethr =  6.85E-13,  avg # of iterations =  5.0

     total cpu time spent up to now is    12743.6 secs

     total energy              =    -585.80921969 Ry
     Harris-Foulkes estimate   =    -585.80921969 Ry
     estimated scf accuracy    <          1.4E-09 Ry

     iteration # 17     ecut=    50.00 Ry     beta= 0.60
     Davidson diagonalization with overlap
     ethr =  6.85E-13,  avg # of iterations =  3.8

     total cpu time spent up to now is    12829.3 secs

     End of self-consistent calculation

     Number of k-points >= 100: set verbosity='high' to print the bands.

     the Fermi energy is    15.2461 ev

!    total energy              =    -585.80921969 Ry
     Harris-Foulkes estimate   =    -585.80921969 Ry
     estimated scf accuracy    <          7.4E-12 Ry

     The total energy is the sum of the following terms:

     one-electron contribution =    -155.08238794 Ry
     hartree contribution      =     102.81629858 Ry
     xc contribution           =     -80.50544939 Ry
     ewald contribution        =    -453.03697125 Ry
     smearing contrib. (-TS)   =      -0.00070968 Ry

     convergence has been achieved in  17 iterations

     Forces acting on atoms (cartesian axes, Ry/au):

     atom    1 type  2   force =    -0.00652751   -0.00652751    0.00345960
     atom    2 type  2   force =    -0.00000002   -0.00000002    0.00000003
     atom    3 type  2   force =     0.00652780    0.00652780   -0.00345877
     atom    4 type  1   force =     0.00252127    0.00252127   -0.00302857
     atom    5 type  1   force =    -0.00252154   -0.00252154    0.00302772

     Total force =     0.015432     Total SCF correction =     0.000012


     Computing stress (Cartesian axis) and pressure

          total   stress  (Ry/bohr**3)                   (kbar)     P=   -0.79
  -0.00000079  -0.00000355  -0.00000781         -0.12     -0.52     -1.15
  -0.00000355  -0.00000079  -0.00000781         -0.52     -0.12     -1.15
  -0.00000781  -0.00000781  -0.00001460         -1.15     -1.15     -2.15


     number of scf cycles    =   5
     number of bfgs steps    =   4

     enthalpy old            =    -585.8089218334 Ry
     enthalpy new            =    -585.8092196858 Ry

     CASE: enthalpy_new < enthalpy_old

     new trust radius        =       0.0137401223 bohr
     new conv_thr            =            1.0E-10 Ry

     new unit-cell volume =    588.05020 a.u.^3 (    87.14005 Ang^3 )
     density =      6.27730 g/cm^3

CELL_PARAMETERS (alat=  1.88972599)
   4.895626543   1.620208993   4.891908040
   1.620208993   4.895626543   4.891908040
  -1.631223425  -1.631223425   1.633661953

ATOMIC_POSITIONS (angstrom)
Ti      -0.020282628  -0.020282628   3.273788957
Ti       1.627598088   1.627598088   4.893719783
Ti       3.275482988   3.275482988   6.513659115
Nb       4.898401518   4.898401518   8.151091456
Nb       4.872636364   4.872636364  11.420174788


     NEW-OLD atomic charge density approx. for the potential
     extrapolated charge   61.82057, renormalised to   62.00000

     total cpu time spent up to now is    12860.1 secs

     Self-consistent Calculation

     iteration #  1     ecut=    50.00 Ry     beta= 0.60
     Davidson diagonalization with overlap
     ethr =  1.00E-06,  avg # of iterations =  4.8

     total cpu time spent up to now is    13002.6 secs

     total energy              =    -585.80561778 Ry
     Harris-Foulkes estimate   =    -586.13118304 Ry
     estimated scf accuracy    <       0.00347869 Ry

     iteration #  2     ecut=    50.00 Ry     beta= 0.60
     Davidson diagonalization with overlap
     c_bands:  1 eigenvalues not converged
     c_bands:  1 eigenvalues not converged
     c_bands:  1 eigenvalues not converged
     c_bands:  1 eigenvalues not converged
     c_bands:  1 eigenvalues not converged
     c_bands:  1 eigenvalues not converged
     ethr =  5.61E-06,  avg # of iterations =  6.1

     total cpu time spent up to now is    13143.3 secs

     total energy              =    -585.80387202 Ry
     Harris-Foulkes estimate   =    -585.81720679 Ry
     estimated scf accuracy    <       0.08750751 Ry

     iteration #  3     ecut=    50.00 Ry     beta= 0.60
     Davidson diagonalization with overlap
     ethr =  5.61E-06,  avg # of iterations =  5.9

     total cpu time spent up to now is    13272.6 secs

     total energy              =    -585.80796150 Ry
     Harris-Foulkes estimate   =    -585.81122035 Ry
     estimated scf accuracy    <       0.02063569 Ry

     iteration #  4     ecut=    50.00 Ry     beta= 0.60
     Davidson diagonalization with overlap
     ethr =  5.61E-06,  avg # of iterations =  6.5

     total cpu time spent up to now is    13386.1 secs

     total energy              =    -585.80895852 Ry
     Harris-Foulkes estimate   =    -585.81062484 Ry
     estimated scf accuracy    <       0.01484617 Ry

     iteration #  5     ecut=    50.00 Ry     beta= 0.60
     Davidson diagonalization with overlap
     c_bands:  1 eigenvalues not converged
     ethr =  5.61E-06,  avg # of iterations =  4.1

     total cpu time spent up to now is    13468.5 secs

     total energy              =    -585.80954886 Ry
     Harris-Foulkes estimate   =    -585.80970892 Ry
     estimated scf accuracy    <       0.00119255 Ry

     iteration #  6     ecut=    50.00 Ry     beta= 0.60
     Davidson diagonalization with overlap
     c_bands:  1 eigenvalues not converged
     c_bands:  1 eigenvalues not converged
     c_bands:  1 eigenvalues not converged
     c_bands:  1 eigenvalues not converged
     c_bands:  1 eigenvalues not converged
     c_bands:  1 eigenvalues not converged
     c_bands:  1 eigenvalues not converged
     c_bands:  1 eigenvalues not converged
     ethr =  1.92E-06,  avg # of iterations =  5.7

     total cpu time spent up to now is    13561.1 secs

     total energy              =    -585.80950286 Ry
     Harris-Foulkes estimate   =    -585.80962273 Ry
     estimated scf accuracy    <       0.00063745 Ry

     iteration #  7     ecut=    50.00 Ry     beta= 0.60
     Davidson diagonalization with overlap
     ethr =  1.03E-06,  avg # of iterations =  2.1

     total cpu time spent up to now is    13631.3 secs

     total energy              =    -585.80952340 Ry
     Harris-Foulkes estimate   =    -585.80953563 Ry
     estimated scf accuracy    <       0.00014920 Ry

     iteration #  8     ecut=    50.00 Ry     beta= 0.60
     Davidson diagonalization with overlap
     ethr =  2.41E-07,  avg # of iterations =  4.0

     total cpu time spent up to now is    13719.8 secs

     total energy              =    -585.80952907 Ry
     Harris-Foulkes estimate   =    -585.80954160 Ry
     estimated scf accuracy    <       0.00003999 Ry

     iteration #  9     ecut=    50.00 Ry     beta= 0.60
     Davidson diagonalization with overlap
     ethr =  6.45E-08,  avg # of iterations =  4.2

[...]
     c_bands:  1 eigenvalues not converged
     c_bands:  1 eigenvalues not converged
     c_bands:  1 eigenvalues not converged
     c_bands:  1 eigenvalues not converged
     c_bands:  1 eigenvalues not converged
     c_bands:  1 eigenvalues not converged
     c_bands:  1 eigenvalues not converged
     c_bands:  2 eigenvalues not converged
     c_bands:  2 eigenvalues not converged
     c_bands:  2 eigenvalues not converged
     c_bands:  1 eigenvalues not converged
     c_bands:  2 eigenvalues not converged
     c_bands:  3 eigenvalues not converged
     c_bands:  2 eigenvalues not converged
     c_bands:  2 eigenvalues not converged
     c_bands:  3 eigenvalues not converged
     c_bands:  3 eigenvalues not converged
     c_bands:  2 eigenvalues not converged
     c_bands:  1 eigenvalues not converged
     c_bands:  2 eigenvalues not converged
     c_bands:  2 eigenvalues not converged
     c_bands:  2 eigenvalues not converged
     c_bands:  1 eigenvalues not converged
     c_bands:  1 eigenvalues not converged
     c_bands:  2 eigenvalues not converged
     c_bands:  1 eigenvalues not converged
     c_bands:  1 eigenvalues not converged
     c_bands:  3 eigenvalues not converged
     c_bands:  3 eigenvalues not converged
     c_bands:  3 eigenvalues not converged
     c_bands:  1 eigenvalues not converged
     c_bands:  1 eigenvalues not converged
     c_bands:  2 eigenvalues not converged
     c_bands:  2 eigenvalues not converged
     c_bands:  1 eigenvalues not converged
     c_bands:  1 eigenvalues not converged
     c_bands:  1 eigenvalues not converged
     c_bands:  1 eigenvalues not converged
     c_bands:  2 eigenvalues not converged
     c_bands:  2 eigenvalues not converged
     c_bands:  3 eigenvalues not converged
     c_bands:  2 eigenvalues not converged
     c_bands:  1 eigenvalues not converged
     c_bands:  1 eigenvalues not converged
     c_bands:  2 eigenvalues not converged
     c_bands:  2 eigenvalues not converged
     c_bands:  1 eigenvalues not converged
     c_bands:  1 eigenvalues not converged
     c_bands:  1 eigenvalues not converged
     c_bands:  1 eigenvalues not converged
     c_bands:  2 eigenvalues not converged
     c_bands:  2 eigenvalues not converged
     c_bands:  1 eigenvalues not converged
     c_bands:  1 eigenvalues not converged
     c_bands:  1 eigenvalues not converged
     c_bands:  1 eigenvalues not converged
     c_bands:  2 eigenvalues not converged
     c_bands:  1 eigenvalues not converged
     c_bands:  1 eigenvalues not converged
     c_bands:  3 eigenvalues not converged
     c_bands:  2 eigenvalues not converged
     c_bands:  1 eigenvalues not converged
     c_bands:  1 eigenvalues not converged
     c_bands:  1 eigenvalues not converged
     c_bands:  1 eigenvalues not converged
     c_bands:  1 eigenvalues not converged
     c_bands:  1 eigenvalues not converged
     c_bands:  1 eigenvalues not converged
     c_bands:  1 eigenvalues not converged
     c_bands:  1 eigenvalues not converged
     c_bands:  1 eigenvalues not converged
     c_bands:  1 eigenvalues not converged
     c_bands:  2 eigenvalues not converged
     c_bands:  1 eigenvalues not converged
     c_bands:  1 eigenvalues not converged
     c_bands:  2 eigenvalues not converged
     c_bands:  2 eigenvalues not converged
     c_bands:  1 eigenvalues not converged
     c_bands:  2 eigenvalues not converged
     c_bands:  2 eigenvalues not converged
     c_bands:  1 eigenvalues not converged
     c_bands:  2 eigenvalues not converged
     c_bands:  3 eigenvalues not converged
     c_bands:  2 eigenvalues not converged
     c_bands:  1 eigenvalues not converged
     c_bands:  2 eigenvalues not converged
     c_bands:  2 eigenvalues not converged
     c_bands:  1 eigenvalues not converged
     c_bands:  2 eigenvalues not converged
     c_bands:  1 eigenvalues not converged
     c_bands:  2 eigenvalues not converged
     c_bands:  2 eigenvalues not converged
     c_bands:  2 eigenvalues not converged
     c_bands:  2 eigenvalues not converged
     c_bands:  1 eigenvalues not converged
     c_bands:  2 eigenvalues not converged
     c_bands:  2 eigenvalues not converged
     c_bands:  2 eigenvalues not converged
     c_bands:  2 eigenvalues not converged
     c_bands:  2 eigenvalues not converged
     c_bands:  2 eigenvalues not converged
     c_bands:  1 eigenvalues not converged
     c_bands:  1 eigenvalues not converged
     c_bands:  1 eigenvalues not converged
     c_bands:  1 eigenvalues not converged
     c_bands:  1 eigenvalues not converged
     c_bands:  1 eigenvalues not converged
     c_bands:  1 eigenvalues not converged
     c_bands:  2 eigenvalues not converged
     c_bands:  3 eigenvalues not converged
     c_bands:  2 eigenvalues not converged
     c_bands:  2 eigenvalues not converged
     c_bands:  2 eigenvalues not converged
     c_bands:  1 eigenvalues not converged
     c_bands:  1 eigenvalues not converged
     c_bands:  1 eigenvalues not converged
     c_bands:  1 eigenvalues not converged
     c_bands:  3 eigenvalues not converged
     c_bands:  2 eigenvalues not converged
     c_bands:  1 eigenvalues not converged
     c_bands:  1 eigenvalues not converged
     c_bands:  1 eigenvalues not converged
     c_bands:  2 eigenvalues not converged
     c_bands:  1 eigenvalues not converged
     c_bands:  1 eigenvalues not converged
     c_bands:  1 eigenvalues not converged
     c_bands:  1 eigenvalues not converged
     c_bands:  1 eigenvalues not converged
     c_bands:  1 eigenvalues not converged
     c_bands:  1 eigenvalues not converged
     c_bands:  2 eigenvalues not converged
     c_bands:  1 eigenvalues not converged
     c_bands:  2 eigenvalues not converged
     c_bands:  2 eigenvalues not converged
     c_bands:  1 eigenvalues not converged
     c_bands:  1 eigenvalues not converged
     c_bands:  1 eigenvalues not converged
     c_bands:  1 eigenvalues not converged
     c_bands:  1 eigenvalues not converged
     c_bands:  1 eigenvalues not converged
     c_bands:  1 eigenvalues not converged
     c_bands:  2 eigenvalues not converged
     c_bands:  2 eigenvalues not converged
     c_bands:  1 eigenvalues not converged
     c_bands:  1 eigenvalues not converged
     ethr =  1.00E-06,  avg # of iterations = 16.8

     total cpu time spent up to now is    50672.0 secs

     total energy              =    -572.55473156 Ry
     Harris-Foulkes estimate   =    -588.02599928 Ry
     estimated scf accuracy    <      19.36874792 Ry

     iteration #  2     ecut=    50.00 Ry     beta= 0.60
     Davidson diagonalization with overlap
     ethr =  1.00E-02,  avg # of iterations =  5.6

     total cpu time spent up to now is    50764.5 secs

     total energy              =    -565.64840706 Ry
     Harris-Foulkes estimate   =    -611.89914596 Ry
     estimated scf accuracy    <     177.73963034 Ry

     iteration #  3     ecut=    50.00 Ry     beta= 0.60
     Davidson diagonalization with overlap
     ethr =  1.00E-02,  avg # of iterations =  4.8

     total cpu time spent up to now is    50843.2 secs

     total energy              =    -584.98040313 Ry
     Harris-Foulkes estimate   =    -587.68468153 Ry
     estimated scf accuracy    <      15.86097224 Ry

     iteration #  4     ecut=    50.00 Ry     beta= 0.60
     Davidson diagonalization with overlap
     ethr =  1.00E-02,  avg # of iterations =  4.0

     total cpu time spent up to now is    50901.4 secs

     total energy              =    -585.53214103 Ry
     Harris-Foulkes estimate   =    -586.28545435 Ry
     estimated scf accuracy    <       7.39047624 Ry

     iteration #  5     ecut=    50.00 Ry     beta= 0.60
     Davidson diagonalization with overlap
     ethr =  1.00E-02,  avg # of iterations =  1.1

     total cpu time spent up to now is    50943.4 secs

     total energy              =    -585.53583184 Ry
     Harris-Foulkes estimate   =    -585.75513391 Ry
     estimated scf accuracy    <       1.10126545 Ry

     iteration #  6     ecut=    50.00 Ry     beta= 0.60
     Davidson diagonalization with overlap
     ethr =  1.78E-03,  avg # of iterations =  5.3

     total cpu time spent up to now is    51018.3 secs

     total energy              =    -585.50700736 Ry
     Harris-Foulkes estimate   =    -585.98275968 Ry
     estimated scf accuracy    <       3.48256475 Ry

     iteration #  7     ecut=    50.00 Ry     beta= 0.60
     Davidson diagonalization with overlap
     ethr =  1.78E-03,  avg # of iterations =  3.9

     total cpu time spent up to now is    51070.3 secs

     total energy              =    -585.81110901 Ry
     Harris-Foulkes estimate   =    -585.82618523 Ry
     estimated scf accuracy    <       0.34608715 Ry

     iteration #  8     ecut=    50.00 Ry     beta= 0.60
     Davidson diagonalization with overlap
     ethr =  5.58E-04,  avg # of iterations =  3.5

     total cpu time spent up to now is    51119.0 secs

     total energy              =    -585.79916083 Ry
     Harris-Foulkes estimate   =    -585.82218759 Ry
     estimated scf accuracy    <       0.23067337 Ry

     iteration #  9     ecut=    50.00 Ry     beta= 0.60
     Davidson diagonalization with overlap
     ethr =  3.72E-04,  avg # of iterations =  1.4

     total cpu time spent up to now is    51161.5 secs

     total energy              =    -585.80801433 Ry
     Harris-Foulkes estimate   =    -585.80968494 Ry
     estimated scf accuracy    <       0.02079995 Ry

     iteration # 10     ecut=    50.00 Ry     beta= 0.60
     Davidson diagonalization with overlap
     ethr =  3.35E-05,  avg # of iterations =  6.6

     total cpu time spent up to now is    51230.1 secs

     total energy              =    -585.81165340 Ry
     Harris-Foulkes estimate   =    -585.81186488 Ry
     estimated scf accuracy    <       0.00102866 Ry

     iteration # 11     ecut=    50.00 Ry     beta= 0.60
     Davidson diagonalization with overlap
     c_bands:  1 eigenvalues not converged
     c_bands:  1 eigenvalues not converged
     c_bands:  1 eigenvalues not converged
     c_bands:  1 eigenvalues not converged
     ethr =  1.66E-06,  avg # of iterations =  5.0

     total cpu time spent up to now is    51288.7 secs

     total energy              =    -585.81163145 Ry
     Harris-Foulkes estimate   =    -585.81189503 Ry
     estimated scf accuracy    <       0.00179337 Ry

     iteration # 12     ecut=    50.00 Ry     beta= 0.60
     Davidson diagonalization with overlap
     ethr =  1.66E-06,  avg # of iterations =  3.1

     total cpu time spent up to now is    51335.0 secs

     total energy              =    -585.81171777 Ry
     Harris-Foulkes estimate   =    -585.81182690 Ry
     estimated scf accuracy    <       0.00058623 Ry

     iteration # 13     ecut=    50.00 Ry     beta= 0.60
     Davidson diagonalization with overlap
     ethr =  9.46E-07,  avg # of iterations =  2.0

     total cpu time spent up to now is    51376.1 secs

     total energy              =    -585.81176892 Ry
     Harris-Foulkes estimate   =    -585.81177922 Ry
     estimated scf accuracy    <       0.00017284 Ry

     iteration # 14     ecut=    50.00 Ry     beta= 0.60
     Davidson diagonalization with overlap
     ethr =  2.79E-07,  avg # of iterations =  2.8

     total cpu time spent up to now is    51420.4 secs

     total energy              =    -585.81177248 Ry
     Harris-Foulkes estimate   =    -585.81177998 Ry
     estimated scf accuracy    <       0.00007502 Ry

     iteration # 15     ecut=    50.00 Ry     beta= 0.60
     Davidson diagonalization with overlap
     ethr =  1.21E-07,  avg # of iterations =  2.5

     total cpu time spent up to now is    51462.5 secs

     total energy              =    -585.81177465 Ry
     Harris-Foulkes estimate   =    -585.81177645 Ry
     estimated scf accuracy    <       0.00001008 Ry

     iteration # 16     ecut=    50.00 Ry     beta= 0.60
     Davidson diagonalization with overlap
     ethr =  1.63E-08,  avg # of iterations =  4.2

     total cpu time spent up to now is    51519.6 secs

     total energy              =    -585.81177714 Ry
     Harris-Foulkes estimate   =    -585.81177764 Ry
     estimated scf accuracy    <       0.00000350 Ry

     iteration # 17     ecut=    50.00 Ry     beta= 0.60
     Davidson diagonalization with overlap
     ethr =  5.65E-09,  avg # of iterations =  1.2

     total cpu time spent up to now is    51558.5 secs

     total energy              =    -585.81177713 Ry
     Harris-Foulkes estimate   =    -585.81177732 Ry
     estimated scf accuracy    <       0.00000166 Ry

     iteration # 18     ecut=    50.00 Ry     beta= 0.60
     Davidson diagonalization with overlap
     ethr =  2.68E-09,  avg # of iterations =  3.1

     total cpu time spent up to now is    51606.5 secs

     total energy              =    -585.81177729 Ry
     Harris-Foulkes estimate   =    -585.81177732 Ry
     estimated scf accuracy    <       0.00000023 Ry

     iteration # 19     ecut=    50.00 Ry     beta= 0.60
     Davidson diagonalization with overlap
     ethr =  3.64E-10,  avg # of iterations =  2.7

     total cpu time spent up to now is    51651.3 secs

     total energy              =    -585.81177730 Ry
     Harris-Foulkes estimate   =    -585.81177731 Ry
     estimated scf accuracy    <       0.00000007 Ry

     iteration # 20     ecut=    50.00 Ry     beta= 0.60
     Davidson diagonalization with overlap
     ethr =  1.16E-10,  avg # of iterations =  3.4

     total cpu time spent up to now is    51703.9 secs

     total energy              =    -585.81177731 Ry
     Harris-Foulkes estimate   =    -585.81177731 Ry
     estimated scf accuracy    <       0.00000003 Ry

     iteration # 21     ecut=    50.00 Ry     beta= 0.60
     Davidson diagonalization with overlap
     ethr =  4.61E-11,  avg # of iterations =  1.4

     total cpu time spent up to now is    51746.6 secs

     total energy              =    -585.81177731 Ry
     Harris-Foulkes estimate   =    -585.81177731 Ry
     estimated scf accuracy    <          3.5E-09 Ry

     iteration # 22     ecut=    50.00 Ry     beta= 0.60
     Davidson diagonalization with overlap
     ethr =  5.69E-12,  avg # of iterations =  3.9

     total cpu time spent up to now is    51807.1 secs

     total energy              =    -585.81177731 Ry
     Harris-Foulkes estimate   =    -585.81177731 Ry
     estimated scf accuracy    <          1.0E-09 Ry

     iteration # 23     ecut=    50.00 Ry     beta= 0.60
     Davidson diagonalization with overlap
     ethr =  1.64E-12,  avg # of iterations =  2.2

     total cpu time spent up to now is    51854.7 secs

     total energy              =    -585.81177731 Ry
     Harris-Foulkes estimate   =    -585.81177731 Ry
     estimated scf accuracy    <          4.0E-10 Ry

     iteration # 24     ecut=    50.00 Ry     beta= 0.60
     Davidson diagonalization with overlap
     ethr =  6.45E-13,  avg # of iterations =  1.3

     total cpu time spent up to now is    51896.5 secs

     total energy              =    -585.81177731 Ry
     Harris-Foulkes estimate   =    -585.81177731 Ry
     estimated scf accuracy    <          7.6E-11 Ry

     iteration # 25     ecut=    50.00 Ry     beta= 0.60
     Davidson diagonalization with overlap
     ethr =  1.22E-13,  avg # of iterations =  3.9

     total cpu time spent up to now is    51955.6 secs

     total energy              =    -585.81177731 Ry
     Harris-Foulkes estimate   =    -585.81177731 Ry
     estimated scf accuracy    <          7.5E-12 Ry

     iteration # 26     ecut=    50.00 Ry     beta= 0.60
     Davidson diagonalization with overlap
     ethr =  1.00E-13,  avg # of iterations =  1.0

     total cpu time spent up to now is    51997.2 secs

     End of self-consistent calculation

     Number of k-points >= 100: set verbosity='high' to print the bands.

     the Fermi energy is    15.2027 ev

!    total energy              =    -585.81177731 Ry
     Harris-Foulkes estimate   =    -585.81177731 Ry
     estimated scf accuracy    <          3.7E-13 Ry

     The total energy is the sum of the following terms:

     one-electron contribution =    -156.03884453 Ry
     hartree contribution      =     103.18429122 Ry
     xc contribution           =     -80.50692290 Ry
     ewald contribution        =    -452.45058919 Ry
     smearing contrib. (-TS)   =       0.00028809 Ry

     convergence has been achieved in  26 iterations

     Forces acting on atoms (cartesian axes, Ry/au):

     atom    1 type  2   force =    -0.00000448   -0.00000448   -0.00000396
     atom    2 type  2   force =    -0.00000172   -0.00000172   -0.00000365
     atom    3 type  2   force =     0.00000593    0.00000593    0.00000761
     atom    4 type  1   force =     0.00000714    0.00000714    0.00001103
     atom    5 type  1   force =    -0.00000687   -0.00000687   -0.00001103

     Total force =     0.000025     Total SCF correction =     0.000002


     Computing stress (Cartesian axis) and pressure

          total   stress  (Ry/bohr**3)                   (kbar)     P=   -0.62
  -0.00000436   0.00000002   0.00000030         -0.64      0.00      0.04
   0.00000002  -0.00000436   0.00000030          0.00     -0.64      0.04
   0.00000030   0.00000030  -0.00000392          0.04      0.04     -0.58

 
     init_run     :     54.08s CPU     55.03s WALL (       2 calls)
     electrons    :  50236.50s CPU  51029.06s WALL (      32 calls)
     update_pot   :     57.92s CPU     58.18s WALL (      30 calls)
     forces       :    244.15s CPU    251.13s WALL (      32 calls)
     stress       :    584.33s CPU    602.51s WALL (      32 calls)

     Called by init_run:
     wfcinit      :     50.92s CPU     51.65s WALL (       2 calls)
     potinit      :      0.92s CPU      0.95s WALL (       2 calls)
     hinit0       :      1.60s CPU      1.63s WALL (       2 calls)

     Called by electrons:
     c_bands      :  43516.55s CPU  44060.87s WALL (     595 calls)
     sum_band     :   6457.45s CPU   6613.61s WALL (     595 calls)
     v_of_rho     :     68.93s CPU     69.59s WALL (     615 calls)
     newd         :    189.14s CPU    279.88s WALL (     615 calls)
     mix_rho      :     10.08s CPU     10.16s WALL (     595 calls)

     Called by c_bands:
     init_us_2    :    812.96s CPU    816.74s WALL (  628000 calls)
     cegterg      :  40191.40s CPU  40605.83s WALL (  297500 calls)

     Called by sum_band:
     sum_band:bec :     19.57s CPU     19.71s WALL (  297500 calls)
     addusdens    :    238.76s CPU    322.29s WALL (     595 calls)

     Called by *egterg:
     h_psi        :  28012.34s CPU  28340.75s WALL ( 1276617 calls)
     s_psi        :   1317.93s CPU   1322.30s WALL ( 1276617 calls)
     g_psi        :    163.02s CPU    163.90s WALL (  978117 calls)
     cdiaghg      :   4065.90s CPU   4080.69s WALL ( 1254617 calls)

     Called by h_psi:
     h_psi:pot    :  27786.75s CPU  28113.66s WALL ( 1276617 calls)
     h_psi:calbec :   1812.94s CPU   1831.06s WALL ( 1276617 calls)
     vloc_psi     :  24354.49s CPU  24657.98s WALL ( 1276617 calls)
     add_vuspsi   :   1609.66s CPU   1613.34s WALL ( 1276617 calls)

     General routines
     calbec       :   2538.02s CPU   2564.13s WALL ( 1654117 calls)
     fft          :     52.04s CPU     52.92s WALL (    8805 calls)
     ffts         :      1.17s CPU      1.19s WALL (    1210 calls)
     fftw         :  25233.96s CPU  25531.69s WALL (68073276 calls)
     interpolate  :      4.78s CPU      4.81s WALL (     615 calls)
 
     Parallel routines
     fft_scatt_xy :   4103.83s CPU   4160.97s WALL (68083291 calls)
     fft_scatt_yz :   5303.06s CPU   5401.57s WALL (68083291 calls)
 
     PWSCF        :    14h13m CPU       13h14m WALL

      26h
 
   This run was terminated on:   2:30:45   1Feb2020            

=------------------------------------------------------------------------------=
   JOB DONE.
=------------------------------------------------------------------------------=
