
     Program PWSCF v.6.0 (svn rev. 13079) starts on 26Apr2018 at 10:54:47 

     This program is part of the open-source Quantum ESPRESSO suite
     for quantum simulation of materials; please cite
         "P. Giannozzi et al., J. Phys.:Condens. Matter 21 395502 (2009);
          URL http://www.quantum-espresso.org", 
     in publications or presentations arising from this work. More details at
     http://www.quantum-espresso.org/quote

     Parallel version (MPI), running on     4 processors
     R & G space division:  proc/nbgrp/npool/nimage =       4
     Waiting for input...
     Reading input from standard input

     Current dimensions of program PWSCF are:
     Max number of different atomic species (ntypx) = 10
     Max number of k-points (npk) =  40000
     Max angular momentum in pseudopotentials (lmaxx) =  3

     Subspace diagonalization in iterative solution of the eigenvalue problem:
     a serial algorithm will be used


     Parallelization info
     --------------------
     sticks:   dense  smooth     PW     G-vecs:    dense   smooth      PW
     Min         311     121     45                 6957     1740     400
     Max         312     122     46                 6960     1741     401
     Sum        1247     487    181                27835     6963    1601



     bravais-lattice index     =            0
     lattice parameter (alat)  =       1.8897  a.u.
     unit-cell volume          =     146.6684 (a.u.)^3
     number of atoms/cell      =            1
     number of atomic types    =            1
     number of electrons       =        13.00
     number of Kohn-Sham states=           11
     kinetic-energy cutoff     =      50.0000  Ry
     charge density cutoff     =     500.0000  Ry
     convergence threshold     =      1.0E-10
     mixing beta               =       0.6000
     number of iterations used =            8  plain     mixing
     Exchange-correlation      =  SLA  PW   PBE  PBE ( 1  4  3  4 0 0)
     nstep                     =           50


     celldm(1)=   1.889726  celldm(2)=   0.000000  celldm(3)=   0.000000
     celldm(4)=   0.000000  celldm(5)=   0.000000  celldm(6)=   0.000000

     crystal axes: (cart. coord. in units of alat)
               a(1) = (   1.758031  -1.758031   1.758031 )  
               a(2) = (   1.758031   1.758031  -1.758031 )  
               a(3) = (  -1.758031   1.758031   1.758031 )  

     reciprocal axes: (cart. coord. in units 2 pi/alat)
               b(1) = (  0.284409  0.000000  0.284409 )  
               b(2) = (  0.284409  0.284409  0.000000 )  
               b(3) = (  0.000000  0.284409  0.284409 )  


     PseudoPot. # 1 for Nb read from file:
     ./Nb.pbe-nsp-van.UPF
     MD5 check sum: 0a22fc7fb0ba19a08ca5db297a5d2854
     Pseudo is Ultrasoft + core correction, Zval = 13.0
     Generated by new atomic code, or converted to UPF format
     Using radial grid of  887 points,  6 beta functions with: 
                l(1) =   0
                l(2) =   0
                l(3) =   1
                l(4) =   1
                l(5) =   2
                l(6) =   2
     Q(r) pseudized with  6 coefficients,  rinner =    1.000   1.000   1.000
                                                       1.000   1.000

     atomic species   valence    mass     pseudopotential
        Nb            13.00    92.90638     Nb( 1.00)

     48 Sym. Ops., with inversion, found



   Cartesian axes

     site n.     atom                  positions (alat units)
         1           Nb  tau(   1) = (   1.7580316   1.7580316   1.7580316  )

     number of k points=   256  Marzari-Vanderbilt smearing, width (Ry)=  0.0200

     Number of k-points >= 100: set verbosity='high' to print them.

     Dense  grid:    27835 G-vectors     FFT dimensions: (  45,  45,  45)

     Smooth grid:     6963 G-vectors     FFT dimensions: (  25,  25,  25)

     Estimated max dynamical RAM per process >      14.28Mb

     Estimated total allocated dynamical RAM >      57.12Mb

     Initial potential from superposition of free atoms

     starting charge   12.99727, renormalised to   13.00000
     Starting wfc are   13 randomized atomic wfcs

     total cpu time spent up to now is        1.4 secs

     per-process dynamical memory:    50.6 Mb

     Self-consistent Calculation

     iteration #  1     ecut=    50.00 Ry     beta=0.60
     Davidson diagonalization with overlap
     ethr =  1.00E-02,  avg # of iterations =  2.9

     Threshold (ethr) on eigenvalues was too large:
     Diagonalizing with lowered threshold

     Davidson diagonalization with overlap
     ethr =  9.71E-04,  avg # of iterations =  1.0

     total cpu time spent up to now is        4.5 secs

     total energy              =    -117.88373219 Ry
     Harris-Foulkes estimate   =    -117.95670864 Ry
     estimated scf accuracy    <       0.12885072 Ry

     iteration #  2     ecut=    50.00 Ry     beta=0.60
     Davidson diagonalization with overlap
     ethr =  9.91E-04,  avg # of iterations =  2.0

     total cpu time spent up to now is        6.2 secs

     total energy              =    -117.91081612 Ry
     Harris-Foulkes estimate   =    -117.91315777 Ry
     estimated scf accuracy    <       0.00473941 Ry

     iteration #  3     ecut=    50.00 Ry     beta=0.60
     Davidson diagonalization with overlap
     ethr =  3.65E-05,  avg # of iterations =  2.4

     total cpu time spent up to now is        8.1 secs

     total energy              =    -117.91169599 Ry
     Harris-Foulkes estimate   =    -117.91171975 Ry
     estimated scf accuracy    <       0.00042499 Ry

     iteration #  4     ecut=    50.00 Ry     beta=0.60
     Davidson diagonalization with overlap
     ethr =  3.27E-06,  avg # of iterations =  1.7

     total cpu time spent up to now is        9.6 secs

     total energy              =    -117.91171244 Ry
     Harris-Foulkes estimate   =    -117.91171271 Ry
     estimated scf accuracy    <       0.00000229 Ry

     iteration #  5     ecut=    50.00 Ry     beta=0.60
     Davidson diagonalization with overlap
     ethr =  1.76E-08,  avg # of iterations =  2.2

     total cpu time spent up to now is       11.3 secs

     total energy              =    -117.91171308 Ry
     Harris-Foulkes estimate   =    -117.91171322 Ry
     estimated scf accuracy    <       0.00000032 Ry

     iteration #  6     ecut=    50.00 Ry     beta=0.60
     Davidson diagonalization with overlap
     ethr =  2.48E-09,  avg # of iterations =  2.0

     total cpu time spent up to now is       12.9 secs

     total energy              =    -117.91171313 Ry
     Harris-Foulkes estimate   =    -117.91171313 Ry
     estimated scf accuracy    <          2.1E-09 Ry

     iteration #  7     ecut=    50.00 Ry     beta=0.60
     Davidson diagonalization with overlap
     ethr =  1.64E-11,  avg # of iterations =  2.3

     total cpu time spent up to now is       14.7 secs

     total energy              =    -117.91171313 Ry
     Harris-Foulkes estimate   =    -117.91171313 Ry
     estimated scf accuracy    <          4.2E-09 Ry

     iteration #  8     ecut=    50.00 Ry     beta=0.60
     Davidson diagonalization with overlap
     ethr =  1.64E-11,  avg # of iterations =  2.0

     total cpu time spent up to now is       16.3 secs

     End of self-consistent calculation

     Number of k-points >= 100: set verbosity='high' to print the bands.

     the Fermi energy is    14.3898 ev

!    total energy              =    -117.91171313 Ry
     Harris-Foulkes estimate   =    -117.91171313 Ry
     estimated scf accuracy    <          7.1E-12 Ry

     The total energy is the sum of the following terms:

     one-electron contribution =     -24.37403224 Ry
     hartree contribution      =      17.27779638 Ry
     xc contribution           =     -18.25188420 Ry
     ewald contribution        =     -92.56379168 Ry
     smearing contrib. (-TS)   =       0.00019861 Ry

     convergence has been achieved in   8 iterations

     Forces acting on atoms (Ry/au):

     atom    1 type  1   force =     0.00000000    0.00000000    0.00000000

     Total force =     0.000000     Total SCF correction =     0.000000


     entering subroutine stress ...

          total   stress  (Ry/bohr**3)                   (kbar)     P= -221.02
  -0.00150248  -0.00000000  -0.00000000       -221.02     -0.00     -0.00
  -0.00000000  -0.00150248  -0.00000000         -0.00   -221.02     -0.00
  -0.00000000  -0.00000000  -0.00150248         -0.00     -0.00   -221.02


     BFGS Geometry Optimization

     number of scf cycles    =   1
     number of bfgs steps    =   0

     enthalpy new            =    -117.9117131302 Ry

     new trust radius        =       0.0909804558 bohr
     new conv_thr            =            1.0E-10 Ry

     new unit-cell volume =    130.75389 a.u.^3 (    19.37573 Ang^3 )

CELL_PARAMETERS (alat=  1.88972599)
   1.691996141  -1.691996141   1.691996141
   1.691996141   1.691996141  -1.691996141
  -1.691996141   1.691996141   1.691996141

ATOMIC_POSITIONS (angstrom)
Nb       1.691996141   1.691996141   1.691996141


     NEW-OLD atomic charge density approx. for the potential
     extrapolated charge   11.41806, renormalised to   13.00000

     total cpu time spent up to now is       18.3 secs

     per-process dynamical memory:    72.7 Mb

     Self-consistent Calculation

     iteration #  1     ecut=    50.00 Ry     beta=0.60
     Davidson diagonalization with overlap
     ethr =  1.00E-06,  avg # of iterations =  6.1

     total cpu time spent up to now is       21.9 secs

     total energy              =    -117.31849055 Ry
     Harris-Foulkes estimate   =    -119.59444185 Ry
     estimated scf accuracy    <       0.52133801 Ry

     iteration #  2     ecut=    50.00 Ry     beta=0.60
     Davidson diagonalization with overlap
     ethr =  4.01E-03,  avg # of iterations =  3.1

     total cpu time spent up to now is       24.2 secs

     total energy              =    -117.93488961 Ry
     Harris-Foulkes estimate   =    -118.12206893 Ry
     estimated scf accuracy    <       0.43116119 Ry

     iteration #  3     ecut=    50.00 Ry     beta=0.60
     Davidson diagonalization with overlap
     ethr =  3.32E-03,  avg # of iterations =  1.1

     total cpu time spent up to now is       25.6 secs

     total energy              =    -117.94274355 Ry
     Harris-Foulkes estimate   =    -117.96180567 Ry
     estimated scf accuracy    <       0.08495128 Ry

     iteration #  4     ecut=    50.00 Ry     beta=0.60
     Davidson diagonalization with overlap
     ethr =  6.53E-04,  avg # of iterations =  1.9

     total cpu time spent up to now is       27.1 secs

     total energy              =    -117.92952349 Ry
     Harris-Foulkes estimate   =    -117.94668282 Ry
     estimated scf accuracy    <       0.03963760 Ry

     iteration #  5     ecut=    50.00 Ry     beta=0.60
     Davidson diagonalization with overlap
     ethr =  3.05E-04,  avg # of iterations =  1.7

     total cpu time spent up to now is       28.6 secs

     total energy              =    -117.92863823 Ry
     Harris-Foulkes estimate   =    -117.93250342 Ry
     estimated scf accuracy    <       0.00679238 Ry

     iteration #  6     ecut=    50.00 Ry     beta=0.60
     Davidson diagonalization with overlap
     ethr =  5.22E-05,  avg # of iterations =  2.2

     total cpu time spent up to now is       30.3 secs

     total energy              =    -117.92984570 Ry
     Harris-Foulkes estimate   =    -117.92990621 Ry
     estimated scf accuracy    <       0.00009930 Ry

     iteration #  7     ecut=    50.00 Ry     beta=0.60
     Davidson diagonalization with overlap
     ethr =  7.64E-07,  avg # of iterations =  2.5

     total cpu time spent up to now is       32.2 secs

     total energy              =    -117.92987135 Ry
     Harris-Foulkes estimate   =    -117.92987121 Ry
     estimated scf accuracy    <       0.00000064 Ry

     iteration #  8     ecut=    50.00 Ry     beta=0.60
     Davidson diagonalization with overlap
     ethr =  4.94E-09,  avg # of iterations =  2.0

     total cpu time spent up to now is       33.9 secs

     total energy              =    -117.92987091 Ry
     Harris-Foulkes estimate   =    -117.92987148 Ry
     estimated scf accuracy    <       0.00000089 Ry

     iteration #  9     ecut=    50.00 Ry     beta=0.60
     Davidson diagonalization with overlap
     ethr =  4.94E-09,  avg # of iterations =  2.0

     total cpu time spent up to now is       35.6 secs

     total energy              =    -117.92987112 Ry
     Harris-Foulkes estimate   =    -117.92987112 Ry
     estimated scf accuracy    <       0.00000003 Ry

     iteration # 10     ecut=    50.00 Ry     beta=0.60
     Davidson diagonalization with overlap
     ethr =  2.22E-10,  avg # of iterations =  1.7

     total cpu time spent up to now is       37.1 secs

     total energy              =    -117.92987112 Ry
     Harris-Foulkes estimate   =    -117.92987113 Ry
     estimated scf accuracy    <       0.00000004 Ry

     iteration # 11     ecut=    50.00 Ry     beta=0.60
     Davidson diagonalization with overlap
     ethr =  2.22E-10,  avg # of iterations =  1.0

     total cpu time spent up to now is       38.5 secs

     total energy              =    -117.92987112 Ry
     Harris-Foulkes estimate   =    -117.92987112 Ry
     estimated scf accuracy    <       0.00000003 Ry

     iteration # 12     ecut=    50.00 Ry     beta=0.60
     Davidson diagonalization with overlap
     ethr =  2.22E-10,  avg # of iterations =  1.0

     total cpu time spent up to now is       39.9 secs

     total energy              =    -117.92987112 Ry
     Harris-Foulkes estimate   =    -117.92987112 Ry
     estimated scf accuracy    <       0.00000002 Ry

     iteration # 13     ecut=    50.00 Ry     beta=0.60
     Davidson diagonalization with overlap
     ethr =  1.76E-10,  avg # of iterations =  1.0

     total cpu time spent up to now is       41.3 secs

     total energy              =    -117.92987112 Ry
     Harris-Foulkes estimate   =    -117.92987112 Ry
     estimated scf accuracy    <       0.00000001 Ry

     iteration # 14     ecut=    50.00 Ry     beta=0.60
     Davidson diagonalization with overlap
     ethr =  1.06E-10,  avg # of iterations =  1.0

     total cpu time spent up to now is       42.7 secs

     total energy              =    -117.92987111 Ry
     Harris-Foulkes estimate   =    -117.92987112 Ry
     estimated scf accuracy    <       0.00000003 Ry

     iteration # 15     ecut=    50.00 Ry     beta=0.60
     Davidson diagonalization with overlap
     ethr =  1.06E-10,  avg # of iterations =  2.1

     total cpu time spent up to now is       44.5 secs

     total energy              =    -117.92987112 Ry
     Harris-Foulkes estimate   =    -117.92987112 Ry
     estimated scf accuracy    <          1.2E-09 Ry

     iteration # 16     ecut=    50.00 Ry     beta=0.60
     Davidson diagonalization with overlap
     ethr =  9.39E-12,  avg # of iterations =  2.0

     total cpu time spent up to now is       46.0 secs

     End of self-consistent calculation

     Number of k-points >= 100: set verbosity='high' to print the bands.

     the Fermi energy is    16.5087 ev

!    total energy              =    -117.92987112 Ry
     Harris-Foulkes estimate   =    -117.92987112 Ry
     estimated scf accuracy    <          4.8E-12 Ry

     The total energy is the sum of the following terms:

     one-electron contribution =     -19.21460587 Ry
     hartree contribution      =      15.82597088 Ry
     xc contribution           =     -18.36507525 Ry
     ewald contribution        =     -96.17637864 Ry
     smearing contrib. (-TS)   =       0.00021777 Ry

     convergence has been achieved in  16 iterations

     Forces acting on atoms (Ry/au):

     atom    1 type  1   force =     0.00000000    0.00000000    0.00000000

     Total force =     0.000000     Total SCF correction =     0.000000


     entering subroutine stress ...

          total   stress  (Ry/bohr**3)                   (kbar)     P= -102.27
  -0.00069521  -0.00000000  -0.00000000       -102.27     -0.00     -0.00
   0.00000000  -0.00069521   0.00000000          0.00   -102.27      0.00
   0.00000000   0.00000000  -0.00069521          0.00      0.00   -102.27


     number of scf cycles    =   2
     number of bfgs steps    =   1

     enthalpy old            =    -117.9117131302 Ry
     enthalpy new            =    -117.9298711169 Ry

     CASE: enthalpy_new < enthalpy_old

     new trust radius        =       0.0669490289 bohr
     new conv_thr            =            1.0E-12 Ry

     new unit-cell volume =    119.60357 a.u.^3 (    17.72342 Ang^3 )

CELL_PARAMETERS (alat=  1.88972599)
   1.642464085  -1.642464085   1.642464085
   1.642464085   1.642464085  -1.642464085
  -1.642464085   1.642464085   1.642464085

ATOMIC_POSITIONS (angstrom)
Nb       1.642464085   1.642464085   1.642464085


     NEW-OLD atomic charge density approx. for the potential
     extrapolated charge   11.78830, renormalised to   13.00000

     total cpu time spent up to now is       48.1 secs

     per-process dynamical memory:    72.8 Mb

     Self-consistent Calculation

     iteration #  1     ecut=    50.00 Ry     beta=0.60
     Davidson diagonalization with overlap
     ethr =  1.00E-06,  avg # of iterations =  5.7

     total cpu time spent up to now is       51.6 secs

     total energy              =    -117.64651129 Ry
     Harris-Foulkes estimate   =    -118.95753191 Ry
     estimated scf accuracy    <       0.23238414 Ry

     iteration #  2     ecut=    50.00 Ry     beta=0.60
     Davidson diagonalization with overlap
     ethr =  1.79E-03,  avg # of iterations =  3.2

     total cpu time spent up to now is       53.9 secs

     total energy              =    -117.93522981 Ry
     Harris-Foulkes estimate   =    -118.01630635 Ry
     estimated scf accuracy    <       0.18478539 Ry

     iteration #  3     ecut=    50.00 Ry     beta=0.60
     Davidson diagonalization with overlap
     ethr =  1.42E-03,  avg # of iterations =  1.1

     total cpu time spent up to now is       55.3 secs

     total energy              =    -117.93688114 Ry
     Harris-Foulkes estimate   =    -117.94689236 Ry
     estimated scf accuracy    <       0.03623566 Ry

     iteration #  4     ecut=    50.00 Ry     beta=0.60
     Davidson diagonalization with overlap
     ethr =  2.79E-04,  avg # of iterations =  2.0

     total cpu time spent up to now is       56.8 secs

     total energy              =    -117.93130800 Ry
     Harris-Foulkes estimate   =    -117.93885836 Ry
     estimated scf accuracy    <       0.01386795 Ry

     iteration #  5     ecut=    50.00 Ry     beta=0.60
     Davidson diagonalization with overlap
     ethr =  1.07E-04,  avg # of iterations =  2.1

     total cpu time spent up to now is       58.4 secs

     total energy              =    -117.93253898 Ry
     Harris-Foulkes estimate   =    -117.93301442 Ry
     estimated scf accuracy    <       0.00073782 Ry

     iteration #  6     ecut=    50.00 Ry     beta=0.60
     Davidson diagonalization with overlap
     ethr =  5.68E-06,  avg # of iterations =  2.6

     total cpu time spent up to now is       60.4 secs

     total energy              =    -117.93270351 Ry
     Harris-Foulkes estimate   =    -117.93270325 Ry
     estimated scf accuracy    <       0.00000064 Ry

     iteration #  7     ecut=    50.00 Ry     beta=0.60
     Davidson diagonalization with overlap
     ethr =  4.96E-09,  avg # of iterations =  3.1

     total cpu time spent up to now is       62.4 secs

     total energy              =    -117.93270345 Ry
     Harris-Foulkes estimate   =    -117.93270506 Ry
     estimated scf accuracy    <       0.00000296 Ry

     iteration #  8     ecut=    50.00 Ry     beta=0.60
     Davidson diagonalization with overlap
     ethr =  4.96E-09,  avg # of iterations =  2.9

     total cpu time spent up to now is       64.4 secs

     total energy              =    -117.93270397 Ry
     Harris-Foulkes estimate   =    -117.93270393 Ry
     estimated scf accuracy    <       0.00000006 Ry

     iteration #  9     ecut=    50.00 Ry     beta=0.60
     Davidson diagonalization with overlap
     ethr =  4.27E-10,  avg # of iterations =  2.0

     total cpu time spent up to now is       66.1 secs

     total energy              =    -117.93270399 Ry
     Harris-Foulkes estimate   =    -117.93270398 Ry
     estimated scf accuracy    <       0.00000016 Ry

     iteration # 10     ecut=    50.00 Ry     beta=0.60
     Davidson diagonalization with overlap
     ethr =  4.27E-10,  avg # of iterations =  1.0

     total cpu time spent up to now is       67.5 secs

     total energy              =    -117.93270389 Ry
     Harris-Foulkes estimate   =    -117.93270399 Ry
     estimated scf accuracy    <       0.00000019 Ry

     iteration # 11     ecut=    50.00 Ry     beta=0.60
     Davidson diagonalization with overlap
     ethr =  4.27E-10,  avg # of iterations =  2.9

     total cpu time spent up to now is       69.4 secs

     total energy              =    -117.93270392 Ry
     Harris-Foulkes estimate   =    -117.93270393 Ry
     estimated scf accuracy    <          9.5E-09 Ry

     iteration # 12     ecut=    50.00 Ry     beta=0.60
     Davidson diagonalization with overlap
     ethr =  7.34E-11,  avg # of iterations =  1.0

     total cpu time spent up to now is       70.8 secs

     total energy              =    -117.93270392 Ry
     Harris-Foulkes estimate   =    -117.93270393 Ry
     estimated scf accuracy    <          8.3E-10 Ry

     iteration # 13     ecut=    50.00 Ry     beta=0.60
     Davidson diagonalization with overlap
     ethr =  6.36E-12,  avg # of iterations =  2.0

     total cpu time spent up to now is       72.4 secs

     total energy              =    -117.93270393 Ry
     Harris-Foulkes estimate   =    -117.93270393 Ry
     estimated scf accuracy    <          6.5E-12 Ry

     iteration # 14     ecut=    50.00 Ry     beta=0.60
     Davidson diagonalization with overlap
     ethr =  1.00E-13,  avg # of iterations =  1.5

     total cpu time spent up to now is       73.9 secs

     total energy              =    -117.93270393 Ry
     Harris-Foulkes estimate   =    -117.93270393 Ry
     estimated scf accuracy    <          5.0E-12 Ry

     iteration # 15     ecut=    50.00 Ry     beta=0.60
     Davidson diagonalization with overlap
     ethr =  1.00E-13,  avg # of iterations =  1.0

     total cpu time spent up to now is       75.3 secs

     End of self-consistent calculation

     Number of k-points >= 100: set verbosity='high' to print the bands.

     the Fermi energy is    18.3154 ev

!    total energy              =    -117.93270393 Ry
     Harris-Foulkes estimate   =    -117.93270393 Ry
     estimated scf accuracy    <          7.2E-13 Ry

     The total energy is the sum of the following terms:

     one-electron contribution =     -15.12379782 Ry
     hartree contribution      =      14.73161830 Ry
     xc contribution           =     -18.46407947 Ry
     ewald contribution        =     -99.07678532 Ry
     smearing contrib. (-TS)   =       0.00034037 Ry

     convergence has been achieved in  15 iterations

     Forces acting on atoms (Ry/au):

     atom    1 type  1   force =     0.00000000    0.00000000    0.00000000

     Total force =     0.000000     Total SCF correction =     0.000000


     entering subroutine stress ...

          total   stress  (Ry/bohr**3)                   (kbar)     P=   37.61
   0.00025565  -0.00000000  -0.00000000         37.61     -0.00     -0.00
  -0.00000000   0.00025565  -0.00000000         -0.00     37.61     -0.00
  -0.00000000  -0.00000000   0.00025565         -0.00     -0.00     37.61


     number of scf cycles    =   3
     number of bfgs steps    =   2

     enthalpy old            =    -117.9298711169 Ry
     enthalpy new            =    -117.9327039253 Ry

     CASE: enthalpy_new < enthalpy_old

     new trust radius        =       0.0169746847 bohr
     new conv_thr            =            1.0E-12 Ry

     new unit-cell volume =    122.40985 a.u.^3 (    18.13927 Ang^3 )

CELL_PARAMETERS (alat=  1.88972599)
   1.655210719  -1.655210719   1.655210719
   1.655210719   1.655210719  -1.655210719
  -1.655210719   1.655210719   1.655210719

ATOMIC_POSITIONS (angstrom)
Nb       1.655210719   1.655210719   1.655210719


     NEW-OLD atomic charge density approx. for the potential
     extrapolated charge   13.29797, renormalised to   13.00000

     total cpu time spent up to now is       77.3 secs

     per-process dynamical memory:    73.3 Mb

     Self-consistent Calculation

     iteration #  1     ecut=    50.00 Ry     beta=0.60
     Davidson diagonalization with overlap
     ethr =  1.00E-06,  avg # of iterations =  4.2

     total cpu time spent up to now is       80.4 secs

     total energy              =    -117.91873593 Ry
     Harris-Foulkes estimate   =    -117.67568694 Ry
     estimated scf accuracy    <       0.01001061 Ry

     iteration #  2     ecut=    50.00 Ry     beta=0.60
     Davidson diagonalization with overlap
     ethr =  7.70E-05,  avg # of iterations =  3.1

     total cpu time spent up to now is       82.7 secs

     total energy              =    -117.93320086 Ry
     Harris-Foulkes estimate   =    -117.93759598 Ry
     estimated scf accuracy    <       0.01044810 Ry

     iteration #  3     ecut=    50.00 Ry     beta=0.60
     Davidson diagonalization with overlap
     ethr =  7.70E-05,  avg # of iterations =  1.2

     total cpu time spent up to now is       84.1 secs

     total energy              =    -117.93284549 Ry
     Harris-Foulkes estimate   =    -117.93386201 Ry
     estimated scf accuracy    <       0.00211757 Ry

     iteration #  4     ecut=    50.00 Ry     beta=0.60
     Davidson diagonalization with overlap
     ethr =  1.63E-05,  avg # of iterations =  2.2

     total cpu time spent up to now is       85.7 secs

     total energy              =    -117.93295604 Ry
     Harris-Foulkes estimate   =    -117.93310592 Ry
     estimated scf accuracy    <       0.00019247 Ry

     iteration #  5     ecut=    50.00 Ry     beta=0.60
     Davidson diagonalization with overlap
     ethr =  1.48E-06,  avg # of iterations =  2.6

     total cpu time spent up to now is       87.6 secs

     total energy              =    -117.93302212 Ry
     Harris-Foulkes estimate   =    -117.93303466 Ry
     estimated scf accuracy    <       0.00003030 Ry

     iteration #  6     ecut=    50.00 Ry     beta=0.60
     Davidson diagonalization with overlap
     ethr =  2.33E-07,  avg # of iterations =  1.5

     total cpu time spent up to now is       89.1 secs

     total energy              =    -117.93302012 Ry
     Harris-Foulkes estimate   =    -117.93302424 Ry
     estimated scf accuracy    <       0.00000585 Ry

     iteration #  7     ecut=    50.00 Ry     beta=0.60
     Davidson diagonalization with overlap
     ethr =  4.50E-08,  avg # of iterations =  2.0

     total cpu time spent up to now is       90.8 secs

     total energy              =    -117.93302212 Ry
     Harris-Foulkes estimate   =    -117.93302225 Ry
     estimated scf accuracy    <       0.00000058 Ry

     iteration #  8     ecut=    50.00 Ry     beta=0.60
     Davidson diagonalization with overlap
     ethr =  4.46E-09,  avg # of iterations =  1.0

     total cpu time spent up to now is       92.2 secs

     total energy              =    -117.93302196 Ry
     Harris-Foulkes estimate   =    -117.93302213 Ry
     estimated scf accuracy    <       0.00000029 Ry

     iteration #  9     ecut=    50.00 Ry     beta=0.60
     Davidson diagonalization with overlap
     ethr =  2.24E-09,  avg # of iterations =  2.0

     total cpu time spent up to now is       93.8 secs

     total energy              =    -117.93302200 Ry
     Harris-Foulkes estimate   =    -117.93302201 Ry
     estimated scf accuracy    <          4.4E-09 Ry

     iteration # 10     ecut=    50.00 Ry     beta=0.60
     Davidson diagonalization with overlap
     ethr =  3.38E-11,  avg # of iterations =  2.0

     total cpu time spent up to now is       95.6 secs

     total energy              =    -117.93302201 Ry
     Harris-Foulkes estimate   =    -117.93302201 Ry
     estimated scf accuracy    <          4.3E-11 Ry

     iteration # 11     ecut=    50.00 Ry     beta=0.60
     Davidson diagonalization with overlap
     ethr =  3.31E-13,  avg # of iterations =  2.0

     total cpu time spent up to now is       97.2 secs

     total energy              =    -117.93302201 Ry
     Harris-Foulkes estimate   =    -117.93302201 Ry
     estimated scf accuracy    <          2.1E-11 Ry

     iteration # 12     ecut=    50.00 Ry     beta=0.60
     Davidson diagonalization with overlap
     ethr =  1.60E-13,  avg # of iterations =  2.0

     total cpu time spent up to now is       98.8 secs

     total energy              =    -117.93302201 Ry
     Harris-Foulkes estimate   =    -117.93302201 Ry
     estimated scf accuracy    <          2.7E-12 Ry

     iteration # 13     ecut=    50.00 Ry     beta=0.60
     Davidson diagonalization with overlap
     ethr =  1.00E-13,  avg # of iterations =  1.0

     total cpu time spent up to now is      100.2 secs

     total energy              =    -117.93302201 Ry
     Harris-Foulkes estimate   =    -117.93302201 Ry
     estimated scf accuracy    <          1.1E-12 Ry

     iteration # 14     ecut=    50.00 Ry     beta=0.60
     Davidson diagonalization with overlap
     ethr =  1.00E-13,  avg # of iterations =  1.0

     total cpu time spent up to now is      101.6 secs

     End of self-consistent calculation

     Number of k-points >= 100: set verbosity='high' to print the bands.

     the Fermi energy is    17.8312 ev

!    total energy              =    -117.93302201 Ry
     Harris-Foulkes estimate   =    -117.93302201 Ry
     estimated scf accuracy    <          7.9E-13 Ry

     The total energy is the sum of the following terms:

     one-electron contribution =     -16.19595978 Ry
     hartree contribution      =      15.01382430 Ry
     xc contribution           =     -18.43738851 Ry
     ewald contribution        =     -98.31380357 Ry
     smearing contrib. (-TS)   =       0.00030555 Ry

     convergence has been achieved in  14 iterations

     Forces acting on atoms (Ry/au):

     atom    1 type  1   force =     0.00000000    0.00000000    0.00000000

     Total force =     0.000000     Total SCF correction =     0.000000


     entering subroutine stress ...

          total   stress  (Ry/bohr**3)                   (kbar)     P=   -3.51
  -0.00002385  -0.00000000   0.00000000         -3.51     -0.00      0.00
  -0.00000000  -0.00002385   0.00000000         -0.00     -3.51      0.00
   0.00000000   0.00000000  -0.00002385          0.00      0.00     -3.51


     number of scf cycles    =   4
     number of bfgs steps    =   3

     enthalpy old            =    -117.9327039253 Ry
     enthalpy new            =    -117.9330220063 Ry

     CASE: enthalpy_new < enthalpy_old

     new trust radius        =       0.0014749436 bohr
     new conv_thr            =            1.0E-12 Ry

     new unit-cell volume =    122.16523 a.u.^3 (    18.10302 Ang^3 )

CELL_PARAMETERS (alat=  1.88972599)
   1.654107427  -1.654107427   1.654107427
   1.654107427   1.654107427  -1.654107427
  -1.654107427   1.654107427   1.654107427

ATOMIC_POSITIONS (angstrom)
Nb       1.654107427   1.654107427   1.654107427


     NEW-OLD atomic charge density approx. for the potential
     extrapolated charge   12.97398, renormalised to   13.00000

     total cpu time spent up to now is      103.7 secs

     per-process dynamical memory:    73.3 Mb

     Self-consistent Calculation

     iteration #  1     ecut=    50.00 Ry     beta=0.60
     Davidson diagonalization with overlap
     ethr =  1.00E-06,  avg # of iterations =  2.1

     total cpu time spent up to now is      105.8 secs

     total energy              =    -117.93291158 Ry
     Harris-Foulkes estimate   =    -117.95549521 Ry
     estimated scf accuracy    <       0.00008224 Ry

     iteration #  2     ecut=    50.00 Ry     beta=0.60
     Davidson diagonalization with overlap
     ethr =  6.33E-07,  avg # of iterations =  3.0

     total cpu time spent up to now is      108.0 secs

     total energy              =    -117.93302627 Ry
     Harris-Foulkes estimate   =    -117.93306066 Ry
     estimated scf accuracy    <       0.00008103 Ry

     iteration #  3     ecut=    50.00 Ry     beta=0.60
     Davidson diagonalization with overlap
     ethr =  6.23E-07,  avg # of iterations =  1.1

     total cpu time spent up to now is      109.4 secs

     total energy              =    -117.93302438 Ry
     Harris-Foulkes estimate   =    -117.93303138 Ry
     estimated scf accuracy    <       0.00001637 Ry

     iteration #  4     ecut=    50.00 Ry     beta=0.60
     Davidson diagonalization with overlap
     ethr =  1.26E-07,  avg # of iterations =  2.0

     total cpu time spent up to now is      111.0 secs

     total energy              =    -117.93302414 Ry
     Harris-Foulkes estimate   =    -117.93302606 Ry
     estimated scf accuracy    <       0.00000243 Ry

     iteration #  5     ecut=    50.00 Ry     beta=0.60
     Davidson diagonalization with overlap
     ethr =  1.87E-08,  avg # of iterations =  2.3

     total cpu time spent up to now is      112.8 secs

     total energy              =    -117.93302503 Ry
     Harris-Foulkes estimate   =    -117.93302522 Ry
     estimated scf accuracy    <       0.00000054 Ry

     iteration #  6     ecut=    50.00 Ry     beta=0.60
     Davidson diagonalization with overlap
     ethr =  4.14E-09,  avg # of iterations =  1.0

     total cpu time spent up to now is      114.2 secs

     total energy              =    -117.93302493 Ry
     Harris-Foulkes estimate   =    -117.93302506 Ry
     estimated scf accuracy    <       0.00000016 Ry

     iteration #  7     ecut=    50.00 Ry     beta=0.60
     Davidson diagonalization with overlap
     ethr =  1.22E-09,  avg # of iterations =  2.7

     total cpu time spent up to now is      116.1 secs

     total energy              =    -117.93302498 Ry
     Harris-Foulkes estimate   =    -117.93302504 Ry
     estimated scf accuracy    <       0.00000011 Ry

     iteration #  8     ecut=    50.00 Ry     beta=0.60
     Davidson diagonalization with overlap
     ethr =  8.22E-10,  avg # of iterations =  2.0

     total cpu time spent up to now is      117.7 secs

     total energy              =    -117.93302499 Ry
     Harris-Foulkes estimate   =    -117.93302499 Ry
     estimated scf accuracy    <          1.5E-09 Ry

     iteration #  9     ecut=    50.00 Ry     beta=0.60
     Davidson diagonalization with overlap
     ethr =  1.18E-11,  avg # of iterations =  1.5

     total cpu time spent up to now is      119.2 secs

     total energy              =    -117.93302499 Ry
     Harris-Foulkes estimate   =    -117.93302499 Ry
     estimated scf accuracy    <          2.4E-09 Ry

     iteration # 10     ecut=    50.00 Ry     beta=0.60
     Davidson diagonalization with overlap
     ethr =  1.18E-11,  avg # of iterations =  2.0

     total cpu time spent up to now is      120.7 secs

     total energy              =    -117.93302499 Ry
     Harris-Foulkes estimate   =    -117.93302499 Ry
     estimated scf accuracy    <          3.8E-10 Ry

     iteration # 11     ecut=    50.00 Ry     beta=0.60
     Davidson diagonalization with overlap
     ethr =  2.91E-12,  avg # of iterations =  2.0

     total cpu time spent up to now is      122.4 secs

     total energy              =    -117.93302499 Ry
     Harris-Foulkes estimate   =    -117.93302499 Ry
     estimated scf accuracy    <          3.6E-12 Ry

     iteration # 12     ecut=    50.00 Ry     beta=0.60
     Davidson diagonalization with overlap
     ethr =  1.00E-13,  avg # of iterations =  1.4

     total cpu time spent up to now is      123.8 secs

     total energy              =    -117.93302499 Ry
     Harris-Foulkes estimate   =    -117.93302499 Ry
     estimated scf accuracy    <          6.3E-12 Ry

     iteration # 13     ecut=    50.00 Ry     beta=0.60
     Davidson diagonalization with overlap
     ethr =  1.00E-13,  avg # of iterations =  1.0

     total cpu time spent up to now is      125.3 secs

     total energy              =    -117.93302499 Ry
     Harris-Foulkes estimate   =    -117.93302499 Ry
     estimated scf accuracy    <          8.1E-12 Ry

     iteration # 14     ecut=    50.00 Ry     beta=0.60
     Davidson diagonalization with overlap
     ethr =  1.00E-13,  avg # of iterations =  1.0

     total cpu time spent up to now is      126.7 secs

     total energy              =    -117.93302499 Ry
     Harris-Foulkes estimate   =    -117.93302499 Ry
     estimated scf accuracy    <          1.2E-11 Ry

     iteration # 15     ecut=    50.00 Ry     beta=0.60
     Davidson diagonalization with overlap
     ethr =  1.00E-13,  avg # of iterations =  1.0

     total cpu time spent up to now is      128.1 secs

     total energy              =    -117.93302499 Ry
     Harris-Foulkes estimate   =    -117.93302499 Ry
     estimated scf accuracy    <          3.0E-11 Ry

     iteration # 16     ecut=    50.00 Ry     beta=0.60
     Davidson diagonalization with overlap
     ethr =  1.00E-13,  avg # of iterations =  2.0

     total cpu time spent up to now is      129.7 secs

     End of self-consistent calculation

     Number of k-points >= 100: set verbosity='high' to print the bands.

     the Fermi energy is    17.8725 ev

!    total energy              =    -117.93302499 Ry
     Harris-Foulkes estimate   =    -117.93302499 Ry
     estimated scf accuracy    <          3.8E-13 Ry

     The total energy is the sum of the following terms:

     one-electron contribution =     -16.10370190 Ry
     hartree contribution      =      14.98941133 Ry
     xc contribution           =     -18.43966407 Ry
     ewald contribution        =     -98.37937903 Ry
     smearing contrib. (-TS)   =       0.00030867 Ry

     convergence has been achieved in  16 iterations

     Forces acting on atoms (Ry/au):

     atom    1 type  1   force =     0.00000000    0.00000000    0.00000000

     Total force =     0.000000     Total SCF correction =     0.000000


     entering subroutine stress ...

          total   stress  (Ry/bohr**3)                   (kbar)     P=   -0.09
  -0.00000062   0.00000000   0.00000000         -0.09      0.00      0.00
   0.00000000  -0.00000062   0.00000000          0.00     -0.09      0.00
   0.00000000   0.00000000  -0.00000062          0.00      0.00     -0.09


     number of scf cycles    =   5
     number of bfgs steps    =   4

     enthalpy old            =    -117.9330220063 Ry
     enthalpy new            =    -117.9330249922 Ry

     CASE: enthalpy_new < enthalpy_old

     small trust_radius: resetting bfgs history

     new trust radius        =       0.0000344872 bohr
     new conv_thr            =            1.0E-12 Ry

     new unit-cell volume =    122.15952 a.u.^3 (    18.10217 Ang^3 )

CELL_PARAMETERS (alat=  1.88972599)
   1.654081621  -1.654081621   1.654081621
   1.654081621   1.654081621  -1.654081621
  -1.654081621   1.654081621   1.654081621

ATOMIC_POSITIONS (angstrom)
Nb       1.654081621   1.654081621   1.654081621


     NEW-OLD atomic charge density approx. for the potential
     extrapolated charge   12.99939, renormalised to   13.00000

     total cpu time spent up to now is      131.7 secs

     per-process dynamical memory:    73.3 Mb

     Self-consistent Calculation

     iteration #  1     ecut=    50.00 Ry     beta=0.60
     Davidson diagonalization with overlap
     ethr =  1.00E-06,  avg # of iterations =  2.0

     Threshold (ethr) on eigenvalues was too large:
     Diagonalizing with lowered threshold

     Davidson diagonalization with overlap
     ethr =  3.44E-10,  avg # of iterations =  1.0

     total cpu time spent up to now is      135.1 secs

     total energy              =    -117.93302493 Ry
     Harris-Foulkes estimate   =    -117.93354997 Ry
     estimated scf accuracy    <       0.00000005 Ry

     iteration #  2     ecut=    50.00 Ry     beta=0.60
     Davidson diagonalization with overlap
     ethr =  3.49E-10,  avg # of iterations =  3.0

     total cpu time spent up to now is      137.1 secs

     total energy              =    -117.93302499 Ry
     Harris-Foulkes estimate   =    -117.93302501 Ry
     estimated scf accuracy    <       0.00000004 Ry

     iteration #  3     ecut=    50.00 Ry     beta=0.60
     Davidson diagonalization with overlap
     ethr =  3.44E-10,  avg # of iterations =  1.1

     total cpu time spent up to now is      138.5 secs

     total energy              =    -117.93302499 Ry
     Harris-Foulkes estimate   =    -117.93302500 Ry
     estimated scf accuracy    <          9.1E-09 Ry

     iteration #  4     ecut=    50.00 Ry     beta=0.60
     Davidson diagonalization with overlap
     ethr =  6.96E-11,  avg # of iterations =  2.0

     total cpu time spent up to now is      140.0 secs

     total energy              =    -117.93302499 Ry
     Harris-Foulkes estimate   =    -117.93302499 Ry
     estimated scf accuracy    <          1.3E-09 Ry

     iteration #  5     ecut=    50.00 Ry     beta=0.60
     Davidson diagonalization with overlap
     ethr =  9.91E-12,  avg # of iterations =  2.3

     total cpu time spent up to now is      141.8 secs

     total energy              =    -117.93302499 Ry
     Harris-Foulkes estimate   =    -117.93302499 Ry
     estimated scf accuracy    <          2.6E-10 Ry

     iteration #  6     ecut=    50.00 Ry     beta=0.60
     Davidson diagonalization with overlap
     ethr =  1.97E-12,  avg # of iterations =  1.0

     total cpu time spent up to now is      143.3 secs

     total energy              =    -117.93302499 Ry
     Harris-Foulkes estimate   =    -117.93302499 Ry
     estimated scf accuracy    <          7.8E-11 Ry

     iteration #  7     ecut=    50.00 Ry     beta=0.60
     Davidson diagonalization with overlap
     ethr =  6.03E-13,  avg # of iterations =  3.0

     total cpu time spent up to now is      145.2 secs

     total energy              =    -117.93302499 Ry
     Harris-Foulkes estimate   =    -117.93302499 Ry
     estimated scf accuracy    <          1.0E-10 Ry

     iteration #  8     ecut=    50.00 Ry     beta=0.60
     Davidson diagonalization with overlap
     ethr =  6.03E-13,  avg # of iterations =  2.0

     total cpu time spent up to now is      146.9 secs

     End of self-consistent calculation

     Number of k-points >= 100: set verbosity='high' to print the bands.

     the Fermi energy is    17.8735 ev

!    total energy              =    -117.93302499 Ry
     Harris-Foulkes estimate   =    -117.93302499 Ry
     estimated scf accuracy    <          6.3E-13 Ry

     The total energy is the sum of the following terms:

     one-electron contribution =     -16.10154180 Ry
     hartree contribution      =      14.98883900 Ry
     xc contribution           =     -18.43971706 Ry
     ewald contribution        =     -98.38091387 Ry
     smearing contrib. (-TS)   =       0.00030874 Ry

     convergence has been achieved in   8 iterations

     Forces acting on atoms (Ry/au):

     atom    1 type  1   force =     0.00000000    0.00000000    0.00000000

     Total force =     0.000000     Total SCF correction =     0.000000


     entering subroutine stress ...

          total   stress  (Ry/bohr**3)                   (kbar)     P=   -0.01
  -0.00000010  -0.00000000  -0.00000000         -0.01     -0.00     -0.00
  -0.00000000  -0.00000010  -0.00000000         -0.00     -0.01     -0.00
  -0.00000000  -0.00000000  -0.00000010         -0.00     -0.00     -0.01


     number of scf cycles    =   6
     number of bfgs steps    =   5

     enthalpy old            =    -117.9330249922 Ry
     enthalpy new            =    -117.9330249941 Ry

     CASE: enthalpy_new < enthalpy_old

     Message from routine bfgs:
     history already reset at previous step: stopping
     small trust_radius: resetting bfgs history

     new trust radius        =       0.0000055852 bohr
     new conv_thr            =            1.0E-12 Ry

     new unit-cell volume =    122.15859 a.u.^3 (    18.10204 Ang^3 )

CELL_PARAMETERS (alat=  1.88972599)
   1.654077442  -1.654077442   1.654077442
   1.654077442   1.654077442  -1.654077442
  -1.654077442   1.654077442   1.654077442

ATOMIC_POSITIONS (angstrom)
Nb       1.654077442   1.654077442   1.654077442


     NEW-OLD atomic charge density approx. for the potential
     extrapolated charge   12.99990, renormalised to   13.00000

     total cpu time spent up to now is      149.0 secs

     per-process dynamical memory:    73.3 Mb

     Self-consistent Calculation

     iteration #  1     ecut=    50.00 Ry     beta=0.60
     Davidson diagonalization with overlap
     ethr =  1.00E-06,  avg # of iterations =  2.0

     Threshold (ethr) on eigenvalues was too large:
     Diagonalizing with lowered threshold

     Davidson diagonalization with overlap
     ethr =  9.36E-12,  avg # of iterations =  1.0

     total cpu time spent up to now is      152.1 secs

     total energy              =    -117.93302499 Ry
     Harris-Foulkes estimate   =    -117.93311001 Ry
     estimated scf accuracy    <          1.2E-09 Ry

     iteration #  2     ecut=    50.00 Ry     beta=0.60
     Davidson diagonalization with overlap
     ethr =  9.48E-12,  avg # of iterations =  3.0

     total cpu time spent up to now is      154.1 secs

     total energy              =    -117.93302499 Ry
     Harris-Foulkes estimate   =    -117.93302499 Ry
     estimated scf accuracy    <          1.2E-09 Ry

     iteration #  3     ecut=    50.00 Ry     beta=0.60
     Davidson diagonalization with overlap
     ethr =  9.07E-12,  avg # of iterations =  1.1

     total cpu time spent up to now is      155.5 secs

     total energy              =    -117.93302499 Ry
     Harris-Foulkes estimate   =    -117.93302499 Ry
     estimated scf accuracy    <          2.3E-10 Ry

     iteration #  4     ecut=    50.00 Ry     beta=0.60
     Davidson diagonalization with overlap
     ethr =  1.80E-12,  avg # of iterations =  2.0

     total cpu time spent up to now is      157.1 secs

     total energy              =    -117.93302499 Ry
     Harris-Foulkes estimate   =    -117.93302499 Ry
     estimated scf accuracy    <          3.3E-11 Ry

     iteration #  5     ecut=    50.00 Ry     beta=0.60
     Davidson diagonalization with overlap
     ethr =  2.54E-13,  avg # of iterations =  2.3

     total cpu time spent up to now is      158.9 secs

     total energy              =    -117.93302499 Ry
     Harris-Foulkes estimate   =    -117.93302499 Ry
     estimated scf accuracy    <          6.6E-12 Ry

     iteration #  6     ecut=    50.00 Ry     beta=0.60
     Davidson diagonalization with overlap
     ethr =  1.00E-13,  avg # of iterations =  1.0

     total cpu time spent up to now is      160.3 secs

     total energy              =    -117.93302499 Ry
     Harris-Foulkes estimate   =    -117.93302499 Ry
     estimated scf accuracy    <          2.2E-12 Ry

     iteration #  7     ecut=    50.00 Ry     beta=0.60
     Davidson diagonalization with overlap
     ethr =  1.00E-13,  avg # of iterations =  2.0

     total cpu time spent up to now is      161.8 secs

     total energy              =    -117.93302499 Ry
     Harris-Foulkes estimate   =    -117.93302499 Ry
     estimated scf accuracy    <          2.8E-12 Ry

     iteration #  8     ecut=    50.00 Ry     beta=0.60
     Davidson diagonalization with overlap
     ethr =  1.00E-13,  avg # of iterations =  1.0

     total cpu time spent up to now is      163.3 secs

     End of self-consistent calculation

     Number of k-points >= 100: set verbosity='high' to print the bands.

     the Fermi energy is    17.8737 ev

!    total energy              =    -117.93302499 Ry
     Harris-Foulkes estimate   =    -117.93302499 Ry
     estimated scf accuracy    <          1.3E-13 Ry

     The total energy is the sum of the following terms:

     one-electron contribution =     -16.10119324 Ry
     hartree contribution      =      14.98874797 Ry
     xc contribution           =     -18.43972604 Ry
     ewald contribution        =     -98.38116245 Ry
     smearing contrib. (-TS)   =       0.00030875 Ry

     convergence has been achieved in   8 iterations

     Forces acting on atoms (Ry/au):

     atom    1 type  1   force =     0.00000000    0.00000000    0.00000000

     Total force =     0.000000     Total SCF correction =     0.000000


     entering subroutine stress ...

          total   stress  (Ry/bohr**3)                   (kbar)     P=    0.00
   0.00000001   0.00000000   0.00000000          0.00      0.00      0.00
   0.00000000   0.00000001   0.00000000          0.00      0.00      0.00
   0.00000000   0.00000000   0.00000001          0.00      0.00      0.00


     bfgs converged in   7 scf cycles and   6 bfgs steps
     (criteria: energy <  1.0E-10, force <  1.0E-05, cell <  1.0E-03)

     End of BFGS Geometry Optimization

     Final enthalpy =    -117.9330249940 Ry
Begin final coordinates
     new unit-cell volume =    122.15859 a.u.^3 (    18.10204 Ang^3 )

CELL_PARAMETERS (alat=  1.88972599)
   1.654077442  -1.654077442   1.654077442
   1.654077442   1.654077442  -1.654077442
  -1.654077442   1.654077442   1.654077442

ATOMIC_POSITIONS (angstrom)
Nb       1.654077442   1.654077442   1.654077442
End final coordinates



     A final scf calculation at the relaxed structure.
     The G-vectors are recalculated for the final unit cell
     Results may differ from those at the preceding step.

   Info: using nr1, nr2, nr3 values from input

   Info: using nr1, nr2, nr3 values from input

     Parallelization info
     --------------------
     sticks:   dense  smooth     PW     G-vecs:    dense   smooth      PW
     Min         276     109     43                 5802     1443     358
     Max         277     110     44                 5805     1444     359
     Sum        1105     437    173                23215     5775    1433



     bravais-lattice index     =            0
     lattice parameter (alat)  =       1.8897  a.u.
     unit-cell volume          =     122.1586 (a.u.)^3
     number of atoms/cell      =            1
     number of atomic types    =            1
     number of electrons       =        13.00
     number of Kohn-Sham states=           11
     kinetic-energy cutoff     =      50.0000  Ry
     charge density cutoff     =     500.0000  Ry
     convergence threshold     =      1.0E-12
     mixing beta               =       0.6000
     number of iterations used =            8  plain     mixing
     Exchange-correlation      =  SLA  PW   PBE  PBE ( 1  4  3  4 0 0)

     celldm(1)=   1.889726  celldm(2)=   0.000000  celldm(3)=   0.000000
     celldm(4)=   0.000000  celldm(5)=   0.000000  celldm(6)=   0.000000

     crystal axes: (cart. coord. in units of alat)
               a(1) = (   1.654077  -1.654077   1.654077 )  
               a(2) = (   1.654077   1.654077  -1.654077 )  
               a(3) = (  -1.654077   1.654077   1.654077 )  

     reciprocal axes: (cart. coord. in units 2 pi/alat)
               b(1) = (  0.302283  0.000000  0.302283 )  
               b(2) = (  0.302283  0.302283  0.000000 )  
               b(3) = (  0.000000  0.302283  0.302283 )  


     PseudoPot. # 1 for Nb read from file:
     ./Nb.pbe-nsp-van.UPF
     MD5 check sum: 0a22fc7fb0ba19a08ca5db297a5d2854
     Pseudo is Ultrasoft + core correction, Zval = 13.0
     Generated by new atomic code, or converted to UPF format
     Using radial grid of  887 points,  6 beta functions with: 
                l(1) =   0
                l(2) =   0
                l(3) =   1
                l(4) =   1
                l(5) =   2
                l(6) =   2
     Q(r) pseudized with  6 coefficients,  rinner =    1.000   1.000   1.000
                                                       1.000   1.000

     atomic species   valence    mass     pseudopotential
        Nb            13.00    92.90638     Nb( 1.00)

     48 Sym. Ops., with inversion, found



   Cartesian axes

     site n.     atom                  positions (alat units)
         1           Nb  tau(   1) = (   1.6540776   1.6540776   1.6540776  )

     number of k points=   256  Marzari-Vanderbilt smearing, width (Ry)=  0.0200

     Number of k-points >= 100: set verbosity='high' to print them.

     Dense  grid:    23215 G-vectors     FFT dimensions: (  45,  45,  45)

     Smooth grid:     5775 G-vectors     FFT dimensions: (  25,  25,  25)

     Estimated max dynamical RAM per process >      12.17Mb

     Estimated total allocated dynamical RAM >      48.67Mb

     Initial potential from superposition of free atoms

     starting charge   12.99727, renormalised to   13.00000
     Starting wfc are   13 randomized atomic wfcs

     total cpu time spent up to now is      165.6 secs

     per-process dynamical memory:    72.2 Mb

     Self-consistent Calculation

     iteration #  1     ecut=    50.00 Ry     beta=0.60
     Davidson diagonalization with overlap
     ethr =  1.00E-06,  avg # of iterations =  9.7

     total cpu time spent up to now is      169.8 secs

     total energy              =    -117.91507204 Ry
     Harris-Foulkes estimate   =    -117.96569834 Ry
     estimated scf accuracy    <       0.09176978 Ry

     iteration #  2     ecut=    50.00 Ry     beta=0.60
     Davidson diagonalization with overlap
     ethr =  7.06E-04,  avg # of iterations =  2.0

     total cpu time spent up to now is      171.4 secs

     total energy              =    -117.93262337 Ry
     Harris-Foulkes estimate   =    -117.93323658 Ry
     estimated scf accuracy    <       0.00228578 Ry

     iteration #  3     ecut=    50.00 Ry     beta=0.60
     Davidson diagonalization with overlap
     ethr =  1.76E-05,  avg # of iterations =  2.5

     total cpu time spent up to now is      173.1 secs

     total energy              =    -117.93287393 Ry
     Harris-Foulkes estimate   =    -117.93287423 Ry
     estimated scf accuracy    <       0.00030296 Ry

     iteration #  4     ecut=    50.00 Ry     beta=0.60
     Davidson diagonalization with overlap
     ethr =  2.33E-06,  avg # of iterations =  1.4

     total cpu time spent up to now is      174.4 secs

     total energy              =    -117.93288270 Ry
     Harris-Foulkes estimate   =    -117.93288254 Ry
     estimated scf accuracy    <       0.00000082 Ry

     iteration #  5     ecut=    50.00 Ry     beta=0.60
     Davidson diagonalization with overlap
     ethr =  6.30E-09,  avg # of iterations =  2.7

     total cpu time spent up to now is      176.2 secs

     total energy              =    -117.93288317 Ry
     Harris-Foulkes estimate   =    -117.93288317 Ry
     estimated scf accuracy    <       0.00000001 Ry

     iteration #  6     ecut=    50.00 Ry     beta=0.60
     Davidson diagonalization with overlap
     ethr =  9.17E-11,  avg # of iterations =  2.0

     total cpu time spent up to now is      177.7 secs

     total energy              =    -117.93288318 Ry
     Harris-Foulkes estimate   =    -117.93288318 Ry
     estimated scf accuracy    <          6.3E-10 Ry

     iteration #  7     ecut=    50.00 Ry     beta=0.60
     Davidson diagonalization with overlap
     ethr =  4.82E-12,  avg # of iterations =  1.9

     total cpu time spent up to now is      179.2 secs

     total energy              =    -117.93288318 Ry
     Harris-Foulkes estimate   =    -117.93288318 Ry
     estimated scf accuracy    <          2.0E-11 Ry

     iteration #  8     ecut=    50.00 Ry     beta=0.60
     Davidson diagonalization with overlap
     ethr =  1.53E-13,  avg # of iterations =  2.1

     total cpu time spent up to now is      180.8 secs

     End of self-consistent calculation

     Number of k-points >= 100: set verbosity='high' to print the bands.

     the Fermi energy is    17.8738 ev

!    total energy              =    -117.93288318 Ry
     Harris-Foulkes estimate   =    -117.93288318 Ry
     estimated scf accuracy    <          1.5E-13 Ry

     The total energy is the sum of the following terms:

     one-electron contribution =     -16.10117296 Ry
     hartree contribution      =      14.98873309 Ry
     xc contribution           =     -18.43958963 Ry
     ewald contribution        =     -98.38116245 Ry
     smearing contrib. (-TS)   =       0.00030876 Ry

     convergence has been achieved in   8 iterations

     Forces acting on atoms (Ry/au):

     atom    1 type  1   force =     0.00000000    0.00000000    0.00000000

     Total force =     0.000000     Total SCF correction =     0.000000


     entering subroutine stress ...

          total   stress  (Ry/bohr**3)                   (kbar)     P=   -1.76
  -0.00001194   0.00000000   0.00000000         -1.76      0.00      0.00
   0.00000000  -0.00001194   0.00000000          0.00     -1.76      0.00
   0.00000000   0.00000000  -0.00001194          0.00      0.00     -1.76


     init_run     :      1.84s CPU      1.92s WALL (       2 calls)
     electrons    :    151.90s CPU    164.66s WALL (       8 calls)
     update_pot   :      2.57s CPU      2.59s WALL (       6 calls)
     forces       :      3.16s CPU      3.19s WALL (       8 calls)
     stress       :      8.64s CPU      8.65s WALL (       8 calls)

     Called by init_run:
     wfcinit      :      1.13s CPU      1.20s WALL (       2 calls)
     potinit      :      0.14s CPU      0.14s WALL (       2 calls)

     Called by electrons:
     c_bands      :    122.87s CPU    133.58s WALL (      96 calls)
     sum_band     :     23.59s CPU     25.58s WALL (      96 calls)
     v_of_rho     :      1.98s CPU      2.00s WALL (     101 calls)
     newd         :      3.53s CPU      3.55s WALL (     101 calls)
     mix_rho      :      0.18s CPU      0.18s WALL (      96 calls)

     Called by c_bands:
     init_us_2    :      4.34s CPU      4.72s WALL (   53760 calls)
     cegterg      :    115.93s CPU    126.03s WALL (   24576 calls)

     Called by sum_band:
     sum_band:bec :      0.17s CPU      0.19s WALL (   24576 calls)
     addusdens    :      3.47s CPU      3.50s WALL (      96 calls)

     Called by *egterg:
     h_psi        :     79.60s CPU     86.58s WALL (   75756 calls)
     s_psi        :      4.07s CPU      4.44s WALL (   75756 calls)
     g_psi        :      0.60s CPU      0.65s WALL (   50668 calls)
     cdiaghg      :     13.29s CPU     14.40s WALL (   72940 calls)

     Called by h_psi:
     h_psi:pot    :     79.20s CPU     86.14s WALL (   75756 calls)
     h_psi:calbec :      4.58s CPU      5.00s WALL (   75756 calls)
     vloc_psi     :     70.35s CPU     76.49s WALL (   75756 calls)
     add_vuspsi   :      4.09s CPU      4.47s WALL (   75756 calls)

     General routines
     calbec       :      6.91s CPU      7.51s WALL (  110572 calls)
     fft          :      0.98s CPU      1.00s WALL (    1802 calls)
     ffts         :      0.02s CPU      0.02s WALL (     197 calls)
     fftw         :     69.82s CPU     76.04s WALL ( 1599108 calls)
     interpolate  :      0.16s CPU      0.17s WALL (     197 calls)

     Parallel routines
     fft_scatter  :     25.76s CPU     28.23s WALL ( 1601107 calls)

     PWSCF        :  2m48.51s CPU     3m 1.52s WALL


   This run was terminated on:  10:57:49  26Apr2018            

=------------------------------------------------------------------------------=
   JOB DONE.
=------------------------------------------------------------------------------=
