
     Program PWSCF v.6.0 (svn rev. 13079) starts on  7Mar2018 at 16:46:19 

     This program is part of the open-source Quantum ESPRESSO suite
     for quantum simulation of materials; please cite
         "P. Giannozzi et al., J. Phys.:Condens. Matter 21 395502 (2009);
          URL http://www.quantum-espresso.org", 
     in publications or presentations arising from this work. More details at
     http://www.quantum-espresso.org/quote

     Parallel version (MPI), running on     4 processors
     R & G space division:  proc/nbgrp/npool/nimage =       4
     Waiting for input...
     Reading input from standard input

     Current dimensions of program PWSCF are:
     Max number of different atomic species (ntypx) = 10
     Max number of k-points (npk) =  40000
     Max angular momentum in pseudopotentials (lmaxx) =  3

     Subspace diagonalization in iterative solution of the eigenvalue problem:
     a serial algorithm will be used


     Parallelization info
     --------------------
     sticks:   dense  smooth     PW     G-vecs:    dense   smooth      PW
     Min         187      75     22                13659     3471     608
     Max         191      76     23                13671     3480     613
     Sum         757     301     91                54649    13893    2445



     bravais-lattice index     =            0
     lattice parameter (alat)  =       1.8897  a.u.
     unit-cell volume          =     538.8952 (a.u.)^3
     number of atoms/cell      =            4
     number of atomic types    =            2
     number of electrons       =        51.00
     number of Kohn-Sham states=           31
     kinetic-energy cutoff     =      33.0700  Ry
     charge density cutoff     =     330.7000  Ry
     convergence threshold     =      1.0E-10
     mixing beta               =       0.6000
     number of iterations used =            8  plain     mixing
     Exchange-correlation      = SLA  PW   PBE  PBE ( 1  4  3  4 0 0)
     nstep                     =           50


     celldm(1)=   1.889726  celldm(2)=   0.000000  celldm(3)=   0.000000
     celldm(4)=   0.000000  celldm(5)=   0.000000  celldm(6)=   0.000000

     crystal axes: (cart. coord. in units of alat)
               a(1) = (  -1.522502  -2.637051   0.000000 )  
               a(2) = (   3.045004   0.000000   0.000000 )  
               a(3) = (   0.000000   0.000000   9.944922 )  

     reciprocal axes: (cart. coord. in units 2 pi/alat)
               b(1) = (  0.000000 -0.379211  0.000000 )  
               b(2) = (  0.328407 -0.189606  0.000000 )  
               b(3) = ( -0.000000  0.000000  0.100554 )  


     PseudoPot. # 1 for Nb read from file:
     ./Nb.pbe-nsp-van.UPF
     MD5 check sum: 2636d8d3a061c4aefa0a317108b12435
     Pseudo is Ultrasoft + core correction, Zval = 13.0
     Generated by new atomic code, or converted to UPF format
     Using radial grid of  887 points,  6 beta functions with: 
                l(1) =   0
                l(2) =   0
                l(3) =   1
                l(4) =   1
                l(5) =   2
                l(6) =   2
     Q(r) pseudized with  6 coefficients,  rinner =    1.000   1.000   1.000
                                                       1.000   1.000

     PseudoPot. # 2 for Ti read from file:
     ./Ti.pbe-sp-van_ak.UPF
     MD5 check sum: 8e4df49b7f0d34bbd5052bf3f5ea0213
     Pseudo is Ultrasoft, Zval = 12.0
     Generated by new atomic code, or converted to UPF format
     Using radial grid of  851 points,  6 beta functions with: 
                l(1) =   0
                l(2) =   0
                l(3) =   1
                l(4) =   1
                l(5) =   2
                l(6) =   2
     Q(r) pseudized with  8 coefficients,  rinner =    1.000   1.000   1.000
                                                       1.000   1.000

     atomic species   valence    mass     pseudopotential
        Nb            13.00    92.90600     Nb( 1.00)
        Ti            12.00    47.86700     Ti( 1.00)

     12 Sym. Ops. (no inversion) found



   Cartesian axes

     site n.     atom                  positions (alat units)
         1           Ti  tau(   1) = (   1.5225021  -2.6370512   4.9724614  )
         2           Nb  tau(   2) = (   0.0000015  -1.7580350   2.4862307  )
         3           Nb  tau(   3) = (   1.5225021  -2.6370512   9.9449228  )
         4           Nb  tau(   4) = (   0.0000015  -1.7580350   7.4586921  )

     number of k points=    81  Marzari-Vanderbilt smearing, width (Ry)=  0.2000
                       cart. coord. in units 2pi/alat
        k(    1) = (   0.0000000   0.0000000   0.0000000), wk =   0.0017778
        k(    2) = (   0.0000000   0.0000000   0.0201108), wk =   0.0035556
        k(    3) = (   0.0000000   0.0000000   0.0402215), wk =   0.0035556
        k(    4) = (   0.0218938  -0.0126404   0.0000000), wk =   0.0106667
        k(    5) = (   0.0218938  -0.0126404   0.0201108), wk =   0.0213333
        k(    6) = (   0.0218938  -0.0126404   0.0402215), wk =   0.0213333
        k(    7) = (   0.0437876  -0.0252808   0.0000000), wk =   0.0106667
        k(    8) = (   0.0437876  -0.0252808   0.0201108), wk =   0.0213333
        k(    9) = (   0.0437876  -0.0252808   0.0402215), wk =   0.0213333
        k(   10) = (   0.0656814  -0.0379211   0.0000000), wk =   0.0106667
        k(   11) = (   0.0656814  -0.0379211   0.0201108), wk =   0.0213333
        k(   12) = (   0.0656814  -0.0379211   0.0402215), wk =   0.0213333
        k(   13) = (   0.0875751  -0.0505615   0.0000000), wk =   0.0106667
        k(   14) = (   0.0875751  -0.0505615   0.0201108), wk =   0.0213333
        k(   15) = (   0.0875751  -0.0505615   0.0402215), wk =   0.0213333
        k(   16) = (   0.1094689  -0.0632019   0.0000000), wk =   0.0106667
        k(   17) = (   0.1094689  -0.0632019   0.0201108), wk =   0.0213333
        k(   18) = (   0.1094689  -0.0632019   0.0402215), wk =   0.0213333
        k(   19) = (   0.1313627  -0.0758423   0.0000000), wk =   0.0106667
        k(   20) = (   0.1313627  -0.0758423   0.0201108), wk =   0.0213333
        k(   21) = (   0.1313627  -0.0758423   0.0402215), wk =   0.0213333
        k(   22) = (   0.1532565  -0.0884827   0.0000000), wk =   0.0106667
        k(   23) = (   0.1532565  -0.0884827   0.0201108), wk =   0.0213333
        k(   24) = (   0.1532565  -0.0884827   0.0402215), wk =   0.0213333
        k(   25) = (   0.0218938  -0.0379211   0.0000000), wk =   0.0106667
        k(   26) = (   0.0218938  -0.0379211   0.0201108), wk =   0.0213333
        k(   27) = (   0.0218938  -0.0379211   0.0402215), wk =   0.0213333
        k(   28) = (   0.0437876  -0.0505615   0.0000000), wk =   0.0213333
        k(   29) = (   0.0437876  -0.0505615   0.0201108), wk =   0.0426667
        k(   30) = (   0.0437876  -0.0505615   0.0402215), wk =   0.0426667
        k(   31) = (   0.0656814  -0.0632019   0.0000000), wk =   0.0213333
        k(   32) = (   0.0656814  -0.0632019   0.0201108), wk =   0.0426667
        k(   33) = (   0.0656814  -0.0632019   0.0402215), wk =   0.0426667
        k(   34) = (   0.0875751  -0.0758423   0.0000000), wk =   0.0213333
        k(   35) = (   0.0875751  -0.0758423   0.0201108), wk =   0.0426667
        k(   36) = (   0.0875751  -0.0758423   0.0402215), wk =   0.0426667
        k(   37) = (   0.1094689  -0.0884827   0.0000000), wk =   0.0213333
        k(   38) = (   0.1094689  -0.0884827   0.0201108), wk =   0.0426667
        k(   39) = (   0.1094689  -0.0884827   0.0402215), wk =   0.0426667
        k(   40) = (   0.1313627  -0.1011231   0.0000000), wk =   0.0213333
        k(   41) = (   0.1313627  -0.1011231   0.0201108), wk =   0.0426667
        k(   42) = (   0.1313627  -0.1011231   0.0402215), wk =   0.0426667
        k(   43) = (   0.1532565  -0.1137634   0.0000000), wk =   0.0106667
        k(   44) = (   0.1532565  -0.1137634   0.0201108), wk =   0.0213333
        k(   45) = (   0.1532565  -0.1137634   0.0402215), wk =   0.0213333
        k(   46) = (   0.0437876  -0.0758423   0.0000000), wk =   0.0106667
        k(   47) = (   0.0437876  -0.0758423   0.0201108), wk =   0.0213333
        k(   48) = (   0.0437876  -0.0758423   0.0402215), wk =   0.0213333
        k(   49) = (   0.0656814  -0.0884827   0.0000000), wk =   0.0213333
        k(   50) = (   0.0656814  -0.0884827   0.0201108), wk =   0.0426667
        k(   51) = (   0.0656814  -0.0884827   0.0402215), wk =   0.0426667
        k(   52) = (   0.0875751  -0.1011231   0.0000000), wk =   0.0213333
        k(   53) = (   0.0875751  -0.1011231   0.0201108), wk =   0.0426667
        k(   54) = (   0.0875751  -0.1011231   0.0402215), wk =   0.0426667
        k(   55) = (   0.1094689  -0.1137634   0.0000000), wk =   0.0213333
        k(   56) = (   0.1094689  -0.1137634   0.0201108), wk =   0.0426667
        k(   57) = (   0.1094689  -0.1137634   0.0402215), wk =   0.0426667
        k(   58) = (   0.1313627  -0.1264038   0.0000000), wk =   0.0213333
        k(   59) = (   0.1313627  -0.1264038   0.0201108), wk =   0.0426667
        k(   60) = (   0.1313627  -0.1264038   0.0402215), wk =   0.0426667
        k(   61) = (   0.0656814  -0.1137634   0.0000000), wk =   0.0106667
        k(   62) = (   0.0656814  -0.1137634   0.0201108), wk =   0.0213333
        k(   63) = (   0.0656814  -0.1137634   0.0402215), wk =   0.0213333
        k(   64) = (   0.0875751  -0.1264038   0.0000000), wk =   0.0213333
        k(   65) = (   0.0875751  -0.1264038   0.0201108), wk =   0.0426667
        k(   66) = (   0.0875751  -0.1264038   0.0402215), wk =   0.0426667
        k(   67) = (   0.1094689  -0.1390442   0.0000000), wk =   0.0213333
        k(   68) = (   0.1094689  -0.1390442   0.0201108), wk =   0.0426667
        k(   69) = (   0.1094689  -0.1390442   0.0402215), wk =   0.0426667
        k(   70) = (   0.1313627  -0.1516846   0.0000000), wk =   0.0106667
        k(   71) = (   0.1313627  -0.1516846   0.0201108), wk =   0.0213333
        k(   72) = (   0.1313627  -0.1516846   0.0402215), wk =   0.0213333
        k(   73) = (   0.0875751  -0.1516846   0.0000000), wk =   0.0106667
        k(   74) = (   0.0875751  -0.1516846   0.0201108), wk =   0.0213333
        k(   75) = (   0.0875751  -0.1516846   0.0402215), wk =   0.0213333
        k(   76) = (   0.1094689  -0.1643250   0.0000000), wk =   0.0213333
        k(   77) = (   0.1094689  -0.1643250   0.0201108), wk =   0.0426667
        k(   78) = (   0.1094689  -0.1643250   0.0402215), wk =   0.0426667
        k(   79) = (   0.1094689  -0.1896057   0.0000000), wk =   0.0035556
        k(   80) = (   0.1094689  -0.1896057   0.0201108), wk =   0.0071111
        k(   81) = (   0.1094689  -0.1896057   0.0402215), wk =   0.0071111

     Dense  grid:    54649 G-vectors     FFT dimensions: (  36,  36, 120)

     Smooth grid:    13893 G-vectors     FFT dimensions: (  24,  24,  72)

     Estimated max dynamical RAM per process >      27.64Mb

     Estimated total allocated dynamical RAM >     110.56Mb

     Check: negative/imaginary core charge=   -0.000002    0.000000

     Initial potential from superposition of free atoms

     starting charge   49.99176, renormalised to   51.00000
     Starting wfc are   49 randomized atomic wfcs

     total cpu time spent up to now is        2.9 secs

     per-process dynamical memory:    32.6 Mb

     Self-consistent Calculation

     iteration #  1     ecut=    33.07 Ry     beta=0.60
     Davidson diagonalization with overlap
     ethr =  1.00E-02,  avg # of iterations =  3.8

     total cpu time spent up to now is        7.6 secs

     total energy              =    -367.89085056 Ry
     Harris-Foulkes estimate   =    -479.90147708 Ry
     estimated scf accuracy    <     136.06266286 Ry

     iteration #  2     ecut=    33.07 Ry     beta=0.60
     Davidson diagonalization with overlap
     ethr =  1.00E-02,  avg # of iterations = 14.0

     total cpu time spent up to now is       24.8 secs

     total energy              =    -428.38952498 Ry
     Harris-Foulkes estimate   =    -724.77894419 Ry
     estimated scf accuracy    <    1087.87967903 Ry

     iteration #  3     ecut=    33.07 Ry     beta=0.60
     Davidson diagonalization with overlap
     ethr =  1.00E-02,  avg # of iterations =  7.0

     total cpu time spent up to now is       34.1 secs

     total energy              =    -467.10021052 Ry
     Harris-Foulkes estimate   =    -514.78094438 Ry
     estimated scf accuracy    <     233.96480942 Ry

     iteration #  4     ecut=    33.07 Ry     beta=0.60
     Davidson diagonalization with overlap
     ethr =  1.00E-02,  avg # of iterations =  7.0

     total cpu time spent up to now is       42.2 secs

     total energy              =    -475.72177059 Ry
     Harris-Foulkes estimate   =    -479.91863771 Ry
     estimated scf accuracy    <      52.36820821 Ry

     iteration #  5     ecut=    33.07 Ry     beta=0.60
     Davidson diagonalization with overlap
     ethr =  1.00E-02,  avg # of iterations =  2.4

     total cpu time spent up to now is       45.9 secs

     total energy              =    -474.97653453 Ry
     Harris-Foulkes estimate   =    -476.09175326 Ry
     estimated scf accuracy    <      31.51780491 Ry

     iteration #  6     ecut=    33.07 Ry     beta=0.60
     Davidson diagonalization with overlap
     ethr =  1.00E-02,  avg # of iterations =  1.0

     total cpu time spent up to now is       48.9 secs

     total energy              =    -470.32970654 Ry
     Harris-Foulkes estimate   =    -475.00049267 Ry
     estimated scf accuracy    <      30.00778241 Ry

     iteration #  7     ecut=    33.07 Ry     beta=0.60
     Davidson diagonalization with overlap
     ethr =  1.00E-02,  avg # of iterations =  3.8

     total cpu time spent up to now is       53.5 secs

     total energy              =    -471.11973858 Ry
     Harris-Foulkes estimate   =    -471.15286292 Ry
     estimated scf accuracy    <       5.44184018 Ry

     iteration #  8     ecut=    33.07 Ry     beta=0.60
     Davidson diagonalization with overlap
     ethr =  1.00E-02,  avg # of iterations =  1.0

     total cpu time spent up to now is       56.6 secs

     total energy              =    -470.52657482 Ry
     Harris-Foulkes estimate   =    -471.12917569 Ry
     estimated scf accuracy    <       5.34493307 Ry

     iteration #  9     ecut=    33.07 Ry     beta=0.60
     Davidson diagonalization with overlap
     ethr =  1.00E-02,  avg # of iterations =  1.9

     total cpu time spent up to now is       59.8 secs

     total energy              =    -470.33800116 Ry
     Harris-Foulkes estimate   =    -470.59937051 Ry
     estimated scf accuracy    <       2.36107915 Ry

     iteration # 10     ecut=    33.07 Ry     beta=0.60
     Davidson diagonalization with overlap
     ethr =  4.63E-03,  avg # of iterations =  4.5

     total cpu time spent up to now is       64.2 secs

     total energy              =    -470.68611071 Ry
     Harris-Foulkes estimate   =    -470.55310707 Ry
     estimated scf accuracy    <       1.33215609 Ry

     iteration # 11     ecut=    33.07 Ry     beta=0.60
     Davidson diagonalization with overlap
     ethr =  2.61E-03,  avg # of iterations =  4.9

     total cpu time spent up to now is       70.2 secs

     total energy              =    -468.81296230 Ry
     Harris-Foulkes estimate   =    -471.80154364 Ry
     estimated scf accuracy    <      47.41490250 Ry

     iteration # 12     ecut=    33.07 Ry     beta=0.60
     Davidson diagonalization with overlap
     ethr =  2.61E-03,  avg # of iterations =  6.6

     total cpu time spent up to now is       76.1 secs

     total energy              =    -470.60985376 Ry
     Harris-Foulkes estimate   =    -470.54162462 Ry
     estimated scf accuracy    <       0.41562223 Ry

     iteration # 13     ecut=    33.07 Ry     beta=0.60
     Davidson diagonalization with overlap
     ethr =  8.15E-04,  avg # of iterations =  6.2

     total cpu time spent up to now is       81.2 secs

     total energy              =    -470.68531857 Ry
     Harris-Foulkes estimate   =    -470.70098434 Ry
     estimated scf accuracy    <       3.10512054 Ry

     iteration # 14     ecut=    33.07 Ry     beta=0.60
     Davidson diagonalization with overlap
     ethr =  8.15E-04,  avg # of iterations =  1.1

     total cpu time spent up to now is       84.3 secs

     total energy              =    -470.66445741 Ry
     Harris-Foulkes estimate   =    -470.68696544 Ry
     estimated scf accuracy    <       3.26239954 Ry

     iteration # 15     ecut=    33.07 Ry     beta=0.60
     Davidson diagonalization with overlap
     ethr =  8.15E-04,  avg # of iterations =  1.0

     total cpu time spent up to now is       87.4 secs

     total energy              =    -470.36686630 Ry
     Harris-Foulkes estimate   =    -470.66654259 Ry
     estimated scf accuracy    <       3.42789492 Ry

     iteration # 16     ecut=    33.07 Ry     beta=0.60
     Davidson diagonalization with overlap
     ethr =  8.15E-04,  avg # of iterations =  4.8

     total cpu time spent up to now is       92.3 secs

     total energy              =    -470.45439384 Ry
     Harris-Foulkes estimate   =    -470.46829188 Ry
     estimated scf accuracy    <       0.11964679 Ry

     iteration # 17     ecut=    33.07 Ry     beta=0.60
     Davidson diagonalization with overlap
     ethr =  2.35E-04,  avg # of iterations =  6.3

     total cpu time spent up to now is       97.7 secs

     total energy              =    -470.46637595 Ry
     Harris-Foulkes estimate   =    -470.47864495 Ry
     estimated scf accuracy    <       0.26266153 Ry

     iteration # 18     ecut=    33.07 Ry     beta=0.60
     Davidson diagonalization with overlap
     ethr =  2.35E-04,  avg # of iterations =  1.0

     total cpu time spent up to now is      100.8 secs

     total energy              =    -470.45864918 Ry
     Harris-Foulkes estimate   =    -470.46854026 Ry
     estimated scf accuracy    <       0.09197097 Ry

     iteration # 19     ecut=    33.07 Ry     beta=0.60
     Davidson diagonalization with overlap
     ethr =  1.80E-04,  avg # of iterations =  5.7

     total cpu time spent up to now is      105.5 secs

     total energy              =    -470.46466233 Ry
     Harris-Foulkes estimate   =    -470.46489553 Ry
     estimated scf accuracy    <       0.00105912 Ry

     iteration # 20     ecut=    33.07 Ry     beta=0.60
     Davidson diagonalization with overlap
     ethr =  2.08E-06,  avg # of iterations =  7.1

     total cpu time spent up to now is      112.7 secs

     total energy              =    -470.46608709 Ry
     Harris-Foulkes estimate   =    -470.46582771 Ry
     estimated scf accuracy    <       0.01799611 Ry

     iteration # 21     ecut=    33.07 Ry     beta=0.60
     Davidson diagonalization with overlap
     ethr =  2.08E-06,  avg # of iterations =  3.0

     total cpu time spent up to now is      116.4 secs

     total energy              =    -470.46417194 Ry
     Harris-Foulkes estimate   =    -470.46614763 Ry
     estimated scf accuracy    <       0.02008217 Ry

     iteration # 22     ecut=    33.07 Ry     beta=0.60
     Davidson diagonalization with overlap
     ethr =  2.08E-06,  avg # of iterations =  6.4

     total cpu time spent up to now is      123.2 secs

     total energy              =    -470.46510716 Ry
     Harris-Foulkes estimate   =    -470.46510545 Ry
     estimated scf accuracy    <       0.00016587 Ry

     iteration # 23     ecut=    33.07 Ry     beta=0.60
     Davidson diagonalization with overlap
     ethr =  3.25E-07,  avg # of iterations =  2.0

     total cpu time spent up to now is      126.5 secs

     total energy              =    -470.46509468 Ry
     Harris-Foulkes estimate   =    -470.46510988 Ry
     estimated scf accuracy    <       0.00020741 Ry

     iteration # 24     ecut=    33.07 Ry     beta=0.60
     Davidson diagonalization with overlap
     ethr =  3.25E-07,  avg # of iterations =  1.0

     total cpu time spent up to now is      129.5 secs

     total energy              =    -470.46509535 Ry
     Harris-Foulkes estimate   =    -470.46509891 Ry
     estimated scf accuracy    <       0.00002925 Ry

     iteration # 25     ecut=    33.07 Ry     beta=0.60
     Davidson diagonalization with overlap
     ethr =  5.73E-08,  avg # of iterations =  5.7

     total cpu time spent up to now is      134.5 secs

     total energy              =    -470.46509826 Ry
     Harris-Foulkes estimate   =    -470.46509884 Ry
     estimated scf accuracy    <       0.00001003 Ry

     iteration # 26     ecut=    33.07 Ry     beta=0.60
     Davidson diagonalization with overlap
     ethr =  1.97E-08,  avg # of iterations =  1.6

     total cpu time spent up to now is      137.7 secs

     total energy              =    -470.46509838 Ry
     Harris-Foulkes estimate   =    -470.46509849 Ry
     estimated scf accuracy    <       0.00000103 Ry

     iteration # 27     ecut=    33.07 Ry     beta=0.60
     Davidson diagonalization with overlap
     ethr =  2.03E-09,  avg # of iterations =  6.2

     total cpu time spent up to now is      143.3 secs

     total energy              =    -470.46509854 Ry
     Harris-Foulkes estimate   =    -470.46509865 Ry
     estimated scf accuracy    <       0.00000237 Ry

     iteration # 28     ecut=    33.07 Ry     beta=0.60
     Davidson diagonalization with overlap
     ethr =  2.03E-09,  avg # of iterations =  1.0

     total cpu time spent up to now is      146.4 secs

     total energy              =    -470.46509850 Ry
     Harris-Foulkes estimate   =    -470.46509856 Ry
     estimated scf accuracy    <       0.00000078 Ry

     iteration # 29     ecut=    33.07 Ry     beta=0.60
     Davidson diagonalization with overlap
     ethr =  1.53E-09,  avg # of iterations =  5.3

     total cpu time spent up to now is      150.8 secs

     total energy              =    -470.46509855 Ry
     Harris-Foulkes estimate   =    -470.46509856 Ry
     estimated scf accuracy    <       0.00000004 Ry

     iteration # 30     ecut=    33.07 Ry     beta=0.60
     Davidson diagonalization with overlap
     ethr =  7.73E-11,  avg # of iterations =  5.7

     total cpu time spent up to now is      155.7 secs

     total energy              =    -470.46509856 Ry
     Harris-Foulkes estimate   =    -470.46509856 Ry
     estimated scf accuracy    <          1.8E-09 Ry

     iteration # 31     ecut=    33.07 Ry     beta=0.60
     Davidson diagonalization with overlap
     c_bands:  1 eigenvalues not converged
     ethr =  3.48E-12,  avg # of iterations =  7.1

     total cpu time spent up to now is      161.2 secs

     total energy              =    -470.46509856 Ry
     Harris-Foulkes estimate   =    -470.46509856 Ry
     estimated scf accuracy    <          3.0E-09 Ry

     iteration # 32     ecut=    33.07 Ry     beta=0.60
     Davidson diagonalization with overlap
     ethr =  3.48E-12,  avg # of iterations =  1.0

     total cpu time spent up to now is      164.3 secs

     total energy              =    -470.46509856 Ry
     Harris-Foulkes estimate   =    -470.46509856 Ry
     estimated scf accuracy    <          2.2E-09 Ry

     iteration # 33     ecut=    33.07 Ry     beta=0.60
     Davidson diagonalization with overlap
     ethr =  3.48E-12,  avg # of iterations =  3.3

     total cpu time spent up to now is      167.9 secs

     End of self-consistent calculation

          k = 0.0000 0.0000 0.0000 (  1727 PWs)   bands (ev):

   -41.6087 -39.7334 -39.6918 -39.6244 -17.8822 -17.7054 -17.7054 -16.0910
   -15.7821 -15.4032 -15.3760 -15.3760 -15.3397 -15.3397 -15.2831 -15.2831
     9.0275  10.6368  10.8075  11.7057  14.3756  14.7385  15.2207  15.2207
    15.2382  15.2382  15.5309  15.5570  15.5570  15.9638  16.1191

          k = 0.0000 0.0000 0.0201 (  1709 PWs)   bands (ev):

   -41.6087 -39.7336 -39.6915 -39.6245 -17.8818 -17.7048 -17.7048 -16.0969
   -15.7719 -15.4077 -15.3761 -15.3761 -15.3394 -15.3394 -15.2831 -15.2831
     9.1097  10.2107  11.1430  11.7324  14.4681  14.7848  15.1808  15.1808
    15.2750  15.2750  15.4799  15.5658  15.5658  15.8073  16.0849

          k = 0.0000 0.0000 0.0402 (  1708 PWs)   bands (ev):

   -41.6087 -39.7338 -39.6911 -39.6247 -17.8818 -17.7046 -17.7046 -16.1061
   -15.7556 -15.4152 -15.3762 -15.3762 -15.3392 -15.3392 -15.2832 -15.2832
     9.3470   9.7403  11.3435  11.7913  14.7372  14.8767  15.1578  15.1578
    15.2382  15.2825  15.2825  15.5831  15.6006  15.6006  16.0229

          k = 0.0219-0.0126 0.0000 (  1719 PWs)   bands (ev):

   -41.6067 -39.7281 -39.6875 -39.6211 -17.8789 -17.7204 -17.7086 -16.0817
   -15.7807 -15.4211 -15.4075 -15.3855 -15.3558 -15.3474 -15.3148 -15.2888
     9.1592  10.7650  10.9183  11.8156  14.3081  14.6475  14.9902  15.1621
    15.3340  15.3403  15.4816  15.6590  15.6592  15.7015  16.0547

          k = 0.0219-0.0126 0.0201 (  1726 PWs)   bands (ev):

   -41.6067 -39.7283 -39.6873 -39.6212 -17.8792 -17.7206 -17.7084 -16.0872
   -15.7712 -15.4254 -15.4076 -15.3856 -15.3561 -15.3472 -15.3147 -15.2889
     9.2403  10.3302  11.2688  11.8428  14.3655  14.7146  14.9832  15.1540
    15.2882  15.3812  15.4405  15.5410  15.6466  15.6663  16.0693

          k = 0.0219-0.0126 0.0402 (  1729 PWs)   bands (ev):

   -41.6067 -39.7286 -39.6868 -39.6214 -17.8791 -17.7205 -17.7086 -16.0956
   -15.7559 -15.4325 -15.4077 -15.3858 -15.3563 -15.3470 -15.3145 -15.2890
     9.4756   9.8613  11.4763  11.9051  14.5723  14.8090  14.9487  15.0903
    15.1957  15.2657  15.3823  15.4991  15.6163  15.7057  16.0519

          k = 0.0438-0.0253 0.0000 (  1735 PWs)   bands (ev):

   -41.6010 -39.7132 -39.6754 -39.6120 -17.8714 -17.7627 -17.7186 -16.0555
   -15.7813 -15.4954 -15.4948 -15.4122 -15.4002 -15.3776 -15.3692 -15.3056
     9.5379  11.1165  11.2175  12.1161  14.1290  14.4259  14.5905  14.8949
    15.0916  15.3125  15.6276  15.6548  15.8130  15.9524  16.0414

          k = 0.0438-0.0253 0.0201 (  1734 PWs)   bands (ev):

   -41.6009 -39.7133 -39.6752 -39.6121 -17.8712 -17.7626 -17.7187 -16.0597
   -15.7735 -15.4988 -15.4948 -15.4123 -15.3994 -15.3784 -15.3690 -15.3056
     9.6152  10.6615  11.6112  12.1445  14.0844  14.5418  14.5916  14.8084
    15.0226  15.3915  15.5841  15.6826  15.7228  15.9444  15.9701

          k = 0.0438-0.0253 0.0402 (  1743 PWs)   bands (ev):

   -41.6010 -39.7136 -39.6748 -39.6122 -17.8714 -17.7627 -17.7189 -16.0661
   -15.7611 -15.5046 -15.4951 -15.4126 -15.3981 -15.3800 -15.3687 -15.3058
     9.8412  10.2039  11.8410  12.2189  14.1394  14.4159  14.5906  14.9287
    14.9534  15.3891  15.5600  15.5649  15.6495  15.9895  16.0034

          k = 0.0657-0.0379 0.0000 (  1733 PWs)   bands (ev):

   -41.5925 -39.6907 -39.6575 -39.5988 -17.8599 -17.8233 -17.7331 -16.0188
   -15.8029 -15.6178 -15.6143 -15.5065 -15.4505 -15.4010 -15.3954 -15.3307
    10.1136  11.5733  11.5934  12.4838  13.8846  14.1774  14.2624  14.2852
    14.8855  15.1094  15.6323  15.9691  16.0911  16.1135  16.1734

          k = 0.0657-0.0379 0.0201 (  1739 PWs)   bands (ev):

   -41.5925 -39.6908 -39.6573 -39.5989 -17.8601 -17.8235 -17.7331 -16.0210
   -15.7981 -15.6193 -15.6168 -15.5045 -15.4507 -15.4007 -15.3962 -15.3308
    10.1819  11.1148  12.0318  12.5132  13.7763  14.0631  14.2649  14.4610
    14.8150  15.1901  15.6166  15.9298  15.9515  16.0124  16.2784

          k = 0.0657-0.0379 0.0402 (  1739 PWs)   bands (ev):

   -41.5925 -39.6910 -39.6570 -39.5990 -17.8601 -17.8236 -17.7330 -16.0244
   -15.7901 -15.6247 -15.6181 -15.5012 -15.4509 -15.4003 -15.3975 -15.3310
    10.3823  10.7013  12.2977  12.6093  13.6953  13.8391  14.2892  14.6095
    14.8499  15.1971  15.5435  15.8776  15.8876  15.9433  16.4331

          k = 0.0876-0.0506 0.0000 (  1739 PWs)   bands (ev):

   -41.5827 -39.6640 -39.6368 -39.5842 -17.8927 -17.8473 -17.7495 -15.9905
   -15.8810 -15.7532 -15.7329 -15.5754 -15.4933 -15.4373 -15.4171 -15.3603
    10.7955  11.8606  11.9058  12.6436  13.5284  13.8517  13.9975  14.2302
    14.9932  15.0955  15.5061  15.7697  15.8519  16.4599  16.4890

          k = 0.0876-0.0506 0.0201 (  1730 PWs)   bands (ev):

   -41.5827 -39.6641 -39.6366 -39.5843 -17.8924 -17.8473 -17.7493 -15.9903
   -15.8786 -15.7536 -15.7375 -15.5728 -15.4935 -15.4370 -15.4172 -15.3604
    10.8442  11.5250  12.2508  12.6728  13.4824  13.6336  14.1590  14.2967
    14.8585  15.1503  15.5274  15.7932  15.8553  16.2550  16.7199

          k = 0.0876-0.0506 0.0402 (  1727 PWs)   bands (ev):

   -41.5827 -39.6643 -39.6364 -39.5844 -17.8923 -17.8474 -17.7490 -15.9900
   -15.8746 -15.7534 -15.7457 -15.5687 -15.4938 -15.4364 -15.4174 -15.3606
    10.9872  11.2205  12.5104  12.7627  13.3822  13.4159  14.2422  14.4331
    14.7555  15.0754  15.6419  15.8237  15.8495  16.0965  16.9549

          k = 0.1095-0.0632 0.0000 (  1733 PWs)   bands (ev):

   -41.5734 -39.6374 -39.6169 -39.5713 -17.9581 -17.8352 -17.7649 -16.0179
   -15.9991 -15.8841 -15.7821 -15.5911 -15.5332 -15.4718 -15.4441 -15.3889
    11.4239  11.9246  11.9549  12.5301  13.0957  13.6724  13.8933  14.3821
    15.4310  15.4936  15.5261  15.6260  15.6391  16.6655  16.7135

          k = 0.1095-0.0632 0.0201 (  1735 PWs)   bands (ev):

   -41.5734 -39.6375 -39.6168 -39.5714 -17.9582 -17.8352 -17.7650 -16.0177
   -15.9974 -15.8838 -15.7862 -15.5897 -15.5335 -15.4714 -15.4437 -15.3891
    11.4341  11.7206  12.1851  12.5581  13.1054  13.5065  14.0257  14.3564
    15.2445  15.4414  15.5704  15.7246  15.7787  16.3263  17.0817

          k = 0.1095-0.0632 0.0402 (  1731 PWs)   bands (ev):

   -41.5734 -39.6376 -39.6167 -39.5714 -17.9582 -17.8353 -17.7646 -16.0172
   -15.9948 -15.8829 -15.7930 -15.5876 -15.5339 -15.4707 -15.4429 -15.3893
    11.4737  11.5655  12.3604  12.6215  13.1478  13.2883  14.1507  14.3054
    15.1057  15.3523  15.6828  15.8426  15.8910  16.0483  17.4359

          k = 0.1314-0.0758 0.0000 (  1737 PWs)   bands (ev):

   -41.5661 -39.6153 -39.6013 -39.5624 -18.0091 -17.8261 -17.7771 -16.1030
   -16.0899 -15.9873 -15.7591 -15.5873 -15.5639 -15.4986 -15.4741 -15.4115
    11.7100  11.8513  11.9439  12.4456  12.7781  13.5629  13.8524  14.4942
    15.3484  15.4608  15.7883  16.0675  16.1842  16.7299  16.7785

          k = 0.1314-0.0758 0.0201 (  1737 PWs)   bands (ev):

   -41.5661 -39.6153 -39.6013 -39.5624 -18.0092 -17.8260 -17.7771 -16.1021
   -16.0906 -15.9865 -15.7607 -15.5875 -15.5642 -15.4981 -15.4733 -15.4117
    11.6858  11.7460  12.0549  12.4600  12.8867  13.4760  13.9105  14.3443
    15.4013  15.5927  15.7543  15.8848  16.3025  16.3448  17.2608

          k = 0.1314-0.0758 0.0402 (  1733 PWs)   bands (ev):

   -41.5661 -39.6154 -39.6012 -39.5625 -18.0091 -17.8261 -17.7769 -16.0994
   -16.0932 -15.9849 -15.7635 -15.5877 -15.5646 -15.4973 -15.4719 -15.4120
    11.6418  11.6739  12.1347  12.5095  13.1063  13.3201  13.9805  14.1203
    15.5366  15.5630  15.7007  15.9615  16.0510  16.3314  17.7529

          k = 0.1533-0.0885 0.0000 (  1738 PWs)   bands (ev):

   -41.5621 -39.6023 -39.5927 -39.5584 -18.0369 -17.8212 -17.7836 -16.1614
   -16.1386 -16.0437 -15.7298 -15.5825 -15.5806 -15.5132 -15.4971 -15.4238
    11.6956  11.7634  11.9534  12.4836  12.6150  13.5049  13.8557  14.6052
    15.2558  15.3780  15.9541  16.4388  16.6247  16.7366  16.7864

          k = 0.1533-0.0885 0.0201 (  1740 PWs)   bands (ev):

   -41.5621 -39.6023 -39.5927 -39.5584 -18.0371 -17.8211 -17.7836 -16.1603
   -16.1404 -16.0426 -15.7302 -15.5835 -15.5809 -15.5127 -15.4961 -15.4241
    11.6447  11.7607  11.9612  12.4263  12.8330  13.4849  13.8648  14.3388
    15.3120  15.6706  15.9116  16.1346  16.2731  16.8606  17.3167

          k = 0.1533-0.0885 0.0402 (  1748 PWs)   bands (ev):

   -41.5621 -39.6023 -39.5927 -39.5584 -18.0371 -17.8214 -17.7839 -16.1576
   -16.1443 -16.0407 -15.7310 -15.5852 -15.5813 -15.5119 -15.4946 -15.4245
    11.6092  11.6987  11.9863  12.4442  13.1461  13.4460  13.8091  14.0471
    15.4562  15.7627  15.8210  15.9068  16.3211  16.7781  17.8689

          k = 0.0219-0.0379 0.0000 (  1723 PWs)   bands (ev):

   -41.6028 -39.7180 -39.6793 -39.6149 -17.8736 -17.7486 -17.7155 -16.0639
   -15.7801 -15.4687 -15.4633 -15.4141 -15.3741 -15.3634 -15.3613 -15.3032
     9.4147  11.0064  11.1246  12.0231  14.1863  14.4931  14.6919  14.9974
    15.2247  15.3646  15.5428  15.5565  15.8277  15.8761  15.9663

          k = 0.0219-0.0379 0.0201 (  1735 PWs)   bands (ev):

   -41.6028 -39.7182 -39.6791 -39.6150 -17.8739 -17.7488 -17.7158 -16.0685
   -15.7719 -15.4723 -15.4635 -15.4141 -15.3750 -15.3630 -15.3612 -15.3033
     9.4935  10.5566  11.5051  12.0511  14.1704  14.6041  14.6969  14.9221
    15.1158  15.4370  15.5045  15.5939  15.6987  15.8643  15.9746

          k = 0.0219-0.0379 0.0402 (  1734 PWs)   bands (ev):

   -41.6028 -39.7184 -39.6787 -39.6152 -17.8740 -17.7485 -17.7157 -16.0756
   -15.7585 -15.4783 -15.4637 -15.4140 -15.3761 -15.3622 -15.3610 -15.3035
     9.7232  10.0938  11.7278  12.1212  14.2647  14.5734  14.6667  14.9688
    15.0154  15.4210  15.4750  15.5625  15.5838  15.9088  16.0130

          k = 0.0438-0.0506 0.0000 (  1736 PWs)   bands (ev):

   -41.5957 -39.6993 -39.6643 -39.6038 -17.8643 -17.7988 -17.7293 -16.0321
   -15.7895 -15.5662 -15.5648 -15.4875 -15.4189 -15.4008 -15.3808 -15.3291
     9.8952  11.4241  11.4714  12.3790  13.9831  14.2689  14.3094  14.5166
    14.8852  15.1565  15.7053  15.8869  15.9611  15.9977  16.1472

          k = 0.0438-0.0506 0.0201 (  1735 PWs)   bands (ev):

   -41.5957 -39.6994 -39.6641 -39.6038 -17.8642 -17.7988 -17.7293 -16.0350
   -15.7836 -15.5699 -15.5647 -15.4865 -15.4185 -15.4013 -15.3810 -15.3292
     9.9678  10.9567  11.9055  12.4073  13.8800  14.2620  14.3192  14.5741
    14.8295  15.2473  15.6647  15.8063  15.8639  15.9873  16.1867

          k = 0.0438-0.0506 0.0402 (  1738 PWs)   bands (ev):

   -41.5957 -39.6996 -39.6637 -39.6040 -17.8645 -17.7988 -17.7292 -16.0397
   -15.7739 -15.5757 -15.5650 -15.4850 -15.4178 -15.4021 -15.3813 -15.3294
    10.1807  10.5197  12.1645  12.4943  13.8398  14.0357  14.3330  14.6936
    14.9181  15.2851  15.4563  15.8157  15.8659  15.9000  16.2639

          k = 0.0657-0.0632 0.0000 (  1726 PWs)   bands (ev):

   -41.5866 -39.6747 -39.6450 -39.5899 -17.8618 -17.8521 -17.7460 -15.9971
   -15.8369 -15.6939 -15.6843 -15.5628 -15.4705 -15.4379 -15.4006 -15.3600
    10.5358  11.8111  11.8514  12.6943  13.7155  13.9922  14.0036  14.1616
    14.7892  15.0027  15.5235  15.6702  16.1275  16.3330  16.3743

          k = 0.0657-0.0632 0.0201 (  1730 PWs)   bands (ev):

   -41.5866 -39.6748 -39.6448 -39.5900 -17.8618 -17.8522 -17.7461 -15.9978
   -15.8339 -15.6946 -15.6880 -15.5608 -15.4703 -15.4380 -15.4006 -15.3602
    10.5949  11.4104  12.2610  12.7211  13.6362  13.7645  14.0644  14.3360
    14.7259  15.0839  15.4888  15.7021  16.0396  16.1926  16.5324

          k = 0.0657-0.0632 0.0402 (  1731 PWs)   bands (ev):

   -41.5866 -39.6750 -39.6445 -39.5900 -17.8617 -17.8524 -17.7462 -15.9990
   -15.8287 -15.6966 -15.6930 -15.5577 -15.4698 -15.4382 -15.4007 -15.3604
    10.7681  11.0479  12.5664  12.8128  13.4954  13.5434  14.1005  14.4229
    14.7991  15.0754  15.4760  15.7611  15.9319  16.0730  16.6922

          k = 0.0876-0.0758 0.0000 (  1723 PWs)   bands (ev):

   -41.5771 -39.6480 -39.6247 -39.5762 -17.9272 -17.8396 -17.7639 -15.9916
   -15.9377 -15.8255 -15.7693 -15.5953 -15.5179 -15.4778 -15.4243 -15.3918
    11.2217  11.9772  12.0490  12.6910  13.3071  13.7519  13.9373  14.2225
    15.0442  15.1354  15.4290  15.4761  15.8789  16.5672  16.6138

          k = 0.0876-0.0758 0.0201 (  1732 PWs)   bands (ev):

   -41.5771 -39.6481 -39.6246 -39.5762 -17.9273 -17.8399 -17.7641 -15.9908
   -15.9360 -15.8253 -15.7740 -15.5938 -15.5177 -15.4777 -15.4240 -15.3920
    11.2529  11.7335  12.3180  12.7155  13.2759  13.5618  14.0707  14.2734
    14.9062  15.1566  15.4394  15.6004  15.8567  16.2952  16.8986

          k = 0.0876-0.0758 0.0402 (  1735 PWs)   bands (ev):

   -41.5771 -39.6482 -39.6244 -39.5763 -17.9275 -17.8400 -17.7640 -15.9896
   -15.9334 -15.8244 -15.7820 -15.5915 -15.5174 -15.4776 -15.4233 -15.3922
    11.3463  11.5119  12.5691  12.7603  13.2147  13.3493  14.1674  14.3521
    14.8071  15.0545  15.6027  15.7279  15.8007  16.0646  17.1349

          k = 0.1095-0.0885 0.0000 (  1735 PWs)   bands (ev):

   -41.5687 -39.6235 -39.6069 -39.5654 -17.9841 -17.8293 -17.7795 -16.0492
   -16.0482 -15.9387 -15.7714 -15.6038 -15.5523 -15.5135 -15.4518 -15.4194
    11.7303  11.9978  12.0060  12.5369  12.9434  13.6331  13.8978  14.3639
    15.2599  15.5485  15.5493  15.6652  15.6959  16.6979  16.7395

          k = 0.1095-0.0885 0.0201 (  1736 PWs)   bands (ev):

   -41.5687 -39.6235 -39.6069 -39.5655 -17.9841 -17.8294 -17.7796 -16.0507
   -16.0460 -15.9379 -15.7740 -15.6036 -15.5524 -15.5132 -15.4511 -15.4195
    11.7191  11.8228  12.2114  12.5592  12.9929  13.4937  13.9935  14.3085
    15.2715  15.3548  15.6266  15.7178  15.7920  16.3666  17.1307

          k = 0.1095-0.0885 0.0402 (  1734 PWs)   bands (ev):

   -41.5687 -39.6236 -39.6068 -39.5655 -17.9841 -17.8294 -17.7795 -16.0505
   -16.0452 -15.9364 -15.7781 -15.6032 -15.5525 -15.5127 -15.4498 -15.4197
    11.6970  11.7290  12.3545  12.6103  13.1139  13.2892  14.0804  14.2112
    15.2127  15.2976  15.6706  15.8194  15.8804  16.1003  17.5255

          k = 0.1314-0.1011 0.0000 (  1735 PWs)   bands (ev):

   -41.5631 -39.6056 -39.5948 -39.5593 -18.0223 -17.8222 -17.7900 -16.1297
   -16.1108 -16.0149 -15.7390 -15.6130 -15.5658 -15.5394 -15.4771 -15.4378
    11.8032  11.8872  12.0632  12.5243  12.7146  13.5601  13.9013  14.4796
    15.1703  15.4403  15.8826  15.9064  16.0728  16.8731  16.9199

          k = 0.1314-0.1011 0.0201 (  1737 PWs)   bands (ev):

   -41.5631 -39.6056 -39.5948 -39.5593 -18.0222 -17.8224 -17.7900 -16.1288
   -16.1122 -16.0139 -15.7397 -15.6133 -15.5666 -15.5390 -15.4763 -15.4379
    11.7557  11.8528  12.1074  12.5082  12.8842  13.4988  13.9330  14.3002
    15.2187  15.5430  15.6836  15.8954  16.2794  16.5328  17.3062

          k = 0.1314-0.1011 0.0402 (  1734 PWs)   bands (ev):

   -41.5631 -39.6057 -39.5948 -39.5593 -18.0221 -17.8222 -17.7901 -16.1263
   -16.1156 -16.0121 -15.7408 -15.6136 -15.5678 -15.5382 -15.4750 -15.4382
    11.7112  11.7874  12.1568  12.5477  13.1598  13.3896  13.9255  14.0710
    15.2446  15.3953  15.8821  16.0035  16.1837  16.3604  17.7660

          k = 0.1533-0.1138 0.0000 (  1734 PWs)   bands (ev):

   -41.5611 -39.5989 -39.5906 -39.5575 -18.0359 -17.8197 -17.7935 -16.1587
   -16.1350 -16.0418 -15.7219 -15.6186 -15.5675 -15.5497 -15.4882 -15.4442
    11.7824  11.8392  12.0555  12.5600  12.6370  13.5350  13.9081  14.5537
    15.1444  15.3766  15.9626  16.0076  16.1858  16.9940  17.0581

          k = 0.1533-0.1138 0.0201 (  1732 PWs)   bands (ev):

   -41.5611 -39.5989 -39.5905 -39.5575 -18.0357 -17.8197 -17.7935 -16.1576
   -16.1369 -16.0407 -15.7219 -15.6188 -15.5687 -15.5490 -15.4874 -15.4444
    11.7237  11.8479  12.0559  12.4911  12.8774  13.5117  13.9164  14.3050
    15.1768  15.5717  15.7181  15.9795  16.4973  16.6110  17.4152

          k = 0.1533-0.1138 0.0402 (  1746 PWs)   bands (ev):

   -41.5611 -39.5989 -39.5905 -39.5575 -18.0361 -17.8199 -17.7940 -16.1551
   -16.1410 -16.0388 -15.7220 -15.6193 -15.5707 -15.5481 -15.4863 -15.4447
    11.6833  11.7899  12.0783  12.5166  13.1976  13.4996  13.7989  14.0456
    15.1974  15.3959  15.9616  16.1089  16.3102  16.5592  17.8304

          k = 0.0438-0.0758 0.0000 (  1733 PWs)   bands (ev):

   -41.5880 -39.6784 -39.6479 -39.5919 -17.8541 -17.8486 -17.7477 -16.0005
   -15.8211 -15.6670 -15.6609 -15.5643 -15.4522 -15.4442 -15.3939 -15.3707
    10.4490  11.8007  11.8442  12.7458  13.7795  13.9154  14.0807  14.1788
    14.6700  14.9529  15.5453  15.5963  16.1983  16.2775  16.3764

          k = 0.0438-0.0758 0.0201 (  1728 PWs)   bands (ev):

   -41.5880 -39.6785 -39.6477 -39.5920 -17.8538 -17.8486 -17.7476 -16.0016
   -15.8177 -15.6682 -15.6635 -15.5630 -15.4516 -15.4445 -15.3938 -15.3708
    10.5116  11.3759  12.2822  12.7704  13.6828  13.8412  13.9482  14.3594
    14.6686  15.0536  15.4847  15.6030  16.0926  16.2089  16.4489

          k = 0.0438-0.0758 0.0402 (  1731 PWs)   bands (ev):

   -41.5880 -39.6787 -39.6474 -39.5921 -17.8540 -17.8484 -17.7478 -16.0034
   -15.8119 -15.6721 -15.6658 -15.5610 -15.4505 -15.4450 -15.3938 -15.3710
    10.6952  10.9918  12.6235  12.8544  13.5344  13.5980  13.9687  14.3703
    14.8902  15.1470  15.2841  15.7089  15.9701  16.0666  16.5783

          k = 0.0657-0.0885 0.0000 (  1719 PWs)   bands (ev):

   -41.5790 -39.6537 -39.6289 -39.5790 -17.9042 -17.8420 -17.7695 -15.9801
   -15.8913 -15.7878 -15.7459 -15.6044 -15.5009 -15.4958 -15.4144 -15.4127
    11.1261  12.0573  12.1855  12.9885  13.4583  13.6958  13.8491  14.1874
    14.6092  14.8528  15.3043  15.4250  16.0640  16.4528  16.5133

          k = 0.0657-0.0885 0.0201 (  1722 PWs)   bands (ev):

   -41.5791 -39.6538 -39.6288 -39.5790 -17.9042 -17.8421 -17.7696 -15.9795
   -15.8898 -15.7871 -15.7502 -15.6038 -15.5002 -15.4959 -15.4147 -15.4122
    11.1695  11.7872  12.4819  13.0140  13.3846  13.6690  13.7663  14.2202
    14.6365  14.9435  15.2694  15.4921  15.9739  16.2111  16.7410

          k = 0.0657-0.0885 0.0402 (  1735 PWs)   bands (ev):

   -41.5791 -39.6539 -39.6286 -39.5791 -17.9045 -17.8426 -17.7698 -15.9785
   -15.8874 -15.7853 -15.7580 -15.6029 -15.4986 -15.4964 -15.4149 -15.4116
    11.2949  11.5166  12.8159  13.0435  13.2264  13.5115  13.7884  14.1723
    14.8068  14.9647  15.2992  15.5942  15.8165  16.0078  16.8591

          k = 0.0876-0.1011 0.0000 (  1724 PWs)   bands (ev):

   -41.5705 -39.6289 -39.6107 -39.5676 -17.9566 -17.8314 -17.7913 -16.0066
   -15.9866 -15.8938 -15.7719 -15.6290 -15.5459 -15.5440 -15.4512 -15.4370
    11.7852  12.1615  12.2612  12.8419  13.1313  13.7457  13.8240  14.2287
    14.8960  15.0002  15.1154  15.5123  15.8032  16.5049  16.5530

          k = 0.0876-0.1011 0.0201 (  1727 PWs)   bands (ev):

   -41.5705 -39.6290 -39.6107 -39.5676 -17.9568 -17.8314 -17.7914 -16.0067
   -15.9856 -15.8927 -15.7748 -15.6293 -15.5463 -15.5431 -15.4513 -15.4362
    11.7903  12.0205  12.4427  12.8615  13.1114  13.5823  13.9164  14.2771
    14.8148  15.0125  15.2009  15.5564  15.7502  16.1937  16.9172

          k = 0.0876-0.1011 0.0402 (  1731 PWs)   bands (ev):

   -41.5705 -39.6290 -39.6106 -39.5676 -17.9566 -17.8316 -17.7916 -16.0067
   -15.9843 -15.8905 -15.7797 -15.6297 -15.5465 -15.5423 -15.4515 -15.4350
    11.8099  11.9043  12.6582  12.8518  13.0932  13.4053  14.0118  14.2646
    14.8262  14.9478  15.3709  15.5498  15.7423  15.9449  17.2211

          k = 0.1095-0.1138 0.0000 (  1730 PWs)   bands (ev):

   -41.5639 -39.6082 -39.5965 -39.5599 -17.9972 -17.8231 -17.8087 -16.0727
   -16.0627 -15.9699 -15.7471 -15.6574 -15.5858 -15.5653 -15.4758 -15.4634
    12.0573  12.1683  12.3202  12.6871  12.8992  13.6758  13.9681  14.2564
    14.9828  15.2170  15.2998  15.5995  15.7994  16.6642  16.6886

          k = 0.1095-0.1138 0.0201 (  1729 PWs)   bands (ev):

   -41.5639 -39.6082 -39.5965 -39.5599 -17.9971 -17.8230 -17.8088 -16.0724
   -16.0636 -15.9688 -15.7477 -15.6575 -15.5858 -15.5659 -15.4759 -15.4626
    12.0173  12.0947  12.4350  12.6961  12.9931  13.5378  14.0162  14.2471
    14.9589  15.0736  15.4374  15.6028  15.8398  16.3988  17.0524

          k = 0.1095-0.1138 0.0402 (  1729 PWs)   bands (ev):

   -41.5639 -39.6083 -39.5964 -39.5600 -17.9972 -17.8230 -17.8087 -16.0707
   -16.0662 -15.9668 -15.7488 -15.6578 -15.5856 -15.5667 -15.4761 -15.4613
    11.9600  12.0382  12.5556  12.7346  13.1660  13.3440  14.0344  14.1698
    14.9303  15.0360  15.4850  15.6209  15.9665  16.1696  17.4917

          k = 0.1314-0.1264 0.0000 (  1735 PWs)   bands (ev):

   -41.5602 -39.5959 -39.5887 -39.5566 -18.0195 -17.8185 -17.8182 -16.1220
   -16.1005 -16.0101 -15.7198 -15.6776 -15.6088 -15.5729 -15.4869 -15.4828
    12.0437  12.0837  12.3596  12.7364  12.7789  13.6449  14.0343  14.3363
    14.9334  15.3086  15.3535  15.5899  16.0076  16.9164  16.9591

          k = 0.1314-0.1264 0.0201 (  1730 PWs)   bands (ev):

   -41.5602 -39.5959 -39.5887 -39.5566 -18.0193 -17.8184 -17.8181 -16.1212
   -16.1023 -16.0090 -15.7194 -15.6775 -15.6083 -15.5742 -15.4872 -15.4821
    11.9708  12.0922  12.3766  12.6977  12.9995  13.5663  14.0542  14.2177
    14.8657  15.1192  15.4863  15.7899  16.0510  16.6591  17.2381

          k = 0.1314-0.1264 0.0402 (  1727 PWs)   bands (ev):

   -41.5602 -39.5960 -39.5886 -39.5566 -18.0193 -17.8182 -17.8180 -16.1192
   -16.1059 -16.0073 -15.7186 -15.6774 -15.6076 -15.5764 -15.4874 -15.4813
    11.9148  12.0431  12.4161  12.7584  13.2920  13.4867  13.8916  14.0748
    14.8149  14.9979  15.6917  15.8969  16.1768  16.3858  17.6442

          k = 0.0657-0.1138 0.0000 (  1725 PWs)   bands (ev):

   -41.5712 -39.6308 -39.6121 -39.5684 -17.9436 -17.8317 -17.7995 -15.9892
   -15.9534 -15.8793 -15.7679 -15.6412 -15.5638 -15.5366 -15.4740 -15.4323
    11.8100  12.2464  12.4204  13.2004  13.2846  13.3893  13.8680  14.3161
    14.5137  14.7263  15.0457  15.4502  15.8628  16.3950  16.4536

          k = 0.0657-0.1138 0.0201 (  1728 PWs)   bands (ev):

   -41.5712 -39.6309 -39.6120 -39.5684 -17.9435 -17.8322 -17.7993 -15.9890
   -15.9531 -15.8774 -15.7709 -15.6421 -15.5643 -15.5352 -15.4743 -15.4316
    11.8275  12.1384  12.5424  13.1150  13.3465  13.4334  13.8104  14.1604
    14.6735  14.8074  15.0684  15.4651  15.7653  16.0720  16.8251

          k = 0.0657-0.1138 0.0402 (  1732 PWs)   bands (ev):

   -41.5712 -39.6310 -39.6119 -39.5684 -17.9438 -17.8323 -17.7994 -15.9886
   -15.9528 -15.8740 -15.7759 -15.6434 -15.5650 -15.5332 -15.4747 -15.4304
    11.8744  12.0151  12.6901  13.0102  13.4045  13.5166  13.7100  14.0130
    14.8138  14.9296  15.1795  15.4317  15.6475  15.8155  17.0895

          k = 0.0876-0.1264 0.0000 (  1726 PWs)   bands (ev):

   -41.5643 -39.6096 -39.5974 -39.5603 -17.9745 -17.8281 -17.8233 -16.0209
   -16.0150 -15.9416 -15.7523 -15.6912 -15.6253 -15.5768 -15.5070 -15.4572
    12.3289  12.4518  12.4661  13.0482  13.0707  13.6322  13.8429  14.3006
    14.6840  14.7550  14.8883  15.6275  15.6839  16.3969  16.4131

          k = 0.0876-0.1264 0.0201 (  1718 PWs)   bands (ev):

   -41.5643 -39.6097 -39.5974 -39.5603 -17.9744 -17.8279 -17.8231 -16.0224
   -16.0147 -15.9395 -15.7527 -15.6919 -15.6259 -15.5764 -15.5074 -15.4563
    12.3101  12.3792  12.5643  13.0339  13.1029  13.6408  13.7761  14.3325
    14.6210  14.8266  14.9570  15.5365  15.7030  16.0845  16.8373

          k = 0.0876-0.1264 0.0402 (  1724 PWs)   bands (ev):

   -41.5643 -39.6097 -39.5973 -39.5603 -17.9744 -17.8281 -17.8233 -16.0239
   -16.0150 -15.9361 -15.7533 -15.6931 -15.6269 -15.5759 -15.5080 -15.4551
    12.2750  12.3504  12.6427  13.0200  13.1490  13.5525  13.8538  14.1776
    14.7746  14.8589  15.0510  15.3613  15.7495  15.8900  17.2807

          k = 0.1095-0.1390 0.0000 (  1727 PWs)   bands (ev):

   -41.5596 -39.5939 -39.5874 -39.5561 -17.9935 -17.8493 -17.8177 -16.0629
   -16.0489 -15.9691 -15.7402 -15.7363 -15.6583 -15.6118 -15.5144 -15.4814
    12.3855  12.3878  12.7907  12.9528  12.9855  13.7936  13.9287  14.1817
    14.7318  14.7948  14.9441  15.4313  15.9852  16.5882  16.5904

          k = 0.1095-0.1390 0.0201 (  1722 PWs)   bands (ev):

   -41.5596 -39.5940 -39.5874 -39.5561 -17.9937 -17.8491 -17.8173 -16.0628
   -16.0506 -15.9678 -15.7403 -15.7350 -15.6582 -15.6123 -15.5153 -15.4809
    12.3053  12.4218  12.8229  12.9480  13.1130  13.6366  13.9126  14.3408
    14.4677  14.8303  15.0869  15.4044  16.0062  16.3603  16.9423

          k = 0.1095-0.1390 0.0402 (  1722 PWs)   bands (ev):

   -41.5596 -39.5940 -39.5874 -39.5561 -17.9937 -17.8493 -17.8171 -16.0620
   -16.0538 -15.9657 -15.7399 -15.7336 -15.6582 -15.6131 -15.5167 -15.4802
    12.2491  12.4056  12.9098  12.9773  13.2899  13.4527  13.9128  14.1193
    14.6095  14.7960  15.1607  15.3787  16.0745  16.2028  17.4107

          k = 0.1314-0.1517 0.0000 (  1740 PWs)   bands (ev):

   -41.5579 -39.5879 -39.5839 -39.5551 -18.0006 -17.8571 -17.8159 -16.0807
   -16.0594 -15.9756 -15.7611 -15.7362 -15.6612 -15.6249 -15.5152 -15.4926
    12.3508  12.4026  12.7788  12.9672  13.0187  13.7809  14.0539  14.1534
    14.6838  14.7896  15.0328  15.3292  16.1109  16.7366  16.7497

          k = 0.1314-0.1517 0.0201 (  1728 PWs)   bands (ev):

   -41.5579 -39.5879 -39.5838 -39.5551 -18.0005 -17.8570 -17.8152 -16.0803
   -16.0613 -15.9748 -15.7604 -15.7353 -15.6602 -15.6256 -15.5163 -15.4923
    12.2766  12.4206  12.8015  12.9976  13.1697  13.6516  13.9705  14.2912
    14.3977  14.8220  15.1735  15.3691  16.1380  16.5368  17.0399

          k = 0.1314-0.1517 0.0402 (  1717 PWs)   bands (ev):

   -41.5579 -39.5879 -39.5838 -39.5551 -18.0002 -17.8570 -17.8147 -16.0791
   -16.0648 -15.9733 -15.7594 -15.7340 -15.6585 -15.6268 -15.5181 -15.4921
    12.2123  12.4003  12.8516  13.1034  13.4415  13.5304  13.7782  14.0062
    14.5546  14.7467  15.2651  15.4456  16.2230  16.3651  17.4696

          k = 0.0876-0.1517 0.0000 (  1725 PWs)   bands (ev):

   -41.5594 -39.5932 -39.5869 -39.5559 -17.9784 -17.8663 -17.8173 -16.0225
   -16.0195 -15.9575 -15.7657 -15.7578 -15.6712 -15.6438 -15.5197 -15.4812
    12.5372  12.5888  12.9279  13.0909  13.3483  13.5111  13.9060  14.1200
    14.5743  14.6973  14.7297  15.4320  15.9458  16.3908  16.4235

          k = 0.0876-0.1517 0.0201 (  1720 PWs)   bands (ev):

   -41.5594 -39.5933 -39.5869 -39.5559 -17.9785 -17.8664 -17.8168 -16.0231
   -16.0213 -15.9553 -15.7661 -15.7566 -15.6711 -15.6437 -15.5210 -15.4807
    12.5315  12.6121  12.8950  13.0926  13.3546  13.5742  13.7823  14.2542
    14.3991  14.7431  14.8435  15.3652  15.9340  16.1544  16.8103

          k = 0.0876-0.1517 0.0402 (  1719 PWs)   bands (ev):

   -41.5594 -39.5933 -39.5869 -39.5559 -17.9785 -17.8663 -17.8168 -16.0244
   -16.0237 -15.9518 -15.7662 -15.7550 -15.6712 -15.6435 -15.5229 -15.4801
    12.5250  12.6642  12.8204  13.1084  13.3662  13.6307  13.7718  14.0547
    14.5753  14.7742  14.8694  15.2649  15.9105  16.0485  17.3074

          k = 0.1095-0.1643 0.0000 (  1728 PWs)   bands (ev):

   -41.5567 -39.5833 -39.5812 -39.5545 -17.9736 -17.8948 -17.8139 -16.0208
   -16.0063 -15.9435 -15.8276 -15.8030 -15.6952 -15.6610 -15.5195 -15.5001
    12.5494  12.7773  13.1528  13.1911  13.2989  13.7696  13.8442  13.8546
    14.5325  14.7072  14.7160  15.2851  16.1676  16.5029  16.5402

          k = 0.1095-0.1643 0.0201 (  1725 PWs)   bands (ev):

   -41.5567 -39.5833 -39.5812 -39.5545 -17.9736 -17.8949 -17.8135 -16.0210
   -16.0084 -15.9427 -15.8263 -15.8024 -15.6955 -15.6590 -15.5212 -15.5002
    12.5407  12.7834  13.1589  13.2167  13.3481  13.7171  13.7450  13.8910
    14.5027  14.6925  14.8071  15.2509  16.1615  16.3256  16.8652

          k = 0.1095-0.1643 0.0402 (  1717 PWs)   bands (ev):

   -41.5567 -39.5832 -39.5812 -39.5545 -17.9735 -17.8948 -17.8131 -16.0213
   -16.0119 -15.9416 -15.8241 -15.8014 -15.6958 -15.6558 -15.5241 -15.5007
    12.5275  12.7926  13.1847  13.2490  13.4632  13.6132  13.6980  13.7882
    14.5491  14.6795  14.8744  15.1960  16.1504  16.2464  17.3370

          k = 0.1095-0.1896 0.0000 (  1725 PWs)   bands (ev):

   -41.5557 -39.5791 -39.5790 -39.5543 -17.9424 -17.9350 -17.8123 -15.9663
   -15.9651 -15.9520 -15.8645 -15.8596 -15.7442 -15.6517 -15.5192 -15.5088
    12.6087  13.0984  13.3594  13.3621  13.3705  13.5298  13.6850  13.7498
    14.4966  14.6321  14.7574  15.2297  16.2499  16.4717  16.5298

          k = 0.1095-0.1896 0.0201 (  1734 PWs)   bands (ev):

   -41.5557 -39.5791 -39.5790 -39.5543 -17.9426 -17.9352 -17.8124 -15.9692
   -15.9660 -15.9526 -15.8609 -15.8587 -15.7446 -15.6489 -15.5212 -15.5096
    12.6324  13.1091  13.2949  13.3153  13.4391  13.5215  13.6916  13.7501
    14.4971  14.6211  14.7766  15.1973  16.2222  16.3308  16.8397

          k = 0.1095-0.1896 0.0402 (  1716 PWs)   bands (ev):

   -41.5557 -39.5791 -39.5790 -39.5543 -17.9424 -17.9350 -17.8115 -15.9736
   -15.9674 -15.9535 -15.8571 -15.8552 -15.7452 -15.6440 -15.5245 -15.5108
    12.6776  13.1277  13.2361  13.2540  13.4873  13.5071  13.7102  13.7407
    14.4985  14.6030  14.8158  15.1379  16.1838  16.2818  17.3092

     the Fermi energy is    15.2863 ev

!    total energy              =    -470.46509856 Ry
     Harris-Foulkes estimate   =    -470.46509856 Ry
     estimated scf accuracy    <          1.5E-11 Ry

     The total energy is the sum of the following terms:

     one-electron contribution =    -110.04094783 Ry
     hartree contribution      =      75.61777568 Ry
     xc contribution           =     -69.47554566 Ry
     ewald contribution        =    -366.24815188 Ry
     smearing contrib. (-TS)   =      -0.31822886 Ry

     convergence has been achieved in  33 iterations

     Forces acting on atoms (Ry/au):

     atom    1 type  2   force =     0.00000000    0.00000000    0.00000000
     atom    2 type  1   force =    -0.00000000    0.00000000   -0.00217049
     atom    3 type  1   force =     0.00000000   -0.00000000    0.00000000
     atom    4 type  1   force =     0.00000000   -0.00000000    0.00217049

     Total force =     0.003070     Total SCF correction =     0.000011


     entering subroutine stress ...

          total   stress  (Ry/bohr**3)                   (kbar)     P=  -40.96
  -0.00029884   0.00000000  -0.00000000        -43.96      0.00     -0.00
   0.00000000  -0.00029884   0.00000000          0.00    -43.96      0.00
   0.00000000   0.00000000  -0.00023761          0.00      0.00    -34.95


     BFGS Geometry Optimization

     number of scf cycles    =   1
     number of bfgs steps    =   0

     enthalpy new            =    -470.4650985570 Ry

     new trust radius        =       0.0346870896 bohr
     new conv_thr            =            1.0E-10 Ry

     new unit-cell volume =    527.71946 a.u.^3 (    78.19995 Ang^3 )

CELL_PARAMETERS (alat=  1.88972599)
  -1.511127204  -2.617349277   0.000000000
   3.022254409   0.000000000   0.000000000
  -0.000000000   0.000000000   9.885847265

ATOMIC_POSITIONS (angstrom)
Ti       1.511127204  -2.617349277   4.942923633
Nb       0.000001512  -1.744900391   2.470320064
Nb       1.511127204  -2.617349277   9.885847265
Nb       0.000001512  -1.744900391   7.415527201


     NEW-OLD atomic charge density approx. for the potential

     Check: negative/imaginary core charge=   -0.000002    0.000000
     extrapolated charge   49.94131, renormalised to   51.00000

     total cpu time spent up to now is      172.3 secs

     per-process dynamical memory:    37.9 Mb

     Self-consistent Calculation

     iteration #  1     ecut=    33.07 Ry     beta=0.60
     Davidson diagonalization with overlap
     ethr =  1.00E-06,  avg # of iterations = 12.4

     total cpu time spent up to now is      183.4 secs

     total energy              =    -470.19738292 Ry
     Harris-Foulkes estimate   =    -472.03236054 Ry
     estimated scf accuracy    <       0.29289740 Ry

     iteration #  2     ecut=    33.07 Ry     beta=0.60
     Davidson diagonalization with overlap
     ethr =  5.74E-04,  avg # of iterations =  6.9

     total cpu time spent up to now is      191.7 secs

     total energy              =    -468.98484758 Ry
     Harris-Foulkes estimate   =    -472.44939094 Ry
     estimated scf accuracy    <      49.93992542 Ry

     iteration #  3     ecut=    33.07 Ry     beta=0.60
     Davidson diagonalization with overlap
     ethr =  5.74E-04,  avg # of iterations =  6.0

     total cpu time spent up to now is      199.2 secs

     total energy              =    -470.37694604 Ry
     Harris-Foulkes estimate   =    -470.61331672 Ry
     estimated scf accuracy    <       1.19845613 Ry

     iteration #  4     ecut=    33.07 Ry     beta=0.60
     Davidson diagonalization with overlap
     ethr =  5.74E-04,  avg # of iterations =  4.9

     total cpu time spent up to now is      204.6 secs

     total energy              =    -470.46287315 Ry
     Harris-Foulkes estimate   =    -470.49739577 Ry
     estimated scf accuracy    <       0.12404237 Ry

     iteration #  5     ecut=    33.07 Ry     beta=0.60
     Davidson diagonalization with overlap
     ethr =  2.43E-04,  avg # of iterations =  3.5

     total cpu time spent up to now is      208.5 secs

     total energy              =    -470.46878093 Ry
     Harris-Foulkes estimate   =    -470.47518224 Ry
     estimated scf accuracy    <       0.03669432 Ry

     iteration #  6     ecut=    33.07 Ry     beta=0.60
     Davidson diagonalization with overlap
     ethr =  7.19E-05,  avg # of iterations =  2.7

     total cpu time spent up to now is      212.1 secs

     total energy              =    -470.46847159 Ry
     Harris-Foulkes estimate   =    -470.47062778 Ry
     estimated scf accuracy    <       0.01800922 Ry

     iteration #  7     ecut=    33.07 Ry     beta=0.60
     Davidson diagonalization with overlap
     ethr =  3.53E-05,  avg # of iterations =  2.1

     total cpu time spent up to now is      215.5 secs

     total energy              =    -470.46919297 Ry
     Harris-Foulkes estimate   =    -470.46886670 Ry
     estimated scf accuracy    <       0.00982643 Ry

     iteration #  8     ecut=    33.07 Ry     beta=0.60
     Davidson diagonalization with overlap
     ethr =  1.93E-05,  avg # of iterations =  1.3

     total cpu time spent up to now is      218.6 secs

     total energy              =    -470.46933629 Ry
     Harris-Foulkes estimate   =    -470.46927903 Ry
     estimated scf accuracy    <       0.01121818 Ry

     iteration #  9     ecut=    33.07 Ry     beta=0.60
     Davidson diagonalization with overlap
     ethr =  1.93E-05,  avg # of iterations =  1.0

     total cpu time spent up to now is      221.7 secs

     total energy              =    -470.46667638 Ry
     Harris-Foulkes estimate   =    -470.46937440 Ry
     estimated scf accuracy    <       0.01135952 Ry

     iteration # 10     ecut=    33.07 Ry     beta=0.60
     Davidson diagonalization with overlap
     ethr =  1.93E-05,  avg # of iterations =  4.7

     total cpu time spent up to now is      226.1 secs

     total energy              =    -470.46696932 Ry
     Harris-Foulkes estimate   =    -470.46746122 Ry
     estimated scf accuracy    <       0.00186078 Ry

     iteration # 11     ecut=    33.07 Ry     beta=0.60
     Davidson diagonalization with overlap
     ethr =  3.65E-06,  avg # of iterations =  5.6

     total cpu time spent up to now is      232.4 secs

     total energy              =    -470.46802708 Ry
     Harris-Foulkes estimate   =    -470.46765197 Ry
     estimated scf accuracy    <       0.00172147 Ry

     iteration # 12     ecut=    33.07 Ry     beta=0.60
     Davidson diagonalization with overlap
     ethr =  3.38E-06,  avg # of iterations =  5.4

     total cpu time spent up to now is      237.0 secs

     total energy              =    -470.46806303 Ry
     Harris-Foulkes estimate   =    -470.46819119 Ry
     estimated scf accuracy    <       0.00657958 Ry

     iteration # 13     ecut=    33.07 Ry     beta=0.60
     Davidson diagonalization with overlap
     ethr =  3.38E-06,  avg # of iterations =  2.4

     total cpu time spent up to now is      240.5 secs

     total energy              =    -470.46754830 Ry
     Harris-Foulkes estimate   =    -470.46814083 Ry
     estimated scf accuracy    <       0.00730658 Ry

     iteration # 14     ecut=    33.07 Ry     beta=0.60
     Davidson diagonalization with overlap
     ethr =  3.38E-06,  avg # of iterations =  2.9

     total cpu time spent up to now is      244.2 secs

     total energy              =    -470.46759737 Ry
     Harris-Foulkes estimate   =    -470.46764681 Ry
     estimated scf accuracy    <       0.00390151 Ry

     iteration # 15     ecut=    33.07 Ry     beta=0.60
     Davidson diagonalization with overlap
     ethr =  3.38E-06,  avg # of iterations =  1.0

     total cpu time spent up to now is      247.3 secs

     total energy              =    -470.46761075 Ry
     Harris-Foulkes estimate   =    -470.46760368 Ry
     estimated scf accuracy    <       0.00356040 Ry

     iteration # 16     ecut=    33.07 Ry     beta=0.60
     Davidson diagonalization with overlap
     ethr =  3.38E-06,  avg # of iterations =  1.0

     total cpu time spent up to now is      250.4 secs

     total energy              =    -470.46717704 Ry
     Harris-Foulkes estimate   =    -470.46761288 Ry
     estimated scf accuracy    <       0.00352079 Ry

     iteration # 17     ecut=    33.07 Ry     beta=0.60
     Davidson diagonalization with overlap
     ethr =  3.38E-06,  avg # of iterations =  5.8

     total cpu time spent up to now is      255.2 secs

     total energy              =    -470.46734299 Ry
     Harris-Foulkes estimate   =    -470.46737139 Ry
     estimated scf accuracy    <       0.00004150 Ry

     iteration # 18     ecut=    33.07 Ry     beta=0.60
     Davidson diagonalization with overlap
     ethr =  8.14E-08,  avg # of iterations =  6.3

     total cpu time spent up to now is      263.5 secs

     total energy              =    -470.46741467 Ry
     Harris-Foulkes estimate   =    -470.46739716 Ry
     estimated scf accuracy    <       0.00028864 Ry

     iteration # 19     ecut=    33.07 Ry     beta=0.60
     Davidson diagonalization with overlap
     ethr =  8.14E-08,  avg # of iterations =  5.2

     total cpu time spent up to now is      269.1 secs

     total energy              =    -470.46745413 Ry
     Harris-Foulkes estimate   =    -470.46742394 Ry
     estimated scf accuracy    <       0.00040660 Ry

     iteration # 20     ecut=    33.07 Ry     beta=0.60
     Davidson diagonalization with overlap
     ethr =  8.14E-08,  avg # of iterations =  2.6

     total cpu time spent up to now is      272.7 secs

     total energy              =    -470.46734555 Ry
     Harris-Foulkes estimate   =    -470.46745677 Ry
     estimated scf accuracy    <       0.00046188 Ry

     iteration # 21     ecut=    33.07 Ry     beta=0.60
     Davidson diagonalization with overlap
     ethr =  8.14E-08,  avg # of iterations =  5.9

     total cpu time spent up to now is      279.5 secs

     total energy              =    -470.46736266 Ry
     Harris-Foulkes estimate   =    -470.46737329 Ry
     estimated scf accuracy    <       0.00011475 Ry

     iteration # 22     ecut=    33.07 Ry     beta=0.60
     Davidson diagonalization with overlap
     ethr =  8.14E-08,  avg # of iterations =  3.7

     total cpu time spent up to now is      283.2 secs

     total energy              =    -470.46736191 Ry
     Harris-Foulkes estimate   =    -470.46736450 Ry
     estimated scf accuracy    <       0.00003292 Ry

     iteration # 23     ecut=    33.07 Ry     beta=0.60
     Davidson diagonalization with overlap
     ethr =  6.45E-08,  avg # of iterations =  4.5

     total cpu time spent up to now is      287.3 secs

     total energy              =    -470.46736322 Ry
     Harris-Foulkes estimate   =    -470.46736359 Ry
     estimated scf accuracy    <       0.00000347 Ry

     iteration # 24     ecut=    33.07 Ry     beta=0.60
     Davidson diagonalization with overlap
     ethr =  6.81E-09,  avg # of iterations =  5.9

     total cpu time spent up to now is      292.1 secs

     total energy              =    -470.46736312 Ry
     Harris-Foulkes estimate   =    -470.46736347 Ry
     estimated scf accuracy    <       0.00000144 Ry

     iteration # 25     ecut=    33.07 Ry     beta=0.60
     Davidson diagonalization with overlap
     ethr =  2.83E-09,  avg # of iterations =  5.1

     total cpu time spent up to now is      297.0 secs

     total energy              =    -470.46736328 Ry
     Harris-Foulkes estimate   =    -470.46736328 Ry
     estimated scf accuracy    <       0.00000013 Ry

     iteration # 26     ecut=    33.07 Ry     beta=0.60
     Davidson diagonalization with overlap
     ethr =  2.46E-10,  avg # of iterations =  6.6

     total cpu time spent up to now is      302.2 secs

     total energy              =    -470.46736329 Ry
     Harris-Foulkes estimate   =    -470.46736329 Ry
     estimated scf accuracy    <          5.2E-09 Ry

     iteration # 27     ecut=    33.07 Ry     beta=0.60
     Davidson diagonalization with overlap
     ethr =  1.01E-11,  avg # of iterations =  5.4

     total cpu time spent up to now is      307.4 secs

     total energy              =    -470.46736329 Ry
     Harris-Foulkes estimate   =    -470.46736329 Ry
     estimated scf accuracy    <          2.7E-09 Ry

     iteration # 28     ecut=    33.07 Ry     beta=0.60
     Davidson diagonalization with overlap
     ethr =  5.20E-12,  avg # of iterations =  2.0

     total cpu time spent up to now is      310.8 secs

     total energy              =    -470.46736329 Ry
     Harris-Foulkes estimate   =    -470.46736329 Ry
     estimated scf accuracy    <          3.4E-10 Ry

     iteration # 29     ecut=    33.07 Ry     beta=0.60
     Davidson diagonalization with overlap
     ethr =  6.70E-13,  avg # of iterations =  6.3

     total cpu time spent up to now is      316.4 secs

     End of self-consistent calculation

          k = 0.0000 0.0000 0.0000 (  1727 PWs)   bands (ev):

   -41.2011 -39.3271 -39.2816 -39.2085 -17.4835 -17.2868 -17.2868 -15.7106
   -15.3811 -14.9754 -14.9440 -14.9440 -14.9056 -14.9056 -14.8455 -14.8455
     9.3537  10.9830  11.1532  12.0166  14.7256  15.0965  15.5910  15.5910
    15.6113  15.6113  15.8922  15.9371  15.9371  16.3886  16.5094

          k = 0.0000 0.0000 0.0202 (  1709 PWs)   bands (ev):

   -41.2011 -39.3273 -39.2813 -39.2086 -17.4831 -17.2863 -17.2863 -15.7174
   -15.3695 -14.9804 -14.9441 -14.9441 -14.9053 -14.9053 -14.8455 -14.8455
     9.4376  10.5553  11.4793  12.0489  14.8253  15.1436  15.5511  15.5511
    15.6480  15.6480  15.8434  15.9464  15.9464  16.2256  16.4748

          k = 0.0000 0.0000 0.0405 (  1708 PWs)   bands (ev):

   -41.2011 -39.3276 -39.2807 -39.2088 -17.4830 -17.2861 -17.2861 -15.7277
   -15.3512 -14.9890 -14.9443 -14.9443 -14.9051 -14.9051 -14.8456 -14.8456
     9.6796  10.0789  11.6649  12.1176  15.1014  15.2465  15.5274  15.5274
    15.6226  15.6561  15.6561  15.9692  15.9821  15.9821  16.4117

          k = 0.0221-0.0127 0.0000 (  1719 PWs)   bands (ev):

   -41.1989 -39.3213 -39.2769 -39.2049 -17.4799 -17.3031 -17.2903 -15.7006
   -15.3795 -14.9941 -14.9780 -14.9543 -14.9235 -14.9138 -14.8797 -14.8517
     9.4884  11.1145  11.2672  12.1288  14.6549  15.0020  15.3509  15.5330
    15.7078  15.7164  15.8586  16.0421  16.0710  16.0717  16.4426

          k = 0.0221-0.0127 0.0202 (  1726 PWs)   bands (ev):

   -41.1989 -39.3215 -39.2766 -39.2050 -17.4802 -17.3032 -17.2902 -15.7069
   -15.3687 -14.9989 -14.9781 -14.9544 -14.9238 -14.9136 -14.8795 -14.8517
     9.5712  10.6776  11.6091  12.1616  14.7200  15.0688  15.3452  15.5236
    15.6619  15.7573  15.8347  15.9213  16.0243  16.0499  16.4609

          k = 0.0221-0.0127 0.0405 (  1729 PWs)   bands (ev):

   -41.1989 -39.3218 -39.2761 -39.2052 -17.4800 -17.3032 -17.2903 -15.7165
   -15.3515 -15.0069 -14.9783 -14.9546 -14.9240 -14.9134 -14.8793 -14.8519
     9.8111  10.2025  11.8014  12.2345  14.9424  15.1641  15.3244  15.4607
    15.5701  15.6386  15.7589  15.8686  16.0005  16.0905  16.4438

          k = 0.0441-0.0255 0.0000 (  1735 PWs)   bands (ev):

   -41.1926 -39.3049 -39.2636 -39.1948 -17.4715 -17.3488 -17.3011 -15.6727
   -15.3798 -15.0730 -15.0722 -14.9829 -14.9717 -14.9478 -14.9372 -14.8696
     9.8753  11.4739  11.5732  12.4352  14.4686  14.7720  14.9411  15.2674
    15.4725  15.6848  16.0126  16.0388  16.1901  16.3437  16.4226

          k = 0.0441-0.0255 0.0202 (  1734 PWs)   bands (ev):

   -41.1926 -39.3051 -39.2633 -39.1949 -17.4714 -17.3486 -17.3011 -15.6775
   -15.3710 -15.0769 -15.0723 -14.9831 -14.9709 -14.9487 -14.9370 -14.8697
     9.9540  11.0153  11.9615  12.4691  14.4278  14.8933  14.9444  15.1757
    15.3965  15.7669  15.9675  16.0678  16.0960  16.3365  16.3571

          k = 0.0441-0.0255 0.0405 (  1743 PWs)   bands (ev):

   -41.1926 -39.3054 -39.2628 -39.1951 -17.4716 -17.3488 -17.3013 -15.6848
   -15.3570 -15.0834 -15.0726 -14.9834 -14.9693 -14.9504 -14.9366 -14.8698
    10.1841  10.5517  12.1755  12.5563  14.4934  14.7819  14.9426  15.2909
    15.3144  15.7537  15.9411  15.9474  16.0346  16.3785  16.3975

          k = 0.0662-0.0382 0.0000 (  1733 PWs)   bands (ev):

   -41.1833 -39.2802 -39.2439 -39.1802 -17.4590 -17.4143 -17.3166 -15.6336
   -15.4027 -15.2048 -15.2006 -15.0861 -15.0241 -14.9714 -14.9670 -14.8966
    10.4614  11.9347  11.9510  12.8073  14.2204  14.5178  14.6091  14.6430
    15.2525  15.4774  16.0057  16.3650  16.4897  16.5122  16.5747

          k = 0.0662-0.0382 0.0202 (  1739 PWs)   bands (ev):

   -41.1833 -39.2804 -39.2437 -39.1803 -17.4591 -17.4145 -17.3166 -15.6361
   -15.3973 -15.2064 -15.2036 -15.0838 -15.0242 -14.9711 -14.9679 -14.8967
    10.5304  11.4721  12.3886  12.8410  14.1095  14.4157  14.6137  14.8098
    15.1770  15.5598  15.9904  16.3247  16.3420  16.4091  16.6817

          k = 0.0662-0.0382 0.0405 (  1739 PWs)   bands (ev):

   -41.1833 -39.2806 -39.2433 -39.1805 -17.4591 -17.4146 -17.3165 -15.6399
   -15.3883 -15.2123 -15.2051 -15.0802 -15.0245 -14.9706 -14.9693 -14.8969
    10.7330  11.0552  12.6392  12.9534  14.0327  14.1874  14.6390  14.9673
    15.2037  15.5593  15.9244  16.2636  16.2815  16.3383  16.8401

          k = 0.0882-0.0509 0.0000 (  1739 PWs)   bands (ev):

   -41.1725 -39.2510 -39.2211 -39.1642 -17.4893 -17.4451 -17.3343 -15.6037
   -15.4868 -15.3506 -15.3277 -15.1598 -15.0699 -15.0104 -14.9901 -14.9283
    11.1506  12.2040  12.2527  12.9601  13.8647  14.1875  14.3396  14.5871
    15.3745  15.4713  15.8780  16.1599  16.2420  16.8708  16.8986

          k = 0.0882-0.0509 0.0202 (  1730 PWs)   bands (ev):

   -41.1725 -39.2511 -39.2210 -39.1643 -17.4890 -17.4450 -17.3340 -15.6034
   -15.4842 -15.3510 -15.3329 -15.1568 -15.0701 -15.0099 -14.9902 -14.9285
    11.1985  11.8726  12.5921  12.9926  13.8182  13.9669  14.5113  14.6491
    15.2306  15.5242  15.9056  16.1842  16.2461  16.6594  17.1362

          k = 0.0882-0.0509 0.0405 (  1727 PWs)   bands (ev):

   -41.1725 -39.2513 -39.2207 -39.1644 -17.4889 -17.4451 -17.3338 -15.6030
   -15.4797 -15.3508 -15.3422 -15.1522 -15.0705 -15.0093 -14.9905 -14.9287
    11.3394  11.5712  12.8396  13.0974  13.7172  13.7457  14.6025  14.7900
    15.1142  15.4407  16.0315  16.2128  16.2425  16.4963  17.3762

          k = 0.1103-0.0637 0.0000 (  1733 PWs)   bands (ev):

   -41.1622 -39.2218 -39.1993 -39.1500 -17.5599 -17.4319 -17.3508 -15.6336
   -15.6141 -15.4912 -15.3800 -15.1760 -15.1127 -15.0473 -15.0190 -14.9590
    11.7728  12.2464  12.2762  12.8393  13.4174  14.0030  14.2331  14.7536
    15.8219  15.9023  15.9094  16.0145  16.0261  17.0828  17.1267

          k = 0.1103-0.0637 0.0202 (  1735 PWs)   bands (ev):

   -41.1622 -39.2219 -39.1992 -39.1500 -17.5600 -17.4319 -17.3509 -15.6335
   -15.6121 -15.4909 -15.3846 -15.1744 -15.1130 -15.0469 -15.0185 -14.9593
    11.7797  12.0447  12.5039  12.8709  13.4302  13.8377  14.3668  14.7220
    15.6355  15.8303  15.9550  16.1225  16.1772  16.7318  17.5073

          k = 0.1103-0.0637 0.0405 (  1731 PWs)   bands (ev):

   -41.1622 -39.2220 -39.1990 -39.1501 -17.5600 -17.4320 -17.3505 -15.6329
   -15.6092 -15.4898 -15.3923 -15.1720 -15.1135 -15.0461 -15.0176 -14.9595
    11.8112  11.8956  12.6708  12.9456  13.4778  13.6191  14.4969  14.6595
    15.4926  15.7376  16.0706  16.2413  16.2981  16.4460  17.8695

          k = 0.1324-0.0764 0.0000 (  1737 PWs)   bands (ev):

   -41.1542 -39.1975 -39.1821 -39.1402 -17.6149 -17.4219 -17.3639 -15.7258
   -15.7110 -15.6020 -15.3551 -15.1715 -15.1456 -15.0760 -15.0510 -14.9833
    12.0226  12.1547  12.2579  12.7626  13.0877  13.8884  14.1894  14.8801
    15.7267  15.8389  16.1770  16.4901  16.6212  17.1485  17.1914

          k = 0.1324-0.0764 0.0202 (  1737 PWs)   bands (ev):

   -41.1542 -39.1976 -39.1821 -39.1402 -17.6149 -17.4218 -17.3640 -15.7248
   -15.7119 -15.6011 -15.3570 -15.1717 -15.1460 -15.0755 -15.0500 -14.9835
    11.9935  12.0585  12.3593  12.7749  13.2063  13.8058  14.2480  14.7151
    15.7810  15.9857  16.1472  16.2939  16.7063  16.7843  17.6898

          k = 0.1324-0.0764 0.0405 (  1733 PWs)   bands (ev):

   -41.1542 -39.1976 -39.1820 -39.1402 -17.6149 -17.4219 -17.3637 -15.7218
   -15.7148 -15.5993 -15.3602 -15.1719 -15.1464 -15.0746 -15.0485 -14.9838
    11.9467  11.9869  12.4329  12.8253  13.4380  13.6563  14.3218  14.4725
    15.9201  15.9630  16.0871  16.3562  16.4684  16.7656  18.1945

          k = 0.1544-0.0891 0.0000 (  1738 PWs)   bands (ev):

   -41.1498 -39.1833 -39.1727 -39.1357 -17.6449 -17.4166 -17.3709 -15.7886
   -15.7632 -15.6626 -15.3237 -15.1661 -15.1635 -15.0917 -15.0756 -14.9965
    11.9919  12.0588  12.2548  12.8057  12.9184  13.8272  14.1890  15.0074
    15.6315  15.7536  16.3455  16.8721  17.0709  17.1549  17.1985

          k = 0.1544-0.0891 0.0202 (  1740 PWs)   bands (ev):

   -41.1498 -39.1833 -39.1727 -39.1357 -17.6450 -17.4165 -17.3710 -15.7874
   -15.7653 -15.6613 -15.3241 -15.1672 -15.1638 -15.0911 -15.0745 -14.9968
    11.9386  12.0610  12.2579  12.7355  13.1526  13.8113  14.2013  14.7166
    15.6892  16.0662  16.3073  16.5539  16.6757  17.3143  17.7462

          k = 0.1544-0.0891 0.0405 (  1748 PWs)   bands (ev):

   -41.1498 -39.1833 -39.1727 -39.1357 -17.6451 -17.4168 -17.3712 -15.7843
   -15.7698 -15.6591 -15.3250 -15.1691 -15.1643 -15.0902 -15.0728 -14.9972
    11.9023  11.9994  12.2788  12.7512  13.4742  13.7823  14.1526  14.4004
    15.8372  16.1664  16.2088  16.2997  16.7496  17.2269  18.3119

          k = 0.0221-0.0382 0.0000 (  1723 PWs)   bands (ev):

   -41.1946 -39.3102 -39.2679 -39.1980 -17.4740 -17.3335 -17.2978 -15.6817
   -15.3787 -15.0445 -15.0383 -14.9853 -14.9437 -14.9318 -14.9291 -14.8671
     9.7496  11.3618  11.4786  12.3406  14.5278  14.8416  15.0443  15.3663
    15.6175  15.7383  15.9254  15.9375  16.2059  16.2618  16.3486

          k = 0.0221-0.0382 0.0202 (  1735 PWs)   bands (ev):

   -41.1946 -39.3104 -39.2676 -39.1981 -17.4743 -17.3337 -17.2980 -15.6870
   -15.3693 -15.0485 -15.0384 -14.9853 -14.9447 -14.9313 -14.9289 -14.8673
     9.8299  10.9086  11.8527  12.3741  14.5173  14.9551  15.0513  15.2905
    15.4983  15.8148  15.8854  15.9764  16.0701  16.2539  16.3618

          k = 0.0221-0.0382 0.0405 (  1734 PWs)   bands (ev):

   -41.1946 -39.3107 -39.2671 -39.1983 -17.4744 -17.3335 -17.2979 -15.6950
   -15.3542 -15.0554 -15.0386 -14.9852 -14.9459 -14.9305 -14.9287 -14.8674
    10.0639  10.4397  12.0597  12.4562  14.6235  14.9437  15.0199  15.3263
    15.3853  15.7858  15.8544  15.9443  15.9669  16.3001  16.4027

          k = 0.0441-0.0509 0.0000 (  1736 PWs)   bands (ev):

   -41.1868 -39.2897 -39.2514 -39.1857 -17.4637 -17.3878 -17.3126 -15.6478
   -15.3884 -15.1489 -15.1477 -15.0652 -14.9906 -14.9718 -14.9507 -14.8949
    10.2397  11.7867  11.8307  12.7029  14.3190  14.6099  14.6540  14.8836
    15.2506  15.5242  16.0819  16.2798  16.3548  16.3915  16.5314

          k = 0.0441-0.0509 0.0202 (  1735 PWs)   bands (ev):

   -41.1868 -39.2898 -39.2511 -39.1858 -17.4637 -17.3878 -17.3125 -15.6511
   -15.3817 -15.1531 -15.1476 -15.0640 -14.9903 -14.9723 -14.9509 -14.8950
    10.3134  11.3144  12.2633  12.7359  14.2154  14.6158  14.6667  14.9282
    15.1909  15.6184  16.0396  16.1906  16.2551  16.3817  16.5868

          k = 0.0441-0.0509 0.0405 (  1738 PWs)   bands (ev):

   -41.1868 -39.2901 -39.2507 -39.1860 -17.4639 -17.3878 -17.3124 -15.6563
   -15.3708 -15.1597 -15.1480 -15.0622 -14.9895 -14.9734 -14.9512 -14.8952
    10.5294  10.8725  12.5068  12.8383  14.1818  14.3896  14.6790  15.0530
    15.2731  15.6499  15.8324  16.2061  16.2556  16.2883  16.6663

          k = 0.0662-0.0637 0.0000 (  1726 PWs)   bands (ev):

   -41.1768 -39.2627 -39.2302 -39.1704 -17.4559 -17.4504 -17.3306 -15.6105
   -15.4393 -15.2869 -15.2757 -15.1462 -15.0458 -15.0112 -14.9723 -14.9281
    10.8900  12.1648  12.2105  13.0188  14.0543  14.3351  14.3463  14.5057
    15.1544  15.3696  15.8945  16.0535  16.5297  16.7393  16.7813

          k = 0.0662-0.0637 0.0202 (  1730 PWs)   bands (ev):

   -41.1768 -39.2628 -39.2300 -39.1705 -17.4560 -17.4505 -17.3307 -15.6114
   -15.4358 -15.2876 -15.2799 -15.1439 -15.0456 -15.0113 -14.9723 -14.9283
    10.9492  11.7664  12.6162  13.0484  13.9702  14.1062  14.4117  14.6840
    15.0850  15.4523  15.8613  16.0849  16.4387  16.5948  16.9431

          k = 0.0662-0.0637 0.0405 (  1731 PWs)   bands (ev):

   -41.1768 -39.2630 -39.2297 -39.1706 -17.4558 -17.4506 -17.3308 -15.6127
   -15.4300 -15.2897 -15.2857 -15.1404 -15.0451 -15.0116 -14.9724 -14.9285
    11.1226  11.4039  12.9098  13.1566  13.8270  13.8810  14.4497  14.7781
    15.1524  15.4364  15.8559  16.1432  16.3279  16.4721  17.1060

          k = 0.0882-0.0764 0.0000 (  1723 PWs)   bands (ev):

   -41.1663 -39.2334 -39.2079 -39.1554 -17.5265 -17.4366 -17.3498 -15.6052
   -15.5479 -15.4283 -15.3665 -15.1805 -15.0966 -15.0540 -14.9977 -14.9623
    11.5794  12.3108  12.3849  13.0048  13.6373  14.0856  14.2830  14.5807
    15.4320  15.5179  15.8060  15.8487  16.2725  16.9804  17.0247

          k = 0.0882-0.0764 0.0202 (  1732 PWs)   bands (ev):

   -41.1663 -39.2335 -39.2077 -39.1554 -17.5266 -17.4370 -17.3500 -15.6043
   -15.5461 -15.4280 -15.3718 -15.1788 -15.0965 -15.0539 -14.9973 -14.9625
    11.6085  12.0722  12.6499  13.0317  13.6073  13.8931  14.4225  14.6286
    15.2842  15.5332  15.8220  15.9814  16.2501  16.6995  17.3186

          k = 0.0882-0.0764 0.0405 (  1735 PWs)   bands (ev):

   -41.1663 -39.2337 -39.2075 -39.1555 -17.5269 -17.4371 -17.3499 -15.6029
   -15.5430 -15.4270 -15.3809 -15.1762 -15.0962 -15.0537 -14.9965 -14.9627
    11.6962  11.8571  12.8933  13.0875  13.5462  13.6772  14.5250  14.7088
    15.1735  15.4248  15.9934  16.1167  16.1912  16.4628  17.5588

          k = 0.1103-0.0891 0.0000 (  1735 PWs)   bands (ev):

   -41.1571 -39.2065 -39.1883 -39.1435 -17.5879 -17.4254 -17.3666 -15.6680
   -15.6663 -15.5498 -15.3685 -15.1890 -15.1337 -15.0923 -15.0270 -14.9918
    12.0665  12.3107  12.3271  12.8488  13.2596  13.9624  14.2399  14.7371
    15.6332  15.9467  15.9531  16.0482  16.0981  17.1151  17.1529

          k = 0.1103-0.0891 0.0202 (  1736 PWs)   bands (ev):

   -41.1571 -39.2066 -39.1883 -39.1435 -17.5879 -17.4254 -17.3667 -15.6694
   -15.6642 -15.5489 -15.3713 -15.1888 -15.1338 -15.0919 -15.0262 -14.9920
    12.0528  12.1390  12.5265  12.8737  13.3151  13.8248  14.3362  14.6735
    15.6494  15.7496  16.0189  16.1054  16.2023  16.7756  17.5554

          k = 0.1103-0.0891 0.0405 (  1734 PWs)   bands (ev):

   -41.1571 -39.2066 -39.1882 -39.1435 -17.5879 -17.4255 -17.3666 -15.6690
   -15.6634 -15.5472 -15.3760 -15.1884 -15.1339 -15.0914 -15.0248 -14.9922
    12.0200  12.0519  12.6619  12.9337  13.4452  13.6221  14.4261  14.5639
    15.6007  15.6754  16.0672  16.2186  16.2828  16.5059  17.9599

          k = 0.1324-0.1019 0.0000 (  1735 PWs)   bands (ev):

   -41.1509 -39.1869 -39.1750 -39.1367 -17.6291 -17.4176 -17.3779 -15.7546
   -15.7334 -15.6316 -15.3336 -15.1986 -15.1481 -15.1201 -15.0541 -15.0116
    12.1071  12.1874  12.3733  12.8480  13.0220  13.8851  14.2386  14.8715
    15.5424  15.8190  16.2791  16.3125  16.4936  17.2994  17.3464

          k = 0.1324-0.1019 0.0202 (  1737 PWs)   bands (ev):

   -41.1509 -39.1869 -39.1750 -39.1367 -17.6290 -17.4178 -17.3779 -15.7535
   -15.7351 -15.6304 -15.3343 -15.1989 -15.1490 -15.1195 -15.0532 -15.0117
    12.0555  12.1607  12.4103  12.8228  13.2063  13.8276  14.2726  14.6736
    15.5931  15.9365  16.0820  16.2869  16.7081  16.9540  17.7380

          k = 0.1324-0.1019 0.0405 (  1734 PWs)   bands (ev):

   -41.1509 -39.1870 -39.1750 -39.1367 -17.6289 -17.4177 -17.3780 -15.7506
   -15.7389 -15.6283 -15.3356 -15.1993 -15.1504 -15.1186 -15.0517 -15.0120
    12.0101  12.0950  12.4549  12.8614  13.4926  13.7270  14.2696  14.4240
    15.6169  15.7818  16.2784  16.4128  16.5977  16.7915  18.2061
[...]
    11.9500  12.1051  13.1186  13.3117  13.7756  13.9047  14.7812  14.9672
    15.4194  15.6789  16.2639  16.3830  16.4961  16.7760  17.8729

          k = 0.1111-0.0898-0.0000 (  1676 PWs)   bands (ev):

   -40.8659 -38.9118 -38.8924 -38.8484 -17.3114 -17.1385 -17.0721 -15.4025
   -15.3976 -15.2831 -15.0852 -14.8988 -14.8349 -14.7919 -14.7326 -14.6904
    12.3080  12.5296  12.5552  13.0730  13.4688  14.1788  14.4649  15.0210
    15.9151  16.2272  16.2326  16.3085  16.3940  17.4359  17.4673

          k = 0.1111-0.0898 0.0202 (  1678 PWs)   bands (ev):

   -40.8659 -38.9118 -38.8923 -38.8485 -17.3115 -17.1387 -17.0721 -15.4027
   -15.3968 -15.2821 -15.0881 -14.8985 -14.8350 -14.7916 -14.7317 -14.6906
    12.2924  12.3645  12.7462  13.0956  13.5308  14.0478  14.5602  14.9436
    15.9307  16.0421  16.3045  16.3549  16.5016  17.0892  17.8757

          k = 0.1111-0.0898 0.0404 (  1683 PWs)   bands (ev):

   -40.8659 -38.9119 -38.8922 -38.8485 -17.3116 -17.1389 -17.0722 -15.4012
   -15.3973 -15.2804 -15.0929 -14.8980 -14.8352 -14.7910 -14.7303 -14.6909
    12.2516  12.2838  12.8761  13.1532  13.6717  13.8509  14.6572  14.8135
    15.8784  15.9592  16.3628  16.4997  16.5692  16.8080  18.2804

          k = 0.1334-0.1027-0.0000 (  1680 PWs)   bands (ev):

   -40.8590 -38.8906 -38.8778 -38.8406 -17.3559 -17.1305 -17.0841 -15.4958
   -15.4713 -15.3713 -15.0473 -14.9045 -14.8535 -14.8218 -14.7599 -14.7119
    12.3226  12.3975  12.5924  13.0784  13.2252  14.0970  14.4586  15.1710
    15.8286  16.0728  16.5352  16.6093  16.8029  17.6223  17.6680

          k = 0.1334-0.1027 0.0202 (  1675 PWs)   bands (ev):

   -40.8590 -38.8906 -38.8778 -38.8406 -17.3558 -17.1303 -17.0841 -15.4945
   -15.4732 -15.3700 -15.0480 -14.9049 -14.8544 -14.8211 -14.7589 -14.7121
    12.2677  12.3791  12.6230  13.0394  13.4234  14.0477  14.4925  14.9468
    15.8924  16.2142  16.3597  16.5465  17.0234  17.2706  18.0588

          k = 0.1334-0.1027 0.0404 (  1679 PWs)   bands (ev):

   -40.8590 -38.8906 -38.8777 -38.8406 -17.3558 -17.1305 -17.0841 -15.4915
   -15.4775 -15.3677 -15.0493 -14.9055 -14.8558 -14.8201 -14.7575 -14.7124
    12.2228  12.3138  12.6633  13.0732  13.7160  13.9560  14.5022  14.6692
    15.9081  16.0613  16.5585  16.7038  16.9024  17.1001  18.5254

          k = 0.1556-0.1155-0.0000 (  1666 PWs)   bands (ev):

   -40.8566 -38.8826 -38.8726 -38.8383 -17.3710 -17.1276 -17.0879 -15.5291
   -15.4995 -15.4023 -15.0277 -14.9093 -14.8566 -14.8337 -14.7717 -14.7193
    12.2914  12.3428  12.5716  13.1136  13.1426  14.0689  14.4607  15.2651
    15.8087  15.9962  16.6185  16.7070  16.9085  17.7518  17.8208

          k = 0.1556-0.1155 0.0202 (  1672 PWs)   bands (ev):

   -40.8566 -38.8826 -38.8726 -38.8383 -17.3711 -17.1276 -17.0882 -15.5278
   -15.5020 -15.4009 -15.0277 -14.9097 -14.8580 -14.8329 -14.7709 -14.7195
    12.2268  12.3617  12.5650  13.0126  13.4166  14.0565  14.4741  14.9597
    15.8485  16.2419  16.3989  16.6322  17.2398  17.3564  18.1775

          k = 0.1556-0.1155 0.0404 (  1674 PWs)   bands (ev):

   -40.8566 -38.8826 -38.8726 -38.8383 -17.3711 -17.1275 -17.0884 -15.5247
   -15.5070 -15.3985 -15.0277 -14.9104 -14.8602 -14.8317 -14.7695 -14.7199
    12.1849  12.3057  12.5803  13.0335  13.7455  14.0625  14.3836  14.6456
    15.8587  16.0598  16.6346  16.8172  17.0317  17.3154  18.5882

          k = 0.0445-0.0770-0.0000 (  1669 PWs)   bands (ev):

   -40.8892 -38.9770 -38.9418 -38.8815 -17.1681 -17.1537 -17.0349 -15.3363
   -15.1376 -14.9685 -14.9611 -14.8566 -14.7216 -14.7146 -14.6679 -14.6332
    11.0619  12.4067  12.4633  13.3271  14.3526  14.4943  14.6607  14.7602
    15.2597  15.5484  16.1714  16.2638  16.9264  16.9502  17.0420

          k = 0.0445-0.0770 0.0202 (  1668 PWs)   bands (ev):

   -40.8892 -38.9772 -38.9416 -38.8816 -17.1682 -17.1535 -17.0349 -15.3377
   -15.1336 -14.9699 -14.9641 -14.8548 -14.7211 -14.7150 -14.6678 -14.6334
    11.1246  11.9891  12.8943  13.3531  14.2518  14.4203  14.5264  14.9526
    15.2505  15.6528  16.1284  16.2303  16.8142  16.9245  17.0984

          k = 0.0445-0.0770 0.0404 (  1658 PWs)   bands (ev):

   -40.8892 -38.9774 -38.9413 -38.8817 -17.1679 -17.1534 -17.0346 -15.3399
   -15.1267 -14.9745 -14.9669 -14.8521 -14.7200 -14.7160 -14.6674 -14.6336
    11.3076  11.6065  13.2297  13.4492  14.1018  14.1681  14.5488  14.9653
    15.4805  15.7540  15.8903  16.3353  16.6899  16.7822  17.2767

          k = 0.0667-0.0898-0.0000 (  1664 PWs)   bands (ev):

   -40.8784 -38.9477 -38.9190 -38.8654 -17.2185 -17.1541 -17.0606 -15.3142
   -15.2186 -15.1081 -15.0588 -14.9011 -14.7788 -14.7719 -14.6903 -14.6843
    11.7562  12.6435  12.7841  13.5675  14.0205  14.2859  14.4274  14.7818
    15.2107  15.4548  15.9504  16.0420  16.7661  17.1739  17.2319

          k = 0.0667-0.0898 0.0202 (  1669 PWs)   bands (ev):

   -40.8784 -38.9478 -38.9188 -38.8654 -17.2186 -17.1543 -17.0608 -15.3134
   -15.2169 -15.1073 -15.0640 -14.9001 -14.7781 -14.7721 -14.6898 -14.6845
    11.7971  12.3902  13.0645  13.5936  13.9451  14.2520  14.3556  14.8209
    15.2289  15.5488  15.9025  16.1172  16.6752  16.9175  17.4026

          k = 0.0667-0.0898 0.0404 (  1667 PWs)   bands (ev):

   -40.8784 -38.9479 -38.9186 -38.8655 -17.2186 -17.1543 -17.0607 -15.3122
   -15.2141 -15.1049 -15.0733 -14.8986 -14.7764 -14.7728 -14.6889 -14.6848
    11.9142  12.1334  13.3873  13.6271  13.7833  14.0944  14.3853  14.7743
    15.3993  15.5691  15.9201  16.2176  16.5193  16.7097  17.5430

          k = 0.0889-0.1027-0.0000 (  1673 PWs)   bands (ev):

   -40.8681 -38.9183 -38.8970 -38.8511 -17.2796 -17.1410 -17.0865 -15.3483
   -15.3300 -15.2304 -15.0867 -14.9247 -14.8305 -14.8287 -14.7277 -14.7171
    12.4126  12.7220  12.8176  13.3910  13.6746  14.3124  14.4375  14.8307
    15.5553  15.6480  15.7514  16.1334  16.4771  17.2159  17.2590

          k = 0.0889-0.1027 0.0202 (  1674 PWs)   bands (ev):

   -40.8681 -38.9183 -38.8969 -38.8512 -17.2795 -17.1412 -17.0865 -15.3486
   -15.3287 -15.2290 -15.0901 -14.9249 -14.8304 -14.8283 -14.7279 -14.7162
    12.4094  12.5895  12.9970  13.4100  13.6623  14.1485  14.5324  14.8809
    15.4568  15.6459  15.8518  16.1884  16.4235  16.8890  17.6420

          k = 0.0889-0.1027 0.0404 (  1672 PWs)   bands (ev):

   -40.8681 -38.9184 -38.8968 -38.8512 -17.2797 -17.1412 -17.0862 -15.3487
   -15.3273 -15.2264 -15.0958 -14.9253 -14.8296 -14.8283 -14.7280 -14.7148
    12.4060  12.4942  13.2101  13.4005  13.6566  13.9660  14.6291  14.8829
    15.4429  15.5740  16.0270  16.2007  16.4103  16.6320  17.9489

          k = 0.1111-0.1155-0.0000 (  1673 PWs)   bands (ev):

   -40.8600 -38.8937 -38.8798 -38.8415 -17.3265 -17.1311 -17.1064 -15.4299
   -15.4156 -15.3185 -15.0568 -14.9537 -14.8740 -14.8561 -14.7569 -14.7461
    12.6031  12.6954  12.8982  13.2423  13.4285  14.2287  14.5631  14.8965
    15.6211  15.8955  15.9753  16.2631  16.4361  17.3813  17.4042

          k = 0.1111-0.1155 0.0202 (  1678 PWs)   bands (ev):

   -40.8600 -38.8937 -38.8798 -38.8415 -17.3267 -17.1312 -17.1065 -15.4294
   -15.4169 -15.3172 -15.0575 -14.9539 -14.8740 -14.8567 -14.7571 -14.7451
    12.5509  12.6496  12.9872  13.2438  13.5455  14.0975  14.6191  14.8594
    15.6111  15.7283  16.1138  16.2709  16.4929  17.1114  17.7755

          k = 0.1111-0.1155 0.0404 (  1678 PWs)   bands (ev):

   -40.8600 -38.8938 -38.8797 -38.8415 -17.3267 -17.1312 -17.1065 -15.4273
   -15.4202 -15.3148 -15.0588 -14.9543 -14.8740 -14.8578 -14.7572 -14.7436
    12.4937  12.5913  13.0910  13.2897  13.7387  13.9112  14.6330  14.7714
    15.5676  15.6796  16.1608  16.3037  16.6435  16.8710  18.2284

          k = 0.1334-0.1283-0.0000 (  1673 PWs)   bands (ev):

   -40.8555 -38.8791 -38.8704 -38.8373 -17.3520 -17.1258 -17.1175 -15.4868
   -15.4598 -15.3654 -15.0255 -14.9758 -14.9001 -14.8646 -14.7701 -14.7676
    12.5699  12.5977  12.8977  13.3005  13.3090  14.1912  14.6015  15.0279
    15.5770  15.9793  15.9910  16.2817  16.6506  17.6537  17.7041

          k = 0.1334-0.1283 0.0202 (  1676 PWs)   bands (ev):

   -40.8555 -38.8791 -38.8703 -38.8373 -17.3520 -17.1259 -17.1174 -15.4858
   -15.4621 -15.3640 -15.0249 -14.9757 -14.8996 -14.8663 -14.7707 -14.7667
    12.4853  12.6221  12.9073  13.2366  13.5605  14.1217  14.6388  14.8577
    15.5122  15.7800  16.1360  16.4904  16.7157  17.3935  17.9748

          k = 0.1334-0.1283 0.0404 (  1674 PWs)   bands (ev):

   -40.8555 -38.8791 -38.8703 -38.8373 -17.3520 -17.1257 -17.1175 -15.4834
   -15.4666 -15.3618 -15.0240 -14.9756 -14.8989 -14.8689 -14.7709 -14.7657
    12.4270  12.5743  12.9411  13.2973  13.8620  14.0617  14.4940  14.6752
    15.4405  15.6337  16.3771  16.6069  16.8692  17.1014  18.3808

          k = 0.0667-0.1155-0.0000 (  1661 PWs)   bands (ev):

   -40.8688 -38.9206 -38.8987 -38.8521 -17.2642 -17.1420 -17.0948 -15.3274
   -15.2913 -15.2130 -15.0826 -14.9380 -14.8492 -14.8238 -14.7541 -14.7125
    12.4566  12.8121  12.9908  13.7516  13.8807  13.9684  14.4679  14.9318
    15.1212  15.3313  15.6730  16.0703  16.5424  17.0925  17.1490

          k = 0.0667-0.1155 0.0202 (  1660 PWs)   bands (ev):

   -40.8688 -38.9206 -38.8986 -38.8521 -17.2642 -17.1419 -17.0949 -15.3273
   -15.2909 -15.2107 -15.0860 -14.9389 -14.8498 -14.8222 -14.7544 -14.7115
    12.4673  12.7260  13.0958  13.6687  13.9287  14.0267  14.4081  14.7722
    15.2886  15.4127  15.6953  16.0847  16.4433  16.7519  17.5405

          k = 0.0667-0.1155 0.0404 (  1676 PWs)   bands (ev):

   -40.8688 -38.9207 -38.8984 -38.8522 -17.2646 -17.1423 -17.0953 -15.3270
   -15.2906 -15.2065 -15.0920 -14.9405 -14.8507 -14.8199 -14.7550 -14.7101
    12.4939  12.6316  13.2295  13.5616  13.9788  14.1287  14.3042  14.6216
    15.4329  15.5427  15.7975  16.0620  16.3109  16.4886  17.7793

          k = 0.0889-0.1283-0.0000 (  1662 PWs)   bands (ev):

   -40.8605 -38.8954 -38.8809 -38.8419 -17.3000 -17.1313 -17.1288 -15.3667
   -15.3633 -15.2843 -15.0632 -14.9928 -14.9194 -14.8706 -14.7940 -14.7400
    12.8890  12.9911  13.1012  13.5950  13.6386  14.2524  14.4288  14.9006
    15.3313  15.3965  15.5098  16.2829  16.3166  17.0796  17.0950

          k = 0.0889-0.1283 0.0202 (  1670 PWs)   bands (ev):

   -40.8605 -38.8954 -38.8809 -38.8420 -17.3002 -17.1316 -17.1290 -15.3688
   -15.3627 -15.2818 -15.0637 -14.9937 -14.9201 -14.8702 -14.7945 -14.7390
    12.8690  12.9648  13.1465  13.5933  13.6696  14.2369  14.3798  14.9523
    15.2428  15.4600  15.5951  16.1807  16.3478  16.7540  17.5366

          k = 0.0889-0.1283 0.0404 (  1668 PWs)   bands (ev):

   -40.8605 -38.8955 -38.8808 -38.8420 -17.3003 -17.1315 -17.1289 -15.3707
   -15.3632 -15.2777 -15.0643 -14.9952 -14.9213 -14.8695 -14.7952 -14.7375
    12.8420  12.9366  13.2034  13.5971  13.7160  14.1287  14.4724  14.8039
    15.3916  15.4890  15.6931  15.9982  16.4077  16.5480  17.9982

          k = 0.1111-0.1412-0.0000 (  1676 PWs)   bands (ev):

   -40.8548 -38.8767 -38.8688 -38.8366 -17.3227 -17.1539 -17.1245 -15.4187
   -15.4003 -15.3166 -15.0485 -15.0450 -14.9563 -14.9108 -14.8029 -14.7671
    12.9078  12.9311  13.3814  13.5306  13.5423  14.3647  14.5795  14.7760
    15.3613  15.4481  15.5948  16.0696  16.6306  17.2841  17.2847

          k = 0.1111-0.1412 0.0202 (  1678 PWs)   bands (ev):

   -40.8548 -38.8767 -38.8688 -38.8366 -17.3226 -17.1539 -17.1247 -15.4185
   -15.4024 -15.3150 -15.0488 -15.0435 -14.9563 -14.9114 -14.8041 -14.7664
    12.8310  12.9682  13.4001  13.5115  13.6980  14.2103  14.5512  14.9325
    15.1028  15.4614  15.7520  16.0458  16.6599  17.0530  17.6420

          k = 0.1111-0.1412 0.0404 (  1668 PWs)   bands (ev):

   -40.8548 -38.8767 -38.8688 -38.8366 -17.3224 -17.1537 -17.1243 -15.4174
   -15.4063 -15.3123 -15.0483 -15.0419 -14.9564 -14.9123 -14.8057 -14.7655
    12.7744  12.9564  13.4747  13.5516  13.8861  14.0279  14.5291  14.7376
    15.2142  15.4194  15.8228  16.0360  16.7471  16.8871  18.1230

          k = 0.1334-0.1540-0.0000 (  1665 PWs)   bands (ev):

   -40.8528 -38.8695 -38.8645 -38.8353 -17.3297 -17.1630 -17.1218 -15.4391
   -15.4125 -15.3245 -15.0721 -15.0454 -14.9588 -14.9259 -14.8035 -14.7797
    12.8680  12.9432  13.3446  13.5120  13.6179  14.3471  14.6696  14.7973
    15.3115  15.4433  15.6864  15.9581  16.7597  17.4415  17.4616

          k = 0.1334-0.1540 0.0202 (  1672 PWs)   bands (ev):

   -40.8528 -38.8695 -38.8645 -38.8353 -17.3297 -17.1630 -17.1222 -15.4385
   -15.4149 -15.3234 -15.0715 -15.0445 -14.9578 -14.9266 -14.8052 -14.7794
    12.7956  12.9630  13.3623  13.5545  13.7649  14.2196  14.6175  14.8879
    15.0228  15.4559  15.8352  16.0170  16.7962  17.2443  17.7457

          k = 0.1334-0.1540 0.0404 (  1665 PWs)   bands (ev):

   -40.8528 -38.8695 -38.8645 -38.8353 -17.3297 -17.1628 -17.1219 -15.4371
   -15.4193 -15.3216 -15.0704 -15.0430 -14.9558 -14.9281 -14.8073 -14.7791
    12.7307  12.9441  13.4094  13.6702  14.0389  14.1104  14.3966  14.6203
    15.1527  15.3635  15.9328  16.1173  16.9025  17.0620  18.1805

          k = 0.0889-0.1540-0.0000 (  1669 PWs)   bands (ev):

   -40.8545 -38.8759 -38.8683 -38.8363 -17.3050 -17.1738 -17.1239 -15.3720
   -15.3660 -15.3015 -15.0790 -15.0706 -14.9708 -14.9490 -14.8090 -14.7672
    13.0617  13.1355  13.5622  13.6455  13.9593  14.1314  14.5016  14.7154
    15.2230  15.3381  15.3389  16.0693  16.5902  17.0610  17.0941

          k = 0.0889-0.1540 0.0202 (  1667 PWs)   bands (ev):

   -40.8545 -38.8759 -38.8683 -38.8363 -17.3049 -17.1736 -17.1240 -15.3727
   -15.3683 -15.2986 -15.0795 -15.0693 -14.9708 -14.9487 -14.8106 -14.7665
    13.0551  13.1635  13.5090  13.6700  13.9600  14.1885  14.3778  14.8560
    15.0339  15.3645  15.4855  16.0000  16.5825  16.8151  17.4941

          k = 0.0889-0.1540 0.0404 (  1665 PWs)   bands (ev):

   -40.8545 -38.8759 -38.8682 -38.8363 -17.3047 -17.1739 -17.1238 -15.3736
   -15.3717 -15.2944 -15.0798 -15.0674 -14.9709 -14.9485 -14.8129 -14.7657
    13.0478  13.2239  13.4164  13.7044  13.9615  14.2228  14.3863  14.6731
    15.1938  15.4032  15.5051  15.9001  16.5661  16.7019  18.0092

          k = 0.1111-0.1668-0.0000 (  1662 PWs)   bands (ev):

   -40.8513 -38.8639 -38.8613 -38.8345 -17.2985 -17.2068 -17.1198 -15.3696
   -15.3506 -15.2841 -15.1513 -15.1237 -15.0093 -14.9579 -14.8084 -14.7888
    13.0686  13.3305  13.7519  13.7628  13.9170  14.4106  14.4334  14.4519
    15.1685  15.3293  15.3585  15.9098  16.8200  17.1769  17.2127

          k = 0.1111-0.1668 0.0202 (  1667 PWs)   bands (ev):

   -40.8513 -38.8639 -38.8614 -38.8345 -17.2988 -17.2071 -17.1197 -15.3699
   -15.3533 -15.2830 -15.1500 -15.1230 -15.0095 -14.9556 -14.8107 -14.7890
    13.0619  13.3380  13.7518  13.7986  13.9619  14.3108  14.3795  14.4842
    15.1366  15.3124  15.4531  15.8776  16.8178  16.9939  17.5454

          k = 0.1111-0.1668 0.0404 (  1664 PWs)   bands (ev):

   -40.8513 -38.8639 -38.8614 -38.8345 -17.2987 -17.2070 -17.1195 -15.3701
   -15.3575 -15.2815 -15.1476 -15.1220 -15.0099 -14.9519 -14.8141 -14.7895
    13.0517  13.3503  13.7735  13.8397  14.0751  14.2097  14.3096  14.3890
    15.1774  15.3040  15.5153  15.8296  16.8147  16.9087  18.0303

          k = 0.1111-0.1925-0.0000 (  1665 PWs)   bands (ev):

   -40.8500 -38.8588 -38.8587 -38.8344 -17.2622 -17.2536 -17.1185 -15.3024
   -15.3022 -15.2920 -15.1970 -15.1915 -15.0681 -14.9468 -14.8082 -14.7993
    13.1286  13.6702  13.9229  13.9413  14.0058  14.1559  14.3071  14.3453
    15.1380  15.2455  15.4047  15.8506  16.9046  17.1336  17.1930

          k = 0.1111-0.1925 0.0202 (  1653 PWs)   bands (ev):

   -40.8500 -38.8588 -38.8587 -38.8344 -17.2621 -17.2536 -17.1177 -15.3059
   -15.3032 -15.2926 -15.1925 -15.1903 -15.0686 -14.9433 -14.8104 -14.8001
    13.1543  13.6864  13.8766  13.8865  14.0593  14.1393  14.3131  14.3520
    15.1353  15.2407  15.4189  15.8208  16.8782  16.9881  17.5118

          k = 0.1111-0.1925 0.0404 (  1656 PWs)   bands (ev):

   -40.8500 -38.8588 -38.8587 -38.8344 -17.2620 -17.2536 -17.1179 -15.3112
   -15.3048 -15.2936 -15.1885 -15.1858 -15.0694 -14.9378 -14.8146 -14.8016
    13.2034  13.7157  13.7954  13.8350  14.1090  14.1122  14.3287  14.3525
    15.1306  15.2333  15.4477  15.7663  16.8402  16.9371  17.9951

     the Fermi energy is    15.9104 ev

!    total energy              =    -470.46662511 Ry
     Harris-Foulkes estimate   =    -470.46662511 Ry
     estimated scf accuracy    <          1.3E-13 Ry

     The total energy is the sum of the following terms:

     one-electron contribution =    -103.72700459 Ry
     hartree contribution      =      73.77162824 Ry
     xc contribution           =     -69.60426964 Ry
     ewald contribution        =    -370.60976641 Ry
     smearing contrib. (-TS)   =      -0.29721270 Ry

     convergence has been achieved in  44 iterations

     Forces acting on atoms (Ry/au):

     atom    1 type  2   force =     0.00000000   -0.00000000   -0.00000000
     atom    2 type  1   force =    -0.00000000    0.00000000   -0.00001406
     atom    3 type  1   force =     0.00000000   -0.00000000   -0.00000000
     atom    4 type  1   force =     0.00000000    0.00000000    0.00001406

     Total force =     0.000020     Total SCF correction =     0.000000


     entering subroutine stress ...

          total   stress  (Ry/bohr**3)                   (kbar)     P=   -1.25
  -0.00000958  -0.00000000  -0.00000000         -1.41     -0.00     -0.00
  -0.00000000  -0.00000958  -0.00000000         -0.00     -1.41     -0.00
  -0.00000000  -0.00000000  -0.00000642         -0.00     -0.00     -0.94


     init_run     :      5.02s CPU      5.14s WALL (       2 calls)
     electrons    :   1139.03s CPU   1173.10s WALL (      13 calls)
     update_pot   :     10.83s CPU     10.85s WALL (      11 calls)
     forces       :     14.46s CPU     14.77s WALL (      13 calls)
     stress       :     27.96s CPU     28.74s WALL (      13 calls)

     Called by init_run:
     wfcinit      :      3.44s CPU      3.52s WALL (       2 calls)
     potinit      :      0.45s CPU      0.46s WALL (       2 calls)

     Called by electrons:
     c_bands      :   1010.66s CPU   1032.96s WALL (     230 calls)
     sum_band     :    103.79s CPU    111.45s WALL (     230 calls)
     v_of_rho     :      5.51s CPU      5.63s WALL (     237 calls)
     newd         :     19.33s CPU     23.50s WALL (     237 calls)
     mix_rho      :      0.48s CPU      0.52s WALL (     230 calls)

     Called by c_bands:
     init_us_2    :      9.19s CPU      9.33s WALL (   39528 calls)
     cegterg      :    987.32s CPU   1009.48s WALL (   18630 calls)

     Called by sum_band:
     sum_band:bec :      1.12s CPU      1.17s WALL (   18630 calls)
     addusdens    :     15.11s CPU     19.38s WALL (     230 calls)

     Called by *egterg:
     h_psi        :    451.16s CPU    468.33s WALL (  103229 calls)
     s_psi        :     59.30s CPU     60.31s WALL (  103229 calls)
     g_psi        :      1.32s CPU      1.33s WALL (   84437 calls)
     cdiaghg      :    235.54s CPU    237.41s WALL (  101690 calls)

     Called by h_psi:
     h_psi:pot    :    448.33s CPU    465.45s WALL (  103229 calls)
     h_psi:calbec :     80.00s CPU     83.64s WALL (  103229 calls)
     vloc_psi     :    308.95s CPU    320.56s WALL (  103229 calls)
     add_vuspsi   :     59.08s CPU     60.97s WALL (  103229 calls)

     General routines
     calbec       :    111.10s CPU    115.89s WALL (  127124 calls)
     fft          :      2.53s CPU      2.60s WALL (    4100 calls)
     ffts         :      0.07s CPU      0.07s WALL (     467 calls)
     fftw         :    314.64s CPU    326.53s WALL ( 3777162 calls)
     interpolate  :      0.47s CPU      0.48s WALL (     467 calls)

     Parallel routines
     fft_scatter  :     69.23s CPU     72.14s WALL ( 3781729 calls)

     PWSCF        : 19m58.36s CPU    20m33.85s WALL


   This run was terminated on:  17: 6:53   7Mar2018            

=------------------------------------------------------------------------------=
   JOB DONE.
=------------------------------------------------------------------------------=
