
     Program PWSCF v.6.3MaX starts on 18Feb2020 at  9:42:20 

     This program is part of the open-source Quantum ESPRESSO suite
     for quantum simulation of materials; please cite
         "P. Giannozzi et al., J. Phys.:Condens. Matter 21 395502 (2009);
         "P. Giannozzi et al., J. Phys.:Condens. Matter 29 465901 (2017);
          URL http://www.quantum-espresso.org", 
     in publications or presentations arising from this work. More details at
     http://www.quantum-espresso.org/quote

     Parallel version (MPI), running on     4 processors

     MPI processes distributed on     1 nodes
     R & G space division:  proc/nbgrp/npool/nimage =       4
     Waiting for input...
     Reading input from standard input

     Current dimensions of program PWSCF are:
     Max number of different atomic species (ntypx) = 10
     Max number of k-points (npk) =  40000
     Max angular momentum in pseudopotentials (lmaxx) =  3
     Message from routine iosys:
     minimal I/O required, wf_collect reset to FALSE

     Subspace diagonalization in iterative solution of the eigenvalue problem:
     a serial algorithm will be used

 
     Parallelization info
     --------------------
     sticks:   dense  smooth     PW     G-vecs:    dense   smooth      PW
     Min         487     195     64                27318     6914    1354
     Max         488     196     66                27322     6917    1355
     Sum        1949     781    259               109279    27659    5417
 


     bravais-lattice index     =            0
     lattice parameter (alat)  =       1.8897  a.u.
     unit-cell volume          =     808.3427 (a.u.)^3
     number of atoms/cell      =            6
     number of atomic types    =            2
     number of electrons       =        74.00
     number of Kohn-Sham states=           44
     kinetic-energy cutoff     =      40.0000  Ry
     charge density cutoff     =     400.0000  Ry
     convergence threshold     =      1.0E-10
     mixing beta               =       0.6000
     number of iterations used =            8  plain     mixing
     Exchange-correlation      = SLA PW PBE PBE ( 1  4  3  4 0 0)
     nstep                     =           50


     celldm(1)=   1.889726  celldm(2)=   0.000000  celldm(3)=   0.000000
     celldm(4)=   0.000000  celldm(5)=   0.000000  celldm(6)=   0.000000

     crystal axes: (cart. coord. in units of alat)
               a(1) = (  -3.045004   0.000000   4.972461 )  
               a(2) = (  -1.522502   2.637051   4.972461 )  
               a(3) = (  -4.567506   2.637051  -4.972461 )  

     reciprocal axes: (cart. coord. in units 2 pi/alat)
               b(1) = ( -0.218938 -0.252808  0.067036 )  
               b(2) = (  0.109469  0.316010  0.067036 )  
               b(3) = ( -0.109469  0.063202 -0.067036 )  


     PseudoPot. # 1 for Nb read from file:
     ./Nb.pbe-nsp-van.UPF
     MD5 check sum: 0a22fc7fb0ba19a08ca5db297a5d2854
     Pseudo is Ultrasoft + core correction, Zval = 13.0
     Generated by new atomic code, or converted to UPF format
     Using radial grid of  887 points,  6 beta functions with: 
                l(1) =   0
                l(2) =   0
                l(3) =   1
                l(4) =   1
                l(5) =   2
                l(6) =   2
     Q(r) pseudized with  6 coefficients,  rinner =    1.000   1.000   1.000
                                                       1.000   1.000

     PseudoPot. # 2 for Ti read from file:
     ./Ti.pbe-sp-van_ak.UPF
     MD5 check sum: f98fea3e8887528921fefa5636a534ca
     Pseudo is Ultrasoft, Zval = 12.0
     Generated by new atomic code, or converted to UPF format
     Using radial grid of  851 points,  6 beta functions with: 
                l(1) =   0
                l(2) =   0
                l(3) =   1
                l(4) =   1
                l(5) =   2
                l(6) =   2
     Q(r) pseudized with  8 coefficients,  rinner =    1.000   1.000   1.000
                                                       1.000   1.000

     atomic species   valence    mass     pseudopotential
        Nb            13.00    92.90638     Nb( 1.00)
        Ti            12.00    47.86700     Ti( 1.00)

      2 Sym. Ops. (no inversion) found



   Cartesian axes

     site n.     atom                  positions (alat units)
         1           Ti  tau(   1) = (  -4.5675063   2.6370512   0.0000000  )
         2           Ti  tau(   2) = (  -6.0900069   3.5160674   2.4862307  )
         3           Nb  tau(   3) = (  -4.5675063   2.6370512   4.9724614  )
         4           Ti  tau(   4) = (  -6.0900069   3.5160674   7.4586921  )
         5           Ti  tau(   5) = (  -9.1350127   5.2741024   4.9724614  )
         6           Nb  tau(   6) = (  -1.5225006   0.8790162   2.4862307  )

     number of k points=   398  Marzari-Vanderbilt smearing, width (Ry)=  0.0200

     Number of k-points >= 100: set verbosity='high' to print them.

     Dense  grid:   109279 G-vectors     FFT dimensions: (  72,  72,  90)

     Smooth grid:    27659 G-vectors     FFT dimensions: (  45,  45,  60)

     Estimated max dynamical RAM per process >     339.22 MB

     Estimated total dynamical RAM >       1.33 GB

     Initial potential from superposition of free atoms

     starting charge   69.99436, renormalised to   74.00000
     Starting wfcs are   66 randomized atomic wfcs

     total cpu time spent up to now is       27.9 secs

     Self-consistent Calculation

     iteration #  1     ecut=    40.00 Ry     beta= 0.60
     Davidson diagonalization with overlap
     ethr =  1.00E-02,  avg # of iterations =  3.5

     total cpu time spent up to now is       91.6 secs

     total energy              =    -677.20030387 Ry
     Harris-Foulkes estimate   =    -706.19665722 Ry
     estimated scf accuracy    <      35.99676929 Ry

     iteration #  2     ecut=    40.00 Ry     beta= 0.60
     Davidson diagonalization with overlap
     ethr =  1.00E-02,  avg # of iterations =  7.7

     total cpu time spent up to now is      204.8 secs

     total energy              =    -669.46220791 Ry
     Harris-Foulkes estimate   =    -759.55101526 Ry
     estimated scf accuracy    <     349.43549054 Ry

     iteration #  3     ecut=    40.00 Ry     beta= 0.60
     Davidson diagonalization with overlap
     ethr =  1.00E-02,  avg # of iterations =  6.0

     total cpu time spent up to now is      302.1 secs

     total energy              =    -702.61931059 Ry
     Harris-Foulkes estimate   =    -704.98880772 Ry
     estimated scf accuracy    <      21.90758664 Ry

     iteration #  4     ecut=    40.00 Ry     beta= 0.60
     Davidson diagonalization with overlap
     ethr =  1.00E-02,  avg # of iterations =  3.8

     total cpu time spent up to now is      355.8 secs

     total energy              =    -701.24016030 Ry
     Harris-Foulkes estimate   =    -703.64218297 Ry
     estimated scf accuracy    <      19.31086291 Ry

     iteration #  5     ecut=    40.00 Ry     beta= 0.60
     Davidson diagonalization with overlap
     ethr =  1.00E-02,  avg # of iterations =  3.1

     total cpu time spent up to now is      408.8 secs

     total energy              =    -702.35207296 Ry
     Harris-Foulkes estimate   =    -702.48458810 Ry
     estimated scf accuracy    <       4.42681367 Ry

     iteration #  6     ecut=    40.00 Ry     beta= 0.60
     Davidson diagonalization with overlap
     ethr =  5.98E-03,  avg # of iterations =  1.7

     total cpu time spent up to now is      454.9 secs

     total energy              =    -702.24685411 Ry
     Harris-Foulkes estimate   =    -702.42484084 Ry
     estimated scf accuracy    <       3.08058812 Ry

     iteration #  7     ecut=    40.00 Ry     beta= 0.60
     Davidson diagonalization with overlap
     ethr =  4.16E-03,  avg # of iterations =  1.7

     total cpu time spent up to now is      501.2 secs

     total energy              =    -702.15518629 Ry
     Harris-Foulkes estimate   =    -702.32284562 Ry
     estimated scf accuracy    <       1.70920172 Ry

     iteration #  8     ecut=    40.00 Ry     beta= 0.60
     Davidson diagonalization with overlap
     ethr =  2.31E-03,  avg # of iterations =  5.7

     total cpu time spent up to now is      570.2 secs

     total energy              =    -702.35984046 Ry
     Harris-Foulkes estimate   =    -702.52961625 Ry
     estimated scf accuracy    <       2.75497305 Ry

     iteration #  9     ecut=    40.00 Ry     beta= 0.60
     Davidson diagonalization with overlap
     ethr =  2.31E-03,  avg # of iterations =  1.8

     total cpu time spent up to now is      616.3 secs

     total energy              =    -702.45603021 Ry
     Harris-Foulkes estimate   =    -702.46783615 Ry
     estimated scf accuracy    <       2.07574768 Ry

     iteration # 10     ecut=    40.00 Ry     beta= 0.60
     Davidson diagonalization with overlap
     ethr =  2.31E-03,  avg # of iterations =  1.0

     total cpu time spent up to now is      660.7 secs

     total energy              =    -702.42565662 Ry
     Harris-Foulkes estimate   =    -702.46467316 Ry
     estimated scf accuracy    <       1.95436209 Ry

     iteration # 11     ecut=    40.00 Ry     beta= 0.60
     Davidson diagonalization with overlap
     ethr =  2.31E-03,  avg # of iterations =  1.0

     total cpu time spent up to now is      704.7 secs

     total energy              =    -702.28805081 Ry
     Harris-Foulkes estimate   =    -702.43329230 Ry
     estimated scf accuracy    <       1.45762316 Ry

     iteration # 12     ecut=    40.00 Ry     beta= 0.60
     Davidson diagonalization with overlap
     ethr =  1.97E-03,  avg # of iterations =  1.2

     total cpu time spent up to now is      749.3 secs

     total energy              =    -702.34181176 Ry
     Harris-Foulkes estimate   =    -702.35430575 Ry
     estimated scf accuracy    <       0.09089458 Ry

     iteration # 13     ecut=    40.00 Ry     beta= 0.60
     Davidson diagonalization with overlap
     ethr =  1.23E-04,  avg # of iterations =  6.5

     total cpu time spent up to now is      836.3 secs

     total energy              =    -702.40064182 Ry
     Harris-Foulkes estimate   =    -702.40304025 Ry
     estimated scf accuracy    <       0.32677842 Ry

     iteration # 14     ecut=    40.00 Ry     beta= 0.60
     Davidson diagonalization with overlap
     ethr =  1.23E-04,  avg # of iterations =  1.0

     total cpu time spent up to now is      880.2 secs

     total energy              =    -702.37750475 Ry
     Harris-Foulkes estimate   =    -702.40313161 Ry
     estimated scf accuracy    <       0.34857137 Ry

     iteration # 15     ecut=    40.00 Ry     beta= 0.60
     Davidson diagonalization with overlap
     ethr =  1.23E-04,  avg # of iterations =  1.0

     total cpu time spent up to now is      924.3 secs

     total energy              =    -702.37547106 Ry
     Harris-Foulkes estimate   =    -702.38298222 Ry
     estimated scf accuracy    <       0.12134519 Ry

     iteration # 16     ecut=    40.00 Ry     beta= 0.60
     Davidson diagonalization with overlap
     ethr =  1.23E-04,  avg # of iterations =  3.5

     total cpu time spent up to now is      975.7 secs

     total energy              =    -702.37943452 Ry
     Harris-Foulkes estimate   =    -702.38014507 Ry
     estimated scf accuracy    <       0.01745319 Ry

     iteration # 17     ecut=    40.00 Ry     beta= 0.60
     Davidson diagonalization with overlap
     ethr =  2.36E-05,  avg # of iterations =  6.0

     total cpu time spent up to now is     1047.5 secs

     total energy              =    -702.38169993 Ry
     Harris-Foulkes estimate   =    -702.38216498 Ry
     estimated scf accuracy    <       0.00144680 Ry

     iteration # 18     ecut=    40.00 Ry     beta= 0.60
     Davidson diagonalization with overlap
     ethr =  1.96E-06,  avg # of iterations =  6.9

     total cpu time spent up to now is     1131.3 secs

     total energy              =    -702.38188072 Ry
     Harris-Foulkes estimate   =    -702.38240475 Ry
     estimated scf accuracy    <       0.00646475 Ry

     iteration # 19     ecut=    40.00 Ry     beta= 0.60
     Davidson diagonalization with overlap
     ethr =  1.96E-06,  avg # of iterations =  3.5

     total cpu time spent up to now is     1182.3 secs

     total energy              =    -702.38191486 Ry
     Harris-Foulkes estimate   =    -702.38207236 Ry
     estimated scf accuracy    <       0.00216966 Ry

     iteration # 20     ecut=    40.00 Ry     beta= 0.60
     Davidson diagonalization with overlap
     ethr =  1.96E-06,  avg # of iterations =  3.6

     total cpu time spent up to now is     1235.2 secs

     total energy              =    -702.38199922 Ry
     Harris-Foulkes estimate   =    -702.38203433 Ry
     estimated scf accuracy    <       0.00064873 Ry

     iteration # 21     ecut=    40.00 Ry     beta= 0.60
     Davidson diagonalization with overlap
     ethr =  8.77E-07,  avg # of iterations =  1.3

     total cpu time spent up to now is     1279.4 secs

     total energy              =    -702.38197907 Ry
     Harris-Foulkes estimate   =    -702.38201428 Ry
     estimated scf accuracy    <       0.00039765 Ry

     iteration # 22     ecut=    40.00 Ry     beta= 0.60
     Davidson diagonalization with overlap
     ethr =  5.37E-07,  avg # of iterations =  3.6

     total cpu time spent up to now is     1331.3 secs

     total energy              =    -702.38200141 Ry
     Harris-Foulkes estimate   =    -702.38200365 Ry
     estimated scf accuracy    <       0.00002019 Ry

     iteration # 23     ecut=    40.00 Ry     beta= 0.60
     Davidson diagonalization with overlap
     ethr =  2.73E-08,  avg # of iterations =  5.9

     total cpu time spent up to now is     1407.3 secs

     total energy              =    -702.38200931 Ry
     Harris-Foulkes estimate   =    -702.38201067 Ry
     estimated scf accuracy    <       0.00002856 Ry

     iteration # 24     ecut=    40.00 Ry     beta= 0.60
     Davidson diagonalization with overlap
     ethr =  2.73E-08,  avg # of iterations =  1.0

     total cpu time spent up to now is     1452.1 secs

     total energy              =    -702.38200855 Ry
     Harris-Foulkes estimate   =    -702.38200961 Ry
     estimated scf accuracy    <       0.00001724 Ry

     iteration # 25     ecut=    40.00 Ry     beta= 0.60
     Davidson diagonalization with overlap
     ethr =  2.33E-08,  avg # of iterations =  1.0

     total cpu time spent up to now is     1497.5 secs

     total energy              =    -702.38200844 Ry
     Harris-Foulkes estimate   =    -702.38200889 Ry
     estimated scf accuracy    <       0.00000520 Ry

     iteration # 26     ecut=    40.00 Ry     beta= 0.60
     Davidson diagonalization with overlap
     ethr =  7.03E-09,  avg # of iterations =  4.4

     total cpu time spent up to now is     1556.8 secs

     total energy              =    -702.38200885 Ry
     Harris-Foulkes estimate   =    -702.38200901 Ry
     estimated scf accuracy    <       0.00000114 Ry

     iteration # 27     ecut=    40.00 Ry     beta= 0.60
     Davidson diagonalization with overlap
     ethr =  1.54E-09,  avg # of iterations =  4.1

     total cpu time spent up to now is     1617.1 secs

     total energy              =    -702.38200898 Ry
     Harris-Foulkes estimate   =    -702.38200904 Ry
     estimated scf accuracy    <       0.00000081 Ry

     iteration # 28     ecut=    40.00 Ry     beta= 0.60
     Davidson diagonalization with overlap
     ethr =  1.09E-09,  avg # of iterations =  1.0

     total cpu time spent up to now is     1661.0 secs

     total energy              =    -702.38200898 Ry
     Harris-Foulkes estimate   =    -702.38200900 Ry
     estimated scf accuracy    <       0.00000033 Ry

     iteration # 29     ecut=    40.00 Ry     beta= 0.60
     Davidson diagonalization with overlap
     ethr =  4.49E-10,  avg # of iterations =  1.5

     total cpu time spent up to now is     1706.0 secs

     total energy              =    -702.38200897 Ry
     Harris-Foulkes estimate   =    -702.38200899 Ry
     estimated scf accuracy    <       0.00000015 Ry

     iteration # 30     ecut=    40.00 Ry     beta= 0.60
     Davidson diagonalization with overlap
     ethr =  2.06E-10,  avg # of iterations =  4.4

     total cpu time spent up to now is     1767.0 secs

     total energy              =    -702.38200899 Ry
     Harris-Foulkes estimate   =    -702.38200900 Ry
     estimated scf accuracy    <       0.00000005 Ry

     iteration # 31     ecut=    40.00 Ry     beta= 0.60
     Davidson diagonalization with overlap
     ethr =  7.43E-11,  avg # of iterations =  1.3

     total cpu time spent up to now is     1811.7 secs

     total energy              =    -702.38200899 Ry
     Harris-Foulkes estimate   =    -702.38200900 Ry
     estimated scf accuracy    <          9.2E-09 Ry

     iteration # 32     ecut=    40.00 Ry     beta= 0.60
     Davidson diagonalization with overlap
     ethr =  1.24E-11,  avg # of iterations =  5.3

     total cpu time spent up to now is     1882.4 secs

     total energy              =    -702.38200900 Ry
     Harris-Foulkes estimate   =    -702.38200900 Ry
     estimated scf accuracy    <       0.00000005 Ry

     iteration # 33     ecut=    40.00 Ry     beta= 0.60
     Davidson diagonalization with overlap
     ethr =  1.24E-11,  avg # of iterations =  1.1

     total cpu time spent up to now is     1926.4 secs

     total energy              =    -702.38200900 Ry
     Harris-Foulkes estimate   =    -702.38200900 Ry
     estimated scf accuracy    <       0.00000002 Ry

     iteration # 34     ecut=    40.00 Ry     beta= 0.60
     Davidson diagonalization with overlap
     ethr =  1.24E-11,  avg # of iterations =  3.8

     total cpu time spent up to now is     1980.7 secs

     total energy              =    -702.38200900 Ry
     Harris-Foulkes estimate   =    -702.38200900 Ry
     estimated scf accuracy    <          2.2E-09 Ry

     iteration # 35     ecut=    40.00 Ry     beta= 0.60
     Davidson diagonalization with overlap
     ethr =  3.00E-12,  avg # of iterations =  4.2

     total cpu time spent up to now is     2036.3 secs

     total energy              =    -702.38200900 Ry
     Harris-Foulkes estimate   =    -702.38200900 Ry
     estimated scf accuracy    <          1.9E-10 Ry

     iteration # 36     ecut=    40.00 Ry     beta= 0.60
     Davidson diagonalization with overlap
     ethr =  2.53E-13,  avg # of iterations =  5.6

     total cpu time spent up to now is     2104.1 secs

     End of self-consistent calculation

     Number of k-points >= 100: set verbosity='high' to print the bands.

     the Fermi energy is    12.9909 ev

!    total energy              =    -702.38200900 Ry
     Harris-Foulkes estimate   =    -702.38200900 Ry
     estimated scf accuracy    <          1.9E-11 Ry

     The total energy is the sum of the following terms:

     one-electron contribution =    -231.42170647 Ry
     hartree contribution      =     137.80115872 Ry
     xc contribution           =     -94.33863880 Ry
     ewald contribution        =    -514.41737389 Ry
     smearing contrib. (-TS)   =      -0.00544856 Ry

     convergence has been achieved in  36 iterations

     Forces acting on atoms (cartesian axes, Ry/au):

     atom    1 type  2   force =     0.00210161   -0.00121336    0.00405737
     atom    2 type  2   force =    -0.00210165    0.00121339   -0.00405716
     atom    3 type  1   force =    -0.00232719    0.00134360   -0.01108896
     atom    4 type  2   force =     0.00104645   -0.00060417   -0.00063720
     atom    5 type  2   force =    -0.00104654    0.00060422    0.00063706
     atom    6 type  1   force =     0.00232732   -0.00134368    0.01108890

     Total force =     0.017573     Total SCF correction =     0.000012


     Computing stress (Cartesian axis) and pressure

          total   stress  (Ry/bohr**3)                   (kbar)     P= -128.85
  -0.00088014  -0.00001629   0.00000302       -129.47     -2.40      0.44
  -0.00001629  -0.00089895  -0.00000175         -2.40   -132.24     -0.26
   0.00000302  -0.00000175  -0.00084857          0.44     -0.26   -124.83


     BFGS Geometry Optimization

     number of scf cycles    =   1
     number of bfgs steps    =   0

     enthalpy new            =    -702.3820089978 Ry

     new trust radius        =       0.1278124949 bohr
     new conv_thr            =            1.0E-10 Ry

     new unit-cell volume =    756.39549 a.u.^3 (   112.08625 Ang^3 )
     density =      5.58935 g/cm^3

CELL_PARAMETERS (alat=  1.88972599)
  -2.977627471   0.001022891   4.866743982
  -1.489699585   2.578189773   4.866743982
  -4.468454973   2.579863867  -4.867434688

ATOMIC_POSITIONS (angstrom)
Ti      -4.466990924   2.579018598   0.001641159
Ti      -5.958337290   3.440047886   2.430771623
Nb      -4.468908161   2.580125515   4.860770083
Ti      -5.956331541   3.438889866   7.299517381
Ti      -8.936323753   5.159389295   4.866383186
Nb      -1.487964994   0.859077052   2.439077249


     NEW-OLD atomic charge density approx. for the potential
     extrapolated charge   69.19297, renormalised to   74.00000

     total cpu time spent up to now is     2122.1 secs

     Self-consistent Calculation

     iteration #  1     ecut=    40.00 Ry     beta= 0.60
     Davidson diagonalization with overlap
     c_bands:  4 eigenvalues not converged
     c_bands:  4 eigenvalues not converged
     c_bands:  3 eigenvalues not converged
     c_bands:  4 eigenvalues not converged
     c_bands:  3 eigenvalues not converged
     c_bands:  2 eigenvalues not converged
     c_bands:  1 eigenvalues not converged
     c_bands:  2 eigenvalues not converged
     c_bands:  3 eigenvalues not converged
     c_bands:  1 eigenvalues not converged
     c_bands:  1 eigenvalues not converged
     c_bands:  1 eigenvalues not converged
     c_bands:  1 eigenvalues not converged
     c_bands:  2 eigenvalues not converged
     c_bands:  2 eigenvalues not converged
     c_bands:  2 eigenvalues not converged
     c_bands:  2 eigenvalues not converged
     c_bands:  3 eigenvalues not converged
     c_bands:  1 eigenvalues not converged
     c_bands:  2 eigenvalues not converged
     c_bands:  2 eigenvalues not converged
     c_bands:  1 eigenvalues not converged
     c_bands:  1 eigenvalues not converged
     c_bands:  1 eigenvalues not converged
     c_bands:  2 eigenvalues not converged
     c_bands:  1 eigenvalues not converged
     c_bands:  2 eigenvalues not converged
     c_bands:  2 eigenvalues not converged
     c_bands:  4 eigenvalues not converged
     c_bands:  4 eigenvalues not converged
     c_bands:  3 eigenvalues not converged
     c_bands:  2 eigenvalues not converged
     c_bands:  2 eigenvalues not converged
     c_bands:  3 eigenvalues not converged
     c_bands:  2 eigenvalues not converged
     c_bands:  2 eigenvalues not converged
     c_bands:  1 eigenvalues not converged
     c_bands:  1 eigenvalues not converged
     c_bands:  1 eigenvalues not converged
     c_bands:  1 eigenvalues not converged
     c_bands:  1 eigenvalues not converged
     c_bands:  1 eigenvalues not converged
     c_bands:  1 eigenvalues not converged
     c_bands:  1 eigenvalues not converged
     c_bands:  2 eigenvalues not converged
     c_bands:  3 eigenvalues not converged
     c_bands:  1 eigenvalues not converged
     c_bands:  2 eigenvalues not converged
     c_bands:  1 eigenvalues not converged
     c_bands:  1 eigenvalues not converged
     c_bands:  2 eigenvalues not converged
     c_bands:  1 eigenvalues not converged
     c_bands:  1 eigenvalues not converged
     c_bands:  1 eigenvalues not converged
     c_bands:  1 eigenvalues not converged
     c_bands:  3 eigenvalues not converged
     c_bands:  1 eigenvalues not converged
     c_bands:  1 eigenvalues not converged
     c_bands:  2 eigenvalues not converged
     c_bands:  1 eigenvalues not converged
     c_bands:  2 eigenvalues not converged
     c_bands:  1 eigenvalues not converged
     c_bands:  5 eigenvalues not converged
     c_bands:  4 eigenvalues not converged
     c_bands:  4 eigenvalues not converged
     c_bands:  3 eigenvalues not converged
     c_bands:  3 eigenvalues not converged
     c_bands:  2 eigenvalues not converged
     c_bands:  2 eigenvalues not converged
     c_bands:  4 eigenvalues not converged
     c_bands:  1 eigenvalues not converged
     c_bands:  3 eigenvalues not converged
     c_bands:  1 eigenvalues not converged
     c_bands:  2 eigenvalues not converged
     c_bands:  1 eigenvalues not converged
     c_bands:  1 eigenvalues not converged
     c_bands:  1 eigenvalues not converged
     c_bands:  1 eigenvalues not converged
     c_bands:  1 eigenvalues not converged
     c_bands:  1 eigenvalues not converged
     c_bands:  1 eigenvalues not converged
     c_bands:  1 eigenvalues not converged
     c_bands:  2 eigenvalues not converged
     c_bands:  1 eigenvalues not converged
     c_bands:  1 eigenvalues not converged
     c_bands:  3 eigenvalues not converged
     c_bands:  1 eigenvalues not converged
     c_bands:  2 eigenvalues not converged
     c_bands:  1 eigenvalues not converged
     c_bands:  3 eigenvalues not converged
     c_bands:  4 eigenvalues not converged
     c_bands:  4 eigenvalues not converged
     c_bands:  3 eigenvalues not converged
     c_bands:  3 eigenvalues not converged
     c_bands:  2 eigenvalues not converged
     c_bands:  2 eigenvalues not converged
     c_bands:  1 eigenvalues not converged
     c_bands:  1 eigenvalues not converged
     c_bands:  1 eigenvalues not converged
     c_bands:  1 eigenvalues not converged
     c_bands:  1 eigenvalues not converged
     c_bands:  1 eigenvalues not converged
     c_bands:  1 eigenvalues not converged
     c_bands:  1 eigenvalues not converged
     c_bands:  1 eigenvalues not converged
     c_bands:  1 eigenvalues not converged
     c_bands:  2 eigenvalues not converged
     c_bands:  1 eigenvalues not converged
     c_bands:  1 eigenvalues not converged
     c_bands:  1 eigenvalues not converged
     c_bands:  1 eigenvalues not converged
     c_bands:  1 eigenvalues not converged
     c_bands:  1 eigenvalues not converged
     c_bands:  1 eigenvalues not converged
     c_bands:  1 eigenvalues not converged
     c_bands:  2 eigenvalues not converged
     c_bands:  2 eigenvalues not converged
     c_bands:  4 eigenvalues not converged
     c_bands:  1 eigenvalues not converged
     c_bands:  1 eigenvalues not converged
     c_bands:  3 eigenvalues not converged
     c_bands:  1 eigenvalues not converged
     c_bands:  1 eigenvalues not converged
     c_bands:  1 eigenvalues not converged
     c_bands:  1 eigenvalues not converged
     c_bands:  3 eigenvalues not converged
     c_bands:  1 eigenvalues not converged
     c_bands:  1 eigenvalues not converged
     c_bands:  1 eigenvalues not converged
     c_bands:  1 eigenvalues not converged
     c_bands:  1 eigenvalues not converged
     c_bands:  1 eigenvalues not converged
     c_bands:  1 eigenvalues not converged
     c_bands:  2 eigenvalues not converged
     c_bands:  1 eigenvalues not converged
     c_bands:  3 eigenvalues not converged
     c_bands:  1 eigenvalues not converged
     c_bands:  1 eigenvalues not converged
     c_bands:  5 eigenvalues not converged
     c_bands:  3 eigenvalues not converged
     c_bands:  1 eigenvalues not converged
     c_bands:  1 eigenvalues not converged
     c_bands:  2 eigenvalues not converged
     c_bands:  4 eigenvalues not converged
     c_bands:  1 eigenvalues not converged
     c_bands:  1 eigenvalues not converged
     c_bands:  1 eigenvalues not converged
     c_bands:  3 eigenvalues not converged
     c_bands:  4 eigenvalues not converged
     c_bands:  2 eigenvalues not converged
     c_bands:  1 eigenvalues not converged
     c_bands:  1 eigenvalues not converged
     c_bands:  1 eigenvalues not converged
     c_bands:  1 eigenvalues not converged
     c_bands:  3 eigenvalues not converged
     c_bands:  2 eigenvalues not converged
     c_bands:  1 eigenvalues not converged
     c_bands:  2 eigenvalues not converged
     c_bands:  5 eigenvalues not converged
     c_bands:  3 eigenvalues not converged
     c_bands:  2 eigenvalues not converged
     c_bands:  3 eigenvalues not converged
     c_bands:  2 eigenvalues not converged
     ethr =  1.00E-06,  avg # of iterations = 18.1

     total cpu time spent up to now is     2316.9 secs

     total energy              =    -696.43817280 Ry
     Harris-Foulkes estimate   =    -712.95663582 Ry
     estimated scf accuracy    <       6.12643832 Ry

     iteration #  2     ecut=    40.00 Ry     beta= 0.60
     Davidson diagonalization with overlap
     ethr =  8.28E-03,  avg # of iterations =  5.5

     total cpu time spent up to now is     2409.0 secs

     total energy              =    -699.41407938 Ry
     Harris-Foulkes estimate   =    -712.20772060 Ry
     estimated scf accuracy    <      53.26631957 Ry

     iteration #  3     ecut=    40.00 Ry     beta= 0.60
     Davidson diagonalization with overlap
     ethr =  8.28E-03,  avg # of iterations =  6.4

     total cpu time spent up to now is     2485.9 secs

     total energy              =    -700.68749838 Ry
     Harris-Foulkes estimate   =    -705.63466745 Ry
     estimated scf accuracy    <      27.04221883 Ry

     iteration #  4     ecut=    40.00 Ry     beta= 0.60
     Davidson diagonalization with overlap
     ethr =  8.28E-03,  avg # of iterations =  4.0

     total cpu time spent up to now is     2544.6 secs

     total energy              =    -702.64283309 Ry
     Harris-Foulkes estimate   =    -703.63607387 Ry
     estimated scf accuracy    <       6.71886153 Ry

     iteration #  5     ecut=    40.00 Ry     beta= 0.60
     Davidson diagonalization with overlap
     ethr =  8.28E-03,  avg # of iterations =  1.1

     total cpu time spent up to now is     2588.8 secs

     total energy              =    -702.49868102 Ry
     Harris-Foulkes estimate   =    -702.83226561 Ry
     estimated scf accuracy    <       3.32453894 Ry

     iteration #  6     ecut=    40.00 Ry     beta= 0.60
     Davidson diagonalization with overlap
     ethr =  4.49E-03,  avg # of iterations =  1.6

     total cpu time spent up to now is     2634.2 secs

     total energy              =    -702.37632447 Ry
     Harris-Foulkes estimate   =    -702.57709772 Ry
     estimated scf accuracy    <       1.81492126 Ry

     iteration #  7     ecut=    40.00 Ry     beta= 0.60
     Davidson diagonalization with overlap
     ethr =  2.45E-03,  avg # of iterations =  2.4

     total cpu time spent up to now is     2681.9 secs

     total energy              =    -702.37908999 Ry
     Harris-Foulkes estimate   =    -702.43094539 Ry
     estimated scf accuracy    <       0.84123402 Ry

     iteration #  8     ecut=    40.00 Ry     beta= 0.60
     Davidson diagonalization with overlap
     ethr =  1.14E-03,  avg # of iterations =  4.0

     total cpu time spent up to now is     2737.7 secs

     total energy              =    -702.49235782 Ry
     Harris-Foulkes estimate   =    -702.44397719 Ry
     estimated scf accuracy    <       0.23326055 Ry

     iteration #  9     ecut=    40.00 Ry     beta= 0.60
     Davidson diagonalization with overlap
     ethr =  3.15E-04,  avg # of iterations =  4.6

     total cpu time spent up to now is     2793.1 secs

     total energy              =    -702.49890153 Ry
     Harris-Foulkes estimate   =    -702.50678742 Ry
     estimated scf accuracy    <       0.51720123 Ry

     iteration # 10     ecut=    40.00 Ry     beta= 0.60
     Davidson diagonalization with overlap
     ethr =  3.15E-04,  avg # of iterations =  1.2

     total cpu time spent up to now is     2838.4 secs

     total energy              =    -702.34853850 Ry
     Harris-Foulkes estimate   =    -702.50065102 Ry
     estimated scf accuracy    <       0.49666297 Ry

     iteration # 11     ecut=    40.00 Ry     beta= 0.60
     Davidson diagonalization with overlap
     ethr =  3.15E-04,  avg # of iterations =  5.9

     total cpu time spent up to now is     2913.3 secs

     total energy              =    -702.40630796 Ry
     Harris-Foulkes estimate   =    -702.42208693 Ry
     estimated scf accuracy    <       0.09804695 Ry

     iteration # 12     ecut=    40.00 Ry     beta= 0.60
     Davidson diagonalization with overlap
     ethr =  1.32E-04,  avg # of iterations =  4.2

     total cpu time spent up to now is     2970.2 secs

     total energy              =    -702.42374027 Ry
     Harris-Foulkes estimate   =    -702.42108345 Ry
     estimated scf accuracy    <       0.04548987 Ry

     iteration # 13     ecut=    40.00 Ry     beta= 0.60
     Davidson diagonalization with overlap
     ethr =  6.15E-05,  avg # of iterations =  4.4

     total cpu time spent up to now is     3030.1 secs

     total energy              =    -702.41993282 Ry
     Harris-Foulkes estimate   =    -702.42948754 Ry
     estimated scf accuracy    <       0.13162038 Ry

     iteration # 14     ecut=    40.00 Ry     beta= 0.60
     Davidson diagonalization with overlap
     ethr =  6.15E-05,  avg # of iterations =  1.2

     total cpu time spent up to now is     3075.3 secs

     total energy              =    -702.41778720 Ry
     Harris-Foulkes estimate   =    -702.42151568 Ry
     estimated scf accuracy    <       0.07158176 Ry

     iteration # 15     ecut=    40.00 Ry     beta= 0.60
     Davidson diagonalization with overlap
     ethr =  6.15E-05,  avg # of iterations =  1.1

     total cpu time spent up to now is     3120.5 secs

     total energy              =    -702.41335066 Ry
     Harris-Foulkes estimate   =    -702.41878217 Ry
     estimated scf accuracy    <       0.03900333 Ry

     iteration # 16     ecut=    40.00 Ry     beta= 0.60
     Davidson diagonalization with overlap
     ethr =  5.27E-05,  avg # of iterations =  3.6

     total cpu time spent up to now is     3172.9 secs

     total energy              =    -702.41506090 Ry
     Harris-Foulkes estimate   =    -702.41603267 Ry
     estimated scf accuracy    <       0.00248624 Ry

     iteration # 17     ecut=    40.00 Ry     beta= 0.60
     Davidson diagonalization with overlap
     ethr =  3.36E-06,  avg # of iterations =  7.0

     total cpu time spent up to now is     3269.7 secs

     total energy              =    -702.41574240 Ry
     Harris-Foulkes estimate   =    -702.41944760 Ry
     estimated scf accuracy    <       0.03033959 Ry

     iteration # 18     ecut=    40.00 Ry     beta= 0.60
     Davidson diagonalization with overlap
     ethr =  3.36E-06,  avg # of iterations =  5.9

     total cpu time spent up to now is     3347.8 secs

     total energy              =    -702.41685847 Ry
     Harris-Foulkes estimate   =    -702.41724840 Ry
     estimated scf accuracy    <       0.00203631 Ry

     iteration # 19     ecut=    40.00 Ry     beta= 0.60
     Davidson diagonalization with overlap
     ethr =  2.75E-06,  avg # of iterations =  3.2

     total cpu time spent up to now is     3397.5 secs

     total energy              =    -702.41705239 Ry
     Harris-Foulkes estimate   =    -702.41706277 Ry
     estimated scf accuracy    <       0.00011525 Ry

     iteration # 20     ecut=    40.00 Ry     beta= 0.60
     Davidson diagonalization with overlap
     c_bands:  1 eigenvalues not converged
     ethr =  1.56E-07,  avg # of iterations =  5.5

     total cpu time spent up to now is     3472.6 secs

     total energy              =    -702.41709278 Ry
     Harris-Foulkes estimate   =    -702.41716577 Ry
     estimated scf accuracy    <       0.00070437 Ry

     iteration # 21     ecut=    40.00 Ry     beta= 0.60
     Davidson diagonalization with overlap
     ethr =  1.56E-07,  avg # of iterations =  4.0

     total cpu time spent up to now is     3531.3 secs

     total energy              =    -702.41711765 Ry
     Harris-Foulkes estimate   =    -702.41711823 Ry
     estimated scf accuracy    <       0.00012275 Ry

     iteration # 22     ecut=    40.00 Ry     beta= 0.60
     Davidson diagonalization with overlap
     ethr =  1.56E-07,  avg # of iterations =  1.0

     total cpu time spent up to now is     3575.6 secs

     total energy              =    -702.41710930 Ry
     Harris-Foulkes estimate   =    -702.41712156 Ry
     estimated scf accuracy    <       0.00012281 Ry

     iteration # 23     ecut=    40.00 Ry     beta= 0.60
     Davidson diagonalization with overlap
     ethr =  1.56E-07,  avg # of iterations =  1.0

     total cpu time spent up to now is     3620.2 secs

     total energy              =    -702.41711275 Ry
     Harris-Foulkes estimate   =    -702.41711267 Ry
     estimated scf accuracy    <       0.00004564 Ry

     iteration # 24     ecut=    40.00 Ry     beta= 0.60
     Davidson diagonalization with overlap
     ethr =  6.17E-08,  avg # of iterations =  1.3

     total cpu time spent up to now is     3665.2 secs

     total energy              =    -702.41711029 Ry
     Harris-Foulkes estimate   =    -702.41711406 Ry
     estimated scf accuracy    <       0.00004622 Ry

     iteration # 25     ecut=    40.00 Ry     beta= 0.60
     Davidson diagonalization with overlap
     ethr =  6.17E-08,  avg # of iterations =  1.1

     total cpu time spent up to now is     3709.6 secs

     total energy              =    -702.41710874 Ry
     Harris-Foulkes estimate   =    -702.41711139 Ry
     estimated scf accuracy    <       0.00001753 Ry

     iteration # 26     ecut=    40.00 Ry     beta= 0.60
     Davidson diagonalization with overlap
     ethr =  2.37E-08,  avg # of iterations =  4.4

     total cpu time spent up to now is     3775.9 secs

     total energy              =    -702.41711223 Ry
     Harris-Foulkes estimate   =    -702.41711304 Ry
     estimated scf accuracy    <       0.00000887 Ry

     iteration # 27     ecut=    40.00 Ry     beta= 0.60
     Davidson diagonalization with overlap
     ethr =  1.20E-08,  avg # of iterations =  1.0

     total cpu time spent up to now is     3821.3 secs

     total energy              =    -702.41711196 Ry
     Harris-Foulkes estimate   =    -702.41711242 Ry
     estimated scf accuracy    <       0.00000297 Ry

     iteration # 28     ecut=    40.00 Ry     beta= 0.60
     Davidson diagonalization with overlap
     ethr =  4.02E-09,  avg # of iterations =  3.9

     total cpu time spent up to now is     3881.2 secs

     total energy              =    -702.41711237 Ry
     Harris-Foulkes estimate   =    -702.41711250 Ry
     estimated scf accuracy    <       0.00000092 Ry

     iteration # 29     ecut=    40.00 Ry     beta= 0.60
     Davidson diagonalization with overlap
     ethr =  1.24E-09,  avg # of iterations =  2.0

     total cpu time spent up to now is     3928.0 secs

     total energy              =    -702.41711242 Ry
     Harris-Foulkes estimate   =    -702.41711242 Ry
     estimated scf accuracy    <       0.00000011 Ry

     iteration # 30     ecut=    40.00 Ry     beta= 0.60
     Davidson diagonalization with overlap
     ethr =  1.46E-10,  avg # of iterations =  4.6

     total cpu time spent up to now is     3991.7 secs

     total energy              =    -702.41711244 Ry
     Harris-Foulkes estimate   =    -702.41711244 Ry
     estimated scf accuracy    <       0.00000002 Ry

     iteration # 31     ecut=    40.00 Ry     beta= 0.60
     Davidson diagonalization with overlap
     ethr =  2.54E-11,  avg # of iterations =  2.6

     total cpu time spent up to now is     4040.5 secs

     total energy              =    -702.41711244 Ry
     Harris-Foulkes estimate   =    -702.41711244 Ry
     estimated scf accuracy    <       0.00000001 Ry

     iteration # 32     ecut=    40.00 Ry     beta= 0.60
     Davidson diagonalization with overlap
     ethr =  1.76E-11,  avg # of iterations =  2.9

     total cpu time spent up to now is     4090.2 secs

     total energy              =    -702.41711244 Ry
     Harris-Foulkes estimate   =    -702.41711244 Ry
     estimated scf accuracy    <          1.5E-09 Ry

     iteration # 33     ecut=    40.00 Ry     beta= 0.60
     Davidson diagonalization with overlap
     ethr =  2.06E-12,  avg # of iterations =  5.2

     total cpu time spent up to now is     4160.9 secs

     total energy              =    -702.41711244 Ry
     Harris-Foulkes estimate   =    -702.41711244 Ry
     estimated scf accuracy    <          2.7E-10 Ry

     iteration # 34     ecut=    40.00 Ry     beta= 0.60
     Davidson diagonalization with overlap
     ethr =  3.63E-13,  avg # of iterations =  3.8

     total cpu time spent up to now is     4213.6 secs

     total energy              =    -702.41711244 Ry
     Harris-Foulkes estimate   =    -702.41711244 Ry
     estimated scf accuracy    <          4.5E-10 Ry

     iteration # 35     ecut=    40.00 Ry     beta= 0.60
     Davidson diagonalization with overlap
     ethr =  3.63E-13,  avg # of iterations =  1.1

     total cpu time spent up to now is     4258.2 secs

     total energy              =    -702.41711244 Ry
     Harris-Foulkes estimate   =    -702.41711244 Ry
     estimated scf accuracy    <          1.2E-10 Ry

     iteration # 36     ecut=    40.00 Ry     beta= 0.60
     Davidson diagonalization with overlap
     ethr =  1.64E-13,  avg # of iterations =  4.0

     total cpu time spent up to now is     4316.2 secs

     End of self-consistent calculation

     Number of k-points >= 100: set verbosity='high' to print the bands.

     the Fermi energy is    14.0631 ev

!    total energy              =    -702.41711244 Ry
     Harris-Foulkes estimate   =    -702.41711244 Ry
     estimated scf accuracy    <          3.3E-11 Ry

     The total energy is the sum of the following terms:

     one-electron contribution =    -214.34661334 Ry
     hartree contribution      =     132.54428056 Ry
     xc contribution           =     -94.65820055 Ry
     ewald contribution        =    -525.95133168 Ry
     smearing contrib. (-TS)   =      -0.00524743 Ry

     convergence has been achieved in  36 iterations

     Forces acting on atoms (cartesian axes, Ry/au):

     atom    1 type  2   force =     0.00075445   -0.00043558    0.00559427
     atom    2 type  2   force =    -0.00075443    0.00043557   -0.00559444
     atom    3 type  1   force =    -0.00317467    0.00183289   -0.01359232
     atom    4 type  2   force =    -0.00026332    0.00015203   -0.00285605
     atom    5 type  2   force =     0.00026356   -0.00015217    0.00285598
     atom    6 type  1   force =     0.00317441   -0.00183275    0.01359256

     Total force =     0.021840     Total SCF correction =     0.000016


     Computing stress (Cartesian axis) and pressure

          total   stress  (Ry/bohr**3)                   (kbar)     P=  -64.33
  -0.00045076  -0.00001177   0.00000621        -66.31     -1.73      0.91
  -0.00001177  -0.00046436  -0.00000359         -1.73    -68.31     -0.53
   0.00000621  -0.00000359  -0.00039676          0.91     -0.53    -58.37


     number of scf cycles    =   2
     number of bfgs steps    =   1

     enthalpy old            =    -702.3820089978 Ry
     enthalpy new            =    -702.4171124429 Ry

     CASE: enthalpy_new < enthalpy_old

     new trust radius        =       0.1229744615 bohr
     new conv_thr            =            1.0E-10 Ry

     new unit-cell volume =    709.65818 a.u.^3 (   105.16049 Ang^3 )
     density =      5.95746 g/cm^3

CELL_PARAMETERS (alat=  1.88972599)
  -2.911634082   0.001896220   4.773005021
  -1.457459216   2.520601162   4.773005021
  -4.374544149   2.525644431  -4.776342922

ATOMIC_POSITIONS (angstrom)
Ti      -4.370919326   2.523551639   0.005249448
Ti      -5.831200877   3.366645649   2.376617027
Nb      -4.375158449   2.525999098   4.753095824
Ti      -5.827291212   3.364388403   7.155134261
Ti      -8.743922100   5.048306158   4.772742179
Nb      -1.452417778   0.838553859   2.405113834


     NEW-OLD atomic charge density approx. for the potential
     extrapolated charge   69.39025, renormalised to   74.00000

     total cpu time spent up to now is     4334.7 secs

     Self-consistent Calculation

     iteration #  1     ecut=    40.00 Ry     beta= 0.60
     Davidson diagonalization with overlap
     c_bands:  2 eigenvalues not converged
     c_bands:  3 eigenvalues not converged
     c_bands:  1 eigenvalues not converged
     c_bands:  2 eigenvalues not converged
     c_bands:  2 eigenvalues not converged
     c_bands:  2 eigenvalues not converged
     c_bands:  4 eigenvalues not converged
     c_bands:  1 eigenvalues not converged
     c_bands:  1 eigenvalues not converged
     c_bands:  2 eigenvalues not converged
     c_bands:  3 eigenvalues not converged
     c_bands:  2 eigenvalues not converged
     c_bands:  2 eigenvalues not converged
     c_bands:  1 eigenvalues not converged
     c_bands:  2 eigenvalues not converged
     c_bands:  3 eigenvalues not converged
     c_bands:  3 eigenvalues not converged
     c_bands:  2 eigenvalues not converged
     c_bands:  1 eigenvalues not converged
     c_bands:  2 eigenvalues not converged
     c_bands:  1 eigenvalues not converged
     c_bands:  1 eigenvalues not converged
     c_bands:  2 eigenvalues not converged
     c_bands:  2 eigenvalues not converged
     c_bands:  2 eigenvalues not converged
     c_bands:  2 eigenvalues not converged
     c_bands:  2 eigenvalues not converged
     c_bands:  3 eigenvalues not converged
     c_bands:  3 eigenvalues not converged
     c_bands:  3 eigenvalues not converged
     c_bands:  2 eigenvalues not converged
     c_bands:  1 eigenvalues not converged
     c_bands:  2 eigenvalues not converged
     c_bands:  3 eigenvalues not converged
     c_bands:  1 eigenvalues not converged
     c_bands:  1 eigenvalues not converged
     c_bands:  1 eigenvalues not converged
     c_bands:  1 eigenvalues not converged
     c_bands:  1 eigenvalues not converged
     c_bands:  1 eigenvalues not converged
     c_bands:  1 eigenvalues not converged
     c_bands:  3 eigenvalues not converged
     c_bands:  2 eigenvalues not converged
     c_bands:  3 eigenvalues not converged
     c_bands:  1 eigenvalues not converged
     c_bands:  2 eigenvalues not converged
     c_bands:  1 eigenvalues not converged
     c_bands:  1 eigenvalues not converged
     c_bands:  2 eigenvalues not converged
     c_bands:  1 eigenvalues not converged
     c_bands:  2 eigenvalues not converged
     c_bands:  1 eigenvalues not converged
     c_bands:  1 eigenvalues not converged
     c_bands:  1 eigenvalues not converged
     c_bands:  1 eigenvalues not converged
     c_bands:  1 eigenvalues not converged
     c_bands:  1 eigenvalues not converged
     c_bands:  2 eigenvalues not converged
     c_bands:  1 eigenvalues not converged
     c_bands:  1 eigenvalues not converged
     c_bands:  2 eigenvalues not converged
     c_bands:  1 eigenvalues not converged
     c_bands:  1 eigenvalues not converged
     c_bands:  1 eigenvalues not converged
     c_bands:  1 eigenvalues not converged
     c_bands:  1 eigenvalues not converged
     c_bands:  2 eigenvalues not converged
     c_bands:  2 eigenvalues not converged
     c_bands:  2 eigenvalues not converged
     c_bands:  3 eigenvalues not converged
     c_bands:  3 eigenvalues not converged
     c_bands:  1 eigenvalues not converged
     c_bands:  1 eigenvalues not converged
     c_bands:  1 eigenvalues not converged
     c_bands:  2 eigenvalues not converged
     c_bands:  2 eigenvalues not converged
     c_bands:  1 eigenvalues not converged
     c_bands:  2 eigenvalues not converged
     c_bands:  2 eigenvalues not converged
     c_bands:  1 eigenvalues not converged
     c_bands:  1 eigenvalues not converged
     c_bands:  2 eigenvalues not converged
     c_bands:  3 eigenvalues not converged
     c_bands:  2 eigenvalues not converged
     c_bands:  1 eigenvalues not converged
     c_bands:  1 eigenvalues not converged
     c_bands:  1 eigenvalues not converged
     c_bands:  1 eigenvalues not converged
     c_bands:  1 eigenvalues not converged
     c_bands:  1 eigenvalues not converged
     c_bands:  1 eigenvalues not converged
     c_bands:  1 eigenvalues not converged
     c_bands:  1 eigenvalues not converged
     c_bands:  1 eigenvalues not converged
     c_bands:  1 eigenvalues not converged
     c_bands:  1 eigenvalues not converged
     c_bands:  1 eigenvalues not converged
     c_bands:  1 eigenvalues not converged
     c_bands:  2 eigenvalues not converged
     c_bands:  2 eigenvalues not converged
     c_bands:  1 eigenvalues not converged
     c_bands:  1 eigenvalues not converged
     c_bands:  1 eigenvalues not converged
     c_bands:  2 eigenvalues not converged
     c_bands:  2 eigenvalues not converged
     c_bands:  3 eigenvalues not converged
     c_bands:  3 eigenvalues not converged
     c_bands:  3 eigenvalues not converged
     c_bands:  2 eigenvalues not converged
     c_bands:  1 eigenvalues not converged
     c_bands:  1 eigenvalues not converged
     c_bands:  1 eigenvalues not converged
     c_bands:  2 eigenvalues not converged
     c_bands:  1 eigenvalues not converged
     c_bands:  1 eigenvalues not converged
     c_bands:  1 eigenvalues not converged
     c_bands:  1 eigenvalues not converged
     c_bands:  1 eigenvalues not converged
     c_bands:  2 eigenvalues not converged
     c_bands:  2 eigenvalues not converged
     c_bands:  1 eigenvalues not converged
     c_bands:  1 eigenvalues not converged
     c_bands:  2 eigenvalues not converged
     c_bands:  4 eigenvalues not converged
     c_bands:  1 eigenvalues not converged
     c_bands:  1 eigenvalues not converged
     c_bands:  1 eigenvalues not converged
     c_bands:  1 eigenvalues not converged
     c_bands:  2 eigenvalues not converged
     c_bands:  1 eigenvalues not converged
     c_bands:  2 eigenvalues not converged
     c_bands:  1 eigenvalues not converged
     c_bands:  1 eigenvalues not converged
     c_bands:  1 eigenvalues not converged
     c_bands:  1 eigenvalues not converged
     c_bands:  1 eigenvalues not converged
     c_bands:  1 eigenvalues not converged
     c_bands:  3 eigenvalues not converged
     c_bands:  2 eigenvalues not converged
     c_bands:  3 eigenvalues not converged
     c_bands:  2 eigenvalues not converged
     c_bands:  1 eigenvalues not converged
     c_bands:  2 eigenvalues not converged
     c_bands:  2 eigenvalues not converged
     c_bands:  1 eigenvalues not converged
     c_bands:  2 eigenvalues not converged
     c_bands:  1 eigenvalues not converged
     c_bands:  1 eigenvalues not converged
     c_bands:  2 eigenvalues not converged
     c_bands:  3 eigenvalues not converged
     c_bands:  1 eigenvalues not converged
     c_bands:  2 eigenvalues not converged
     c_bands:  2 eigenvalues not converged
     c_bands:  1 eigenvalues not converged
     c_bands:  3 eigenvalues not converged
     c_bands:  3 eigenvalues not converged
     c_bands:  1 eigenvalues not converged
     c_bands:  1 eigenvalues not converged
     c_bands:  1 eigenvalues not converged
     c_bands:  1 eigenvalues not converged
     c_bands:  3 eigenvalues not converged
     c_bands:  1 eigenvalues not converged
     c_bands:  4 eigenvalues not converged
     c_bands:  3 eigenvalues not converged
     c_bands:  1 eigenvalues not converged
     c_bands:  2 eigenvalues not converged
     c_bands:  1 eigenvalues not converged
     c_bands:  2 eigenvalues not converged
     c_bands:  2 eigenvalues not converged
     c_bands:  1 eigenvalues not converged
     c_bands:  2 eigenvalues not converged
     c_bands:  2 eigenvalues not converged
     c_bands:  3 eigenvalues not converged
     c_bands:  3 eigenvalues not converged
     c_bands:  1 eigenvalues not converged
     c_bands:  1 eigenvalues not converged
     c_bands:  1 eigenvalues not converged
     c_bands:  3 eigenvalues not converged
     c_bands:  4 eigenvalues not converged
     c_bands:  2 eigenvalues not converged
     c_bands:  2 eigenvalues not converged
     c_bands:  3 eigenvalues not converged
     c_bands:  1 eigenvalues not converged
     c_bands:  2 eigenvalues not converged
     c_bands:  2 eigenvalues not converged
     c_bands:  2 eigenvalues not converged
     c_bands:  1 eigenvalues not converged
     c_bands:  1 eigenvalues not converged
     c_bands:  1 eigenvalues not converged
     ethr =  1.00E-06,  avg # of iterations = 18.3

     total cpu time spent up to now is     4525.1 secs

     total energy              =    -698.00647870 Ry
     Harris-Foulkes estimate   =    -711.76854398 Ry
     estimated scf accuracy    <       4.42144358 Ry

     iteration #  2     ecut=    40.00 Ry     beta= 0.60
     Davidson diagonalization with overlap
     ethr =  5.97E-03,  avg # of iterations =  5.6

     total cpu time spent up to now is     4617.9 secs

     total energy              =    -699.76547146 Ry
     Harris-Foulkes estimate   =    -709.70524684 Ry
     estimated scf accuracy    <      43.95141633 Ry

     iteration #  3     ecut=    40.00 Ry     beta= 0.60
     Davidson diagonalization with overlap
     ethr =  5.97E-03,  avg # of iterations =  6.1

     total cpu time spent up to now is     4695.8 secs

     total energy              =    -701.05907843 Ry
     Harris-Foulkes estimate   =    -704.69705648 Ry
     estimated scf accuracy    <      19.33736940 Ry

     iteration #  4     ecut=    40.00 Ry     beta= 0.60
     Davidson diagonalization with overlap
     ethr =  5.97E-03,  avg # of iterations =  4.4

     total cpu time spent up to now is     4858.2 secs

     total energy              =    -702.55617454 Ry
     Harris-Foulkes estimate   =    -703.31960645 Ry
     estimated scf accuracy    <       5.00047281 Ry

     iteration #  5     ecut=    40.00 Ry     beta= 0.60
     Davidson diagonalization with overlap
     ethr =  5.97E-03,  avg # of iterations =  1.1

     total cpu time spent up to now is     4903.1 secs

     total energy              =    -702.50200612 Ry
     Harris-Foulkes estimate   =    -702.72626551 Ry
     estimated scf accuracy    <       2.36250734 Ry

     iteration #  6     ecut=    40.00 Ry     beta= 0.60
     Davidson diagonalization with overlap
     ethr =  3.19E-03,  avg # of iterations =  1.6

     total cpu time spent up to now is     4948.7 secs

     total energy              =    -702.40452113 Ry
     Harris-Foulkes estimate   =    -702.55691938 Ry
     estimated scf accuracy    <       1.33079817 Ry

     iteration #  7     ecut=    40.00 Ry     beta= 0.60
     Davidson diagonalization with overlap
     ethr =  1.80E-03,  avg # of iterations =  2.3

     total cpu time spent up to now is     4996.3 secs

     total energy              =    -702.41524689 Ry
     Harris-Foulkes estimate   =    -702.44569811 Ry
     estimated scf accuracy    <       0.58140223 Ry

     iteration #  8     ecut=    40.00 Ry     beta= 0.60
     Davidson diagonalization with overlap
     ethr =  7.86E-04,  avg # of iterations =  3.6

     total cpu time spent up to now is     5050.4 secs

     total energy              =    -702.48562634 Ry
     Harris-Foulkes estimate   =    -702.45359292 Ry
     estimated scf accuracy    <       0.23206100 Ry

     iteration #  9     ecut=    40.00 Ry     beta= 0.60
     Davidson diagonalization with overlap
     ethr =  3.14E-04,  avg # of iterations =  3.0

     total cpu time spent up to now is     5099.9 secs

     total energy              =    -702.49035625 Ry
     Harris-Foulkes estimate   =    -702.49229898 Ry
     estimated scf accuracy    <       0.39542703 Ry

     iteration # 10     ecut=    40.00 Ry     beta= 0.60
     Davidson diagonalization with overlap
     ethr =  3.14E-04,  avg # of iterations =  1.1

     total cpu time spent up to now is     5144.6 secs

     total energy              =    -702.38754256 Ry
     Harris-Foulkes estimate   =    -702.49169546 Ry
     estimated scf accuracy    <       0.38895114 Ry

     iteration # 11     ecut=    40.00 Ry     beta= 0.60
     Davidson diagonalization with overlap
     ethr =  3.14E-04,  avg # of iterations =  5.4

     total cpu time spent up to now is     5211.7 secs

     total energy              =    -702.42962957 Ry
     Harris-Foulkes estimate   =    -702.43813363 Ry
     estimated scf accuracy    <       0.19773441 Ry

     iteration # 12     ecut=    40.00 Ry     beta= 0.60
     Davidson diagonalization with overlap
     ethr =  2.67E-04,  avg # of iterations =  1.2

     total cpu time spent up to now is     5256.7 secs

     total energy              =    -702.42564808 Ry
     Harris-Foulkes estimate   =    -702.43337003 Ry
     estimated scf accuracy    <       0.12284108 Ry

     iteration # 13     ecut=    40.00 Ry     beta= 0.60
     Davidson diagonalization with overlap
     ethr =  1.66E-04,  avg # of iterations =  1.1

     total cpu time spent up to now is     5301.5 secs

     total energy              =    -702.42508570 Ry
     Harris-Foulkes estimate   =    -702.42763509 Ry
     estimated scf accuracy    <       0.06749380 Ry

     iteration # 14     ecut=    40.00 Ry     beta= 0.60
     Davidson diagonalization with overlap
     c_bands:  1 eigenvalues not converged
     ethr =  9.12E-05,  avg # of iterations =  2.7

     total cpu time spent up to now is     5350.0 secs

     total energy              =    -702.42558801 Ry
     Harris-Foulkes estimate   =    -702.42647619 Ry
     estimated scf accuracy    <       0.03543569 Ry

     iteration # 15     ecut=    40.00 Ry     beta= 0.60
     Davidson diagonalization with overlap
     c_bands:  1 eigenvalues not converged
     c_bands:  1 eigenvalues not converged
     ethr =  4.79E-05,  avg # of iterations =  4.3

     total cpu time spent up to now is     5403.9 secs

     total energy              =    -702.42457144 Ry
     Harris-Foulkes estimate   =    -702.42687240 Ry
     estimated scf accuracy    <       0.01716877 Ry

     iteration # 16     ecut=    40.00 Ry     beta= 0.60
     Davidson diagonalization with overlap
     ethr =  2.32E-05,  avg # of iterations =  6.4

     total cpu time spent up to now is     5473.6 secs

     total energy              =    -702.42655366 Ry
     Harris-Foulkes estimate   =    -702.42707377 Ry
     estimated scf accuracy    <       0.00553708 Ry

     iteration # 17     ecut=    40.00 Ry     beta= 0.60
     Davidson diagonalization with overlap
     c_bands:  1 eigenvalues not converged
     c_bands:  1 eigenvalues not converged
     c_bands:  1 eigenvalues not converged
     c_bands:  1 eigenvalues not converged
     c_bands:  1 eigenvalues not converged
     ethr =  7.48E-06,  avg # of iterations =  3.7

     total cpu time spent up to now is     5526.7 secs

     total energy              =    -702.42655405 Ry
     Harris-Foulkes estimate   =    -702.42694174 Ry
     estimated scf accuracy    <       0.00430340 Ry

     iteration # 18     ecut=    40.00 Ry     beta= 0.60
     Davidson diagonalization with overlap
     c_bands:  1 eigenvalues not converged
     c_bands:  1 eigenvalues not converged
     ethr =  5.82E-06,  avg # of iterations =  1.2

     total cpu time spent up to now is     5571.8 secs

     total energy              =    -702.42650918 Ry
     Harris-Foulkes estimate   =    -702.42670567 Ry
     estimated scf accuracy    <       0.00124631 Ry

     iteration # 19     ecut=    40.00 Ry     beta= 0.60
     Davidson diagonalization with overlap
     c_bands:  1 eigenvalues not converged
     c_bands:  1 eigenvalues not converged
     c_bands:  1 eigenvalues not converged
     ethr =  1.68E-06,  avg # of iterations =  6.1

     total cpu time spent up to now is     5643.0 secs

     total energy              =    -702.42675843 Ry
     Harris-Foulkes estimate   =    -702.42678424 Ry
     estimated scf accuracy    <       0.00086976 Ry

     iteration # 20     ecut=    40.00 Ry     beta= 0.60
     Davidson diagonalization with overlap
     ethr =  1.18E-06,  avg # of iterations =  1.0

     total cpu time spent up to now is     5687.5 secs

     total energy              =    -702.42670592 Ry
     Harris-Foulkes estimate   =    -702.42676370 Ry
     estimated scf accuracy    <       0.00064353 Ry

     iteration # 21     ecut=    40.00 Ry     beta= 0.60
     Davidson diagonalization with overlap
     ethr =  8.70E-07,  avg # of iterations =  1.6

     total cpu time spent up to now is     5733.7 secs

     total energy              =    -702.42671818 Ry
     Harris-Foulkes estimate   =    -702.42672613 Ry
     estimated scf accuracy    <       0.00008508 Ry

     iteration # 22     ecut=    40.00 Ry     beta= 0.60
     Davidson diagonalization with overlap
     ethr =  1.15E-07,  avg # of iterations =  4.9

     total cpu time spent up to now is     5797.0 secs

     total energy              =    -702.42673143 Ry
     Harris-Foulkes estimate   =    -702.42673281 Ry
     estimated scf accuracy    <       0.00000976 Ry

     iteration # 23     ecut=    40.00 Ry     beta= 0.60
     Davidson diagonalization with overlap
     ethr =  1.32E-08,  avg # of iterations =  3.4

     total cpu time spent up to now is     5850.2 secs

     total energy              =    -702.42673222 Ry
     Harris-Foulkes estimate   =    -702.42673257 Ry
     estimated scf accuracy    <       0.00000219 Ry

     iteration # 24     ecut=    40.00 Ry     beta= 0.60
     Davidson diagonalization with overlap
     ethr =  2.96E-09,  avg # of iterations =  4.0

     total cpu time spent up to now is     5908.4 secs

     total energy              =    -702.42673251 Ry
     Harris-Foulkes estimate   =    -702.42673259 Ry
     estimated scf accuracy    <       0.00000065 Ry

     iteration # 25     ecut=    40.00 Ry     beta= 0.60
     Davidson diagonalization with overlap
     ethr =  8.82E-10,  avg # of iterations =  2.0

     total cpu time spent up to now is     5955.7 secs

     total energy              =    -702.42673252 Ry
     Harris-Foulkes estimate   =    -702.42673257 Ry
     estimated scf accuracy    <       0.00000022 Ry

     iteration # 26     ecut=    40.00 Ry     beta= 0.60
     Davidson diagonalization with overlap
     c_bands:  1 eigenvalues not converged
     ethr =  2.96E-10,  avg # of iterations =  4.0

     total cpu time spent up to now is     6015.3 secs

     total energy              =    -702.42673255 Ry
     Harris-Foulkes estimate   =    -702.42673256 Ry
     estimated scf accuracy    <       0.00000004 Ry

     iteration # 27     ecut=    40.00 Ry     beta= 0.60
     Davidson diagonalization with overlap
     ethr =  5.42E-11,  avg # of iterations =  3.1

     total cpu time spent up to now is     6070.1 secs

     total energy              =    -702.42673256 Ry
     Harris-Foulkes estimate   =    -702.42673256 Ry
     estimated scf accuracy    <          2.5E-09 Ry

     iteration # 28     ecut=    40.00 Ry     beta= 0.60
     Davidson diagonalization with overlap
     ethr =  3.39E-12,  avg # of iterations =  5.2

     total cpu time spent up to now is     6140.6 secs

     total energy              =    -702.42673256 Ry
     Harris-Foulkes estimate   =    -702.42673256 Ry
     estimated scf accuracy    <          7.6E-10 Ry

     iteration # 29     ecut=    40.00 Ry     beta= 0.60
     Davidson diagonalization with overlap
     ethr =  1.03E-12,  avg # of iterations =  2.8

     total cpu time spent up to now is     6189.9 secs

     total energy              =    -702.42673256 Ry
     Harris-Foulkes estimate   =    -702.42673256 Ry
     estimated scf accuracy    <          1.4E-10 Ry

     iteration # 30     ecut=    40.00 Ry     beta= 0.60
     Davidson diagonalization with overlap
     ethr =  1.91E-13,  avg # of iterations =  4.2

     total cpu time spent up to now is     6254.5 secs

     End of self-consistent calculation

     Number of k-points >= 100: set verbosity='high' to print the bands.

     the Fermi energy is    15.1498 ev

!    total energy              =    -702.42673256 Ry
     Harris-Foulkes estimate   =    -702.42673256 Ry
     estimated scf accuracy    <          9.7E-11 Ry

     The total energy is the sum of the following terms:

     one-electron contribution =    -197.67418997 Ry
     hartree contribution      =     127.53726587 Ry
     xc contribution           =     -94.98937954 Ry
     ewald contribution        =    -537.29545915 Ry
     smearing contrib. (-TS)   =      -0.00496977 Ry

     convergence has been achieved in  30 iterations

     Forces acting on atoms (cartesian axes, Ry/au):

     atom    1 type  2   force =    -0.00059843    0.00034550    0.00655002
     atom    2 type  2   force =     0.00059843   -0.00034551   -0.00655021
     atom    3 type  1   force =    -0.00360982    0.00208413   -0.01249770
     atom    4 type  2   force =    -0.00061544    0.00035532   -0.00634861
     atom    5 type  2   force =     0.00061506   -0.00035510    0.00634879
     atom    6 type  1   force =     0.00361019   -0.00208435    0.01249771

     Total force =     0.022705     Total SCF correction =     0.000017


     Computing stress (Cartesian axis) and pressure

          total   stress  (Ry/bohr**3)                   (kbar)     P=   13.89
   0.00007236  -0.00000640   0.00001041         10.64     -0.94      1.53
  -0.00000640   0.00006497  -0.00000601         -0.94      9.56     -0.88
   0.00001041  -0.00000601   0.00014588          1.53     -0.88     21.46


     number of scf cycles    =   3
     number of bfgs steps    =   2

     enthalpy old            =    -702.4171124429 Ry
     enthalpy new            =    -702.4267325611 Ry

     CASE: enthalpy_new < enthalpy_old

     new trust radius        =       0.0200764313 bohr
     new conv_thr            =            1.0E-10 Ry

     new unit-cell volume =    715.63978 a.u.^3 (   106.04687 Ang^3 )
     density =      5.90766 g/cm^3

CELL_PARAMETERS (alat=  1.88972599)
  -2.917621922   0.001655204   4.790377466
  -1.460244410   2.525907291   4.790377466
  -4.386178674   2.532361627  -4.795468276

ATOMIC_POSITIONS (angstrom)
Ti      -4.381869875   2.529873941   0.006634169
Ti      -5.844695028   3.374436500   2.381483862
Nb      -4.386281513   2.532421001   4.765120460
Ti      -5.840344097   3.371924489   7.177941449
Ti      -8.764087120   5.059948436   4.790931590
Nb      -1.454104721   0.839527816   2.418466174


     NEW-OLD atomic charge density approx. for the potential
     extrapolated charge   74.58504, renormalised to   74.00000

     total cpu time spent up to now is     6272.9 secs

     Self-consistent Calculation

     iteration #  1     ecut=    40.00 Ry     beta= 0.60
     Davidson diagonalization with overlap
     c_bands:  1 eigenvalues not converged
     c_bands:  1 eigenvalues not converged
     c_bands:  1 eigenvalues not converged
     c_bands:  1 eigenvalues not converged
     c_bands:  1 eigenvalues not converged
     c_bands:  1 eigenvalues not converged
     c_bands:  2 eigenvalues not converged
     c_bands:  1 eigenvalues not converged
     c_bands:  1 eigenvalues not converged
     c_bands:  1 eigenvalues not converged
     c_bands:  1 eigenvalues not converged
     c_bands:  1 eigenvalues not converged
     c_bands:  1 eigenvalues not converged
     c_bands:  1 eigenvalues not converged
     c_bands:  1 eigenvalues not converged
     c_bands:  1 eigenvalues not converged
     ethr =  1.00E-06,  avg # of iterations =  8.2

     total cpu time spent up to now is     6386.7 secs

     total energy              =    -702.39640347 Ry
     Harris-Foulkes estimate   =    -701.30009474 Ry
     estimated scf accuracy    <       0.02634543 Ry

     iteration #  2     ecut=    40.00 Ry     beta= 0.60
     Davidson diagonalization with overlap
     c_bands:  1 eigenvalues not converged
     c_bands:  1 eigenvalues not converged
     c_bands:  1 eigenvalues not converged
     c_bands:  1 eigenvalues not converged
     ethr =  3.56E-05,  avg # of iterations =  7.3

     total cpu time spent up to now is     6485.3 secs

     total energy              =    -702.39183291 Ry
     Harris-Foulkes estimate   =    -702.47049148 Ry
     estimated scf accuracy    <       0.45179035 Ry

     iteration #  3     ecut=    40.00 Ry     beta= 0.60
     Davidson diagonalization with overlap
     ethr =  3.56E-05,  avg # of iterations =  5.7

     total cpu time spent up to now is     6568.9 secs

     total energy              =    -702.42159013 Ry
     Harris-Foulkes estimate   =    -702.43861300 Ry
     estimated scf accuracy    <       0.07535919 Ry

     iteration #  4     ecut=    40.00 Ry     beta= 0.60
     Davidson diagonalization with overlap
     ethr =  3.56E-05,  avg # of iterations =  5.8

     total cpu time spent up to now is     6640.3 secs

     total energy              =    -702.42481865 Ry
     Harris-Foulkes estimate   =    -702.43281178 Ry
     estimated scf accuracy    <       0.07219600 Ry

     iteration #  5     ecut=    40.00 Ry     beta= 0.60
     Davidson diagonalization with overlap
     ethr =  3.56E-05,  avg # of iterations =  3.7

     total cpu time spent up to now is     6692.3 secs

     total energy              =    -702.42791712 Ry
     Harris-Foulkes estimate   =    -702.42867148 Ry
     estimated scf accuracy    <       0.00763073 Ry

     iteration #  6     ecut=    40.00 Ry     beta= 0.60
     Davidson diagonalization with overlap
     ethr =  1.03E-05,  avg # of iterations =  4.9

     total cpu time spent up to now is     6750.7 secs

     total energy              =    -702.42811078 Ry
     Harris-Foulkes estimate   =    -702.42855047 Ry
     estimated scf accuracy    <       0.00641335 Ry

     iteration #  7     ecut=    40.00 Ry     beta= 0.60
     Davidson diagonalization with overlap
     ethr =  8.67E-06,  avg # of iterations =  1.2

     total cpu time spent up to now is     6795.5 secs

     total energy              =    -702.42776706 Ry
     Harris-Foulkes estimate   =    -702.42817975 Ry
     estimated scf accuracy    <       0.00461531 Ry

     iteration #  8     ecut=    40.00 Ry     beta= 0.60
     Davidson diagonalization with overlap
     ethr =  6.24E-06,  avg # of iterations =  1.1

     total cpu time spent up to now is     6840.3 secs

     total energy              =    -702.42746822 Ry
     Harris-Foulkes estimate   =    -702.42782910 Ry
     estimated scf accuracy    <       0.00282422 Ry

     iteration #  9     ecut=    40.00 Ry     beta= 0.60
     Davidson diagonalization with overlap
     ethr =  3.82E-06,  avg # of iterations =  2.0

     total cpu time spent up to now is     6886.8 secs

     total energy              =    -702.42740697 Ry
     Harris-Foulkes estimate   =    -702.42754423 Ry
     estimated scf accuracy    <       0.00119104 Ry

     iteration # 10     ecut=    40.00 Ry     beta= 0.60
     Davidson diagonalization with overlap
     c_bands:  1 eigenvalues not converged
     ethr =  1.61E-06,  avg # of iterations =  4.7

     total cpu time spent up to now is     6943.8 secs

     total energy              =    -702.42735949 Ry
     Harris-Foulkes estimate   =    -702.42748597 Ry
     estimated scf accuracy    <       0.00032453 Ry

     iteration # 11     ecut=    40.00 Ry     beta= 0.60
     Davidson diagonalization with overlap
     ethr =  4.39E-07,  avg # of iterations =  5.3

     total cpu time spent up to now is     7013.0 secs

     total energy              =    -702.42746456 Ry
     Harris-Foulkes estimate   =    -702.42747005 Ry
     estimated scf accuracy    <       0.00021698 Ry

     iteration # 12     ecut=    40.00 Ry     beta= 0.60
     Davidson diagonalization with overlap
     ethr =  2.93E-07,  avg # of iterations =  1.0

     total cpu time spent up to now is     7057.1 secs

     total energy              =    -702.42746233 Ry
     Harris-Foulkes estimate   =    -702.42746668 Ry
     estimated scf accuracy    <       0.00017734 Ry

     iteration # 13     ecut=    40.00 Ry     beta= 0.60
     Davidson diagonalization with overlap
     ethr =  2.40E-07,  avg # of iterations =  1.0

     total cpu time spent up to now is     7101.2 secs

     total energy              =    -702.42745466 Ry
     Harris-Foulkes estimate   =    -702.42746305 Ry
     estimated scf accuracy    <       0.00014621 Ry

     iteration # 14     ecut=    40.00 Ry     beta= 0.60
     Davidson diagonalization with overlap
     ethr =  1.98E-07,  avg # of iterations =  1.0

     total cpu time spent up to now is     7145.3 secs

     total energy              =    -702.42742765 Ry
     Harris-Foulkes estimate   =    -702.42745606 Ry
     estimated scf accuracy    <       0.00007738 Ry

     iteration # 15     ecut=    40.00 Ry     beta= 0.60
     Davidson diagonalization with overlap
     ethr =  1.05E-07,  avg # of iterations =  4.8

     total cpu time spent up to now is     7212.7 secs

     total energy              =    -702.42741761 Ry
     Harris-Foulkes estimate   =    -702.42749184 Ry
     estimated scf accuracy    <       0.00049356 Ry

     iteration # 16     ecut=    40.00 Ry     beta= 0.60
     Davidson diagonalization with overlap
     ethr =  1.05E-07,  avg # of iterations =  4.5

     total cpu time spent up to now is     7277.8 secs

     total energy              =    -702.42745384 Ry
     Harris-Foulkes estimate   =    -702.42745414 Ry
     estimated scf accuracy    <       0.00000146 Ry

     iteration # 17     ecut=    40.00 Ry     beta= 0.60
     Davidson diagonalization with overlap
     ethr =  1.97E-09,  avg # of iterations =  5.1

     total cpu time spent up to now is     7343.3 secs

     total energy              =    -702.42745426 Ry
     Harris-Foulkes estimate   =    -702.42745426 Ry
     estimated scf accuracy    <       0.00000006 Ry

     iteration # 18     ecut=    40.00 Ry     beta= 0.60
     Davidson diagonalization with overlap
     ethr =  7.79E-11,  avg # of iterations =  5.5

     total cpu time spent up to now is     7420.2 secs

     total energy              =    -702.42745427 Ry
     Harris-Foulkes estimate   =    -702.42745428 Ry
     estimated scf accuracy    <       0.00000008 Ry

     iteration # 19     ecut=    40.00 Ry     beta= 0.60
     Davidson diagonalization with overlap
     ethr =  7.79E-11,  avg # of iterations =  4.5

     total cpu time spent up to now is     7481.0 secs

     total energy              =    -702.42745426 Ry
     Harris-Foulkes estimate   =    -702.42745429 Ry
     estimated scf accuracy    <       0.00000028 Ry

     iteration # 20     ecut=    40.00 Ry     beta= 0.60
     Davidson diagonalization with overlap
     ethr =  7.79E-11,  avg # of iterations =  4.3

     total cpu time spent up to now is     7538.4 secs

     total energy              =    -702.42745428 Ry
     Harris-Foulkes estimate   =    -702.42745428 Ry
     estimated scf accuracy    <       0.00000001 Ry

     iteration # 21     ecut=    40.00 Ry     beta= 0.60
     Davidson diagonalization with overlap
     ethr =  1.96E-11,  avg # of iterations =  3.2

     total cpu time spent up to now is     7589.9 secs

     total energy              =    -702.42745428 Ry
     Harris-Foulkes estimate   =    -702.42745428 Ry
     estimated scf accuracy    <          9.4E-09 Ry

     iteration # 22     ecut=    40.00 Ry     beta= 0.60
     Davidson diagonalization with overlap
     ethr =  1.27E-11,  avg # of iterations =  1.1

     total cpu time spent up to now is     7634.5 secs

     total energy              =    -702.42745428 Ry
     Harris-Foulkes estimate   =    -702.42745428 Ry
     estimated scf accuracy    <          3.2E-09 Ry

     iteration # 23     ecut=    40.00 Ry     beta= 0.60
     Davidson diagonalization with overlap
     ethr =  4.38E-12,  avg # of iterations =  4.1

     total cpu time spent up to now is     7695.1 secs

     total energy              =    -702.42745428 Ry
     Harris-Foulkes estimate   =    -702.42745428 Ry
     estimated scf accuracy    <          7.8E-10 Ry

     iteration # 24     ecut=    40.00 Ry     beta= 0.60
     Davidson diagonalization with overlap
     ethr =  1.05E-12,  avg # of iterations =  2.4

     total cpu time spent up to now is     7744.7 secs

     total energy              =    -702.42745428 Ry
     Harris-Foulkes estimate   =    -702.42745428 Ry
     estimated scf accuracy    <          1.7E-10 Ry

     iteration # 25     ecut=    40.00 Ry     beta= 0.60
     Davidson diagonalization with overlap
     ethr =  2.36E-13,  avg # of iterations =  4.0

     total cpu time spent up to now is     7804.0 secs

     End of self-consistent calculation

     Number of k-points >= 100: set verbosity='high' to print the bands.

     the Fermi energy is    15.0006 ev

!    total energy              =    -702.42745428 Ry
     Harris-Foulkes estimate   =    -702.42745428 Ry
     estimated scf accuracy    <          5.3E-12 Ry

     The total energy is the sum of the following terms:

     one-electron contribution =    -199.84332792 Ry
     hartree contribution      =     128.17347231 Ry
     xc contribution           =     -94.94357954 Ry
     ewald contribution        =    -535.80905004 Ry
     smearing contrib. (-TS)   =      -0.00496909 Ry

     convergence has been achieved in  25 iterations

     Forces acting on atoms (cartesian axes, Ry/au):

     atom    1 type  2   force =    -0.00037019    0.00021373    0.00563561
     atom    2 type  2   force =     0.00037016   -0.00021371   -0.00563542
     atom    3 type  1   force =    -0.00325174    0.00187740   -0.01038510
     atom    4 type  2   force =     0.00020553   -0.00011866   -0.00626446
     atom    5 type  2   force =    -0.00020555    0.00011867    0.00626422
     atom    6 type  1   force =     0.00325179   -0.00187742    0.01038514

     Total force =     0.019657     Total SCF correction =     0.000005


     Computing stress (Cartesian axis) and pressure

          total   stress  (Ry/bohr**3)                   (kbar)     P=    2.04
  -0.00000309  -0.00000788   0.00001101         -0.45     -1.16      1.62
  -0.00000788  -0.00001219  -0.00000636         -1.16     -1.79     -0.93
   0.00001101  -0.00000636   0.00005692          1.62     -0.93      8.37


     number of scf cycles    =   4
     number of bfgs steps    =   3

     enthalpy old            =    -702.4267325611 Ry
     enthalpy new            =    -702.4274542781 Ry

     CASE: enthalpy_new < enthalpy_old

     new trust radius        =       0.0271077101 bohr
     new conv_thr            =            1.0E-10 Ry

     new unit-cell volume =    719.30214 a.u.^3 (   106.58958 Ang^3 )
     density =      5.87759 g/cm^3

CELL_PARAMETERS (alat=  1.88972599)
  -2.916317256   0.001198336   4.809616950
  -1.459196417   2.525005851   4.809616950
  -4.393142610   2.536382257  -4.820418891

ATOMIC_POSITIONS (angstrom)
Ti      -4.386213878   2.532381952   0.010161345
Ti      -5.847801228   3.376229865   2.379644420
Nb      -4.391181499   2.535250009   4.768749094
Ti      -5.840843861   3.372213028   7.196775712
Ti      -8.768685021   5.062603035   4.812263748
Nb      -1.449690805   0.836979440   2.441475817


     NEW-OLD atomic charge density approx. for the potential
     extrapolated charge   74.35638, renormalised to   74.00000

     total cpu time spent up to now is     7822.6 secs

     Self-consistent Calculation

     iteration #  1     ecut=    40.00 Ry     beta= 0.60
     Davidson diagonalization with overlap
     c_bands:  1 eigenvalues not converged
     c_bands:  1 eigenvalues not converged
     c_bands:  1 eigenvalues not converged
     c_bands:  1 eigenvalues not converged
     c_bands:  1 eigenvalues not converged
     c_bands:  1 eigenvalues not converged
     c_bands:  1 eigenvalues not converged
     c_bands:  1 eigenvalues not converged
     c_bands:  1 eigenvalues not converged
     ethr =  1.00E-06,  avg # of iterations =  8.2

     total cpu time spent up to now is     7937.7 secs

     total energy              =    -702.41624451 Ry
     Harris-Foulkes estimate   =    -701.73678803 Ry
[...]
     c_bands:  1 eigenvalues not converged
     c_bands:  1 eigenvalues not converged
     c_bands:  1 eigenvalues not converged
     c_bands:  1 eigenvalues not converged
     c_bands:  1 eigenvalues not converged
     c_bands:  1 eigenvalues not converged
     c_bands:  1 eigenvalues not converged
     c_bands:  1 eigenvalues not converged
     c_bands:  2 eigenvalues not converged
     c_bands:  1 eigenvalues not converged
     c_bands:  1 eigenvalues not converged
     c_bands:  1 eigenvalues not converged
     c_bands:  2 eigenvalues not converged
     c_bands:  2 eigenvalues not converged
     c_bands:  1 eigenvalues not converged
     c_bands:  1 eigenvalues not converged
     c_bands:  1 eigenvalues not converged
     c_bands:  1 eigenvalues not converged
     c_bands:  3 eigenvalues not converged
     c_bands:  4 eigenvalues not converged
     c_bands:  2 eigenvalues not converged
     c_bands:  3 eigenvalues not converged
     c_bands:  1 eigenvalues not converged
     c_bands:  2 eigenvalues not converged
     c_bands:  1 eigenvalues not converged
     c_bands:  1 eigenvalues not converged
     c_bands:  1 eigenvalues not converged
     c_bands:  2 eigenvalues not converged
     c_bands:  2 eigenvalues not converged
     c_bands:  2 eigenvalues not converged
     c_bands:  1 eigenvalues not converged
     c_bands:  1 eigenvalues not converged
     c_bands:  2 eigenvalues not converged
     c_bands:  1 eigenvalues not converged
     c_bands:  1 eigenvalues not converged
     c_bands:  1 eigenvalues not converged
     c_bands:  2 eigenvalues not converged
     c_bands:  2 eigenvalues not converged
     c_bands:  1 eigenvalues not converged
     c_bands:  1 eigenvalues not converged
     c_bands:  1 eigenvalues not converged
     c_bands:  1 eigenvalues not converged
     c_bands:  1 eigenvalues not converged
     c_bands:  1 eigenvalues not converged
     c_bands:  1 eigenvalues not converged
     c_bands:  1 eigenvalues not converged
     c_bands:  1 eigenvalues not converged
     c_bands:  1 eigenvalues not converged
     c_bands:  1 eigenvalues not converged
     c_bands:  1 eigenvalues not converged
     c_bands:  1 eigenvalues not converged
     c_bands:  1 eigenvalues not converged
     c_bands:  1 eigenvalues not converged
     c_bands:  1 eigenvalues not converged
     c_bands:  1 eigenvalues not converged
     c_bands:  1 eigenvalues not converged
     c_bands:  1 eigenvalues not converged
     c_bands:  1 eigenvalues not converged
     c_bands:  1 eigenvalues not converged
     c_bands:  1 eigenvalues not converged
     c_bands:  1 eigenvalues not converged
     c_bands:  1 eigenvalues not converged
     c_bands:  1 eigenvalues not converged
     c_bands:  1 eigenvalues not converged
     c_bands:  1 eigenvalues not converged
     c_bands:  1 eigenvalues not converged
     c_bands:  1 eigenvalues not converged
     c_bands:  1 eigenvalues not converged
     c_bands:  1 eigenvalues not converged
     c_bands:  1 eigenvalues not converged
     c_bands:  1 eigenvalues not converged
     c_bands:  1 eigenvalues not converged
     c_bands:  1 eigenvalues not converged
     c_bands:  1 eigenvalues not converged
     c_bands:  1 eigenvalues not converged
     c_bands:  1 eigenvalues not converged
     c_bands:  1 eigenvalues not converged
     c_bands:  1 eigenvalues not converged
     c_bands:  1 eigenvalues not converged
     c_bands:  1 eigenvalues not converged
     c_bands:  1 eigenvalues not converged
     c_bands:  1 eigenvalues not converged
     c_bands:  1 eigenvalues not converged
     c_bands:  1 eigenvalues not converged
     c_bands:  1 eigenvalues not converged
     c_bands:  1 eigenvalues not converged
     c_bands:  1 eigenvalues not converged
     c_bands:  1 eigenvalues not converged
     ethr =  1.00E-06,  avg # of iterations = 19.2

     total cpu time spent up to now is    43285.4 secs

     total energy              =    -679.62535768 Ry
     Harris-Foulkes estimate   =    -706.04191449 Ry
     estimated scf accuracy    <      32.81310996 Ry

     iteration #  2     ecut=    40.00 Ry     beta= 0.60
     Davidson diagonalization with overlap
     ethr =  1.00E-02,  avg # of iterations =  7.3

     total cpu time spent up to now is    43394.9 secs

     total energy              =    -667.68039414 Ry
     Harris-Foulkes estimate   =    -755.07571439 Ry
     estimated scf accuracy    <     351.83036831 Ry

     iteration #  3     ecut=    40.00 Ry     beta= 0.60
     Davidson diagonalization with overlap
     ethr =  1.00E-02,  avg # of iterations =  5.6

     total cpu time spent up to now is    43488.2 secs

     total energy              =    -701.57336845 Ry
     Harris-Foulkes estimate   =    -704.24855925 Ry
     estimated scf accuracy    <      18.25911550 Ry

     iteration #  4     ecut=    40.00 Ry     beta= 0.60
     Davidson diagonalization with overlap
     ethr =  1.00E-02,  avg # of iterations =  3.2

     total cpu time spent up to now is    43540.0 secs

     total energy              =    -702.44188726 Ry
     Harris-Foulkes estimate   =    -702.64562075 Ry
     estimated scf accuracy    <       6.61943680 Ry

     iteration #  5     ecut=    40.00 Ry     beta= 0.60
     Davidson diagonalization with overlap
     ethr =  8.95E-03,  avg # of iterations =  1.0

     total cpu time spent up to now is    43582.8 secs

     total energy              =    -702.08676104 Ry
     Harris-Foulkes estimate   =    -702.51812758 Ry
     estimated scf accuracy    <       4.14269654 Ry

     iteration #  6     ecut=    40.00 Ry     beta= 0.60
     Davidson diagonalization with overlap
     ethr =  5.60E-03,  avg # of iterations =  3.4

     total cpu time spent up to now is    43632.6 secs

     total energy              =    -702.32905970 Ry
     Harris-Foulkes estimate   =    -702.36439224 Ry
     estimated scf accuracy    <       0.21947795 Ry

     iteration #  7     ecut=    40.00 Ry     beta= 0.60
     Davidson diagonalization with overlap
     ethr =  2.97E-04,  avg # of iterations =  6.2

     total cpu time spent up to now is    43715.2 secs

     total energy              =    -702.37143784 Ry
     Harris-Foulkes estimate   =    -702.45781195 Ry
     estimated scf accuracy    <       0.40710070 Ry

     iteration #  8     ecut=    40.00 Ry     beta= 0.60
     Davidson diagonalization with overlap
     ethr =  2.97E-04,  avg # of iterations =  5.4

     total cpu time spent up to now is    43781.8 secs

     total energy              =    -702.42393724 Ry
     Harris-Foulkes estimate   =    -702.47373875 Ry
     estimated scf accuracy    <       0.68230669 Ry

     iteration #  9     ecut=    40.00 Ry     beta= 0.60
     Davidson diagonalization with overlap
     ethr =  2.97E-04,  avg # of iterations =  1.0

     total cpu time spent up to now is    43824.9 secs

     total energy              =    -702.42860678 Ry
     Harris-Foulkes estimate   =    -702.43850375 Ry
     estimated scf accuracy    <       0.19622972 Ry

     iteration # 10     ecut=    40.00 Ry     beta= 0.60
     Davidson diagonalization with overlap
     ethr =  2.65E-04,  avg # of iterations =  1.5

     total cpu time spent up to now is    43868.9 secs

     total energy              =    -702.42152940 Ry
     Harris-Foulkes estimate   =    -702.43453845 Ry
     estimated scf accuracy    <       0.07441247 Ry

     iteration # 11     ecut=    40.00 Ry     beta= 0.60
     Davidson diagonalization with overlap
     ethr =  1.01E-04,  avg # of iterations =  5.2

     total cpu time spent up to now is    43936.1 secs

     total energy              =    -702.43606237 Ry
     Harris-Foulkes estimate   =    -702.44554358 Ry
     estimated scf accuracy    <       0.16227224 Ry

     iteration # 12     ecut=    40.00 Ry     beta= 0.60
     Davidson diagonalization with overlap
     ethr =  1.01E-04,  avg # of iterations =  1.0

     total cpu time spent up to now is    43979.1 secs

     total energy              =    -702.43652918 Ry
     Harris-Foulkes estimate   =    -702.43854078 Ry
     estimated scf accuracy    <       0.05170406 Ry

     iteration # 13     ecut=    40.00 Ry     beta= 0.60
     Davidson diagonalization with overlap
     ethr =  6.99E-05,  avg # of iterations =  1.1

     total cpu time spent up to now is    44022.4 secs

     total energy              =    -702.43643136 Ry
     Harris-Foulkes estimate   =    -702.43736073 Ry
     estimated scf accuracy    <       0.02397785 Ry

     iteration # 14     ecut=    40.00 Ry     beta= 0.60
     Davidson diagonalization with overlap
     ethr =  3.24E-05,  avg # of iterations =  2.5

     total cpu time spent up to now is    44069.0 secs

     total energy              =    -702.43635782 Ry
     Harris-Foulkes estimate   =    -702.43719048 Ry
     estimated scf accuracy    <       0.00912420 Ry

     iteration # 15     ecut=    40.00 Ry     beta= 0.60
     Davidson diagonalization with overlap
     ethr =  1.23E-05,  avg # of iterations =  6.0

     total cpu time spent up to now is    44134.7 secs

     total energy              =    -702.43754798 Ry
     Harris-Foulkes estimate   =    -702.43760575 Ry
     estimated scf accuracy    <       0.00082935 Ry

     iteration # 16     ecut=    40.00 Ry     beta= 0.60
     Davidson diagonalization with overlap
     c_bands:  1 eigenvalues not converged
     c_bands:  1 eigenvalues not converged
     c_bands:  1 eigenvalues not converged
     c_bands:  1 eigenvalues not converged
     c_bands:  1 eigenvalues not converged
     c_bands:  1 eigenvalues not converged
     c_bands:  1 eigenvalues not converged
     c_bands:  1 eigenvalues not converged
     ethr =  1.12E-06,  avg # of iterations =  4.6

     total cpu time spent up to now is    44188.2 secs

     total energy              =    -702.43756120 Ry
     Harris-Foulkes estimate   =    -702.43758695 Ry
     estimated scf accuracy    <       0.00040703 Ry

     iteration # 17     ecut=    40.00 Ry     beta= 0.60
     Davidson diagonalization with overlap
     ethr =  5.50E-07,  avg # of iterations =  1.3

     total cpu time spent up to now is    44232.6 secs

     total energy              =    -702.43755960 Ry
     Harris-Foulkes estimate   =    -702.43757236 Ry
     estimated scf accuracy    <       0.00017549 Ry

     iteration # 18     ecut=    40.00 Ry     beta= 0.60
     Davidson diagonalization with overlap
     ethr =  2.37E-07,  avg # of iterations =  3.3

     total cpu time spent up to now is    44283.2 secs

     total energy              =    -702.43757007 Ry
     Harris-Foulkes estimate   =    -702.43757115 Ry
     estimated scf accuracy    <       0.00001697 Ry

     iteration # 19     ecut=    40.00 Ry     beta= 0.60
     Davidson diagonalization with overlap
     ethr =  2.29E-08,  avg # of iterations =  4.2

     total cpu time spent up to now is    44341.7 secs

     total energy              =    -702.43757226 Ry
     Harris-Foulkes estimate   =    -702.43757300 Ry
     estimated scf accuracy    <       0.00000540 Ry

     iteration # 20     ecut=    40.00 Ry     beta= 0.60
     Davidson diagonalization with overlap
     ethr =  7.29E-09,  avg # of iterations =  3.6

     total cpu time spent up to now is    44393.0 secs

     total energy              =    -702.43757245 Ry
     Harris-Foulkes estimate   =    -702.43757309 Ry
     estimated scf accuracy    <       0.00000496 Ry

     iteration # 21     ecut=    40.00 Ry     beta= 0.60
     Davidson diagonalization with overlap
     ethr =  6.70E-09,  avg # of iterations =  1.4

     total cpu time spent up to now is    44436.9 secs

     total energy              =    -702.43757272 Ry
     Harris-Foulkes estimate   =    -702.43757281 Ry
     estimated scf accuracy    <       0.00000065 Ry

     iteration # 22     ecut=    40.00 Ry     beta= 0.60
     Davidson diagonalization with overlap
     ethr =  8.79E-10,  avg # of iterations =  4.5

     total cpu time spent up to now is    44499.6 secs

     total energy              =    -702.43757280 Ry
     Harris-Foulkes estimate   =    -702.43757291 Ry
     estimated scf accuracy    <       0.00000069 Ry

     iteration # 23     ecut=    40.00 Ry     beta= 0.60
     Davidson diagonalization with overlap
     ethr =  8.79E-10,  avg # of iterations =  1.0

     total cpu time spent up to now is    44543.2 secs

     total energy              =    -702.43757283 Ry
     Harris-Foulkes estimate   =    -702.43757284 Ry
     estimated scf accuracy    <       0.00000009 Ry

     iteration # 24     ecut=    40.00 Ry     beta= 0.60
     Davidson diagonalization with overlap
     ethr =  1.15E-10,  avg # of iterations =  4.4

     total cpu time spent up to now is    44609.5 secs

     total energy              =    -702.43757285 Ry
     Harris-Foulkes estimate   =    -702.43757286 Ry
     estimated scf accuracy    <       0.00000005 Ry

     iteration # 25     ecut=    40.00 Ry     beta= 0.60
     Davidson diagonalization with overlap
     ethr =  6.25E-11,  avg # of iterations =  1.0

     total cpu time spent up to now is    44663.5 secs

     total energy              =    -702.43757285 Ry
     Harris-Foulkes estimate   =    -702.43757285 Ry
     estimated scf accuracy    <       0.00000002 Ry

     iteration # 26     ecut=    40.00 Ry     beta= 0.60
     Davidson diagonalization with overlap
     ethr =  3.31E-11,  avg # of iterations =  2.4

     total cpu time spent up to now is    44715.1 secs

     total energy              =    -702.43757285 Ry
     Harris-Foulkes estimate   =    -702.43757285 Ry
     estimated scf accuracy    <          3.1E-09 Ry

     iteration # 27     ecut=    40.00 Ry     beta= 0.60
     Davidson diagonalization with overlap
     ethr =  4.23E-12,  avg # of iterations =  4.4

     total cpu time spent up to now is    44780.2 secs

     total energy              =    -702.43757285 Ry
     Harris-Foulkes estimate   =    -702.43757285 Ry
     estimated scf accuracy    <          1.4E-09 Ry

     iteration # 28     ecut=    40.00 Ry     beta= 0.60
     Davidson diagonalization with overlap
     ethr =  1.87E-12,  avg # of iterations =  1.3

     total cpu time spent up to now is    44829.5 secs

     total energy              =    -702.43757285 Ry
     Harris-Foulkes estimate   =    -702.43757285 Ry
     estimated scf accuracy    <          2.6E-10 Ry

     iteration # 29     ecut=    40.00 Ry     beta= 0.60
     Davidson diagonalization with overlap
     ethr =  3.47E-13,  avg # of iterations =  4.2

     total cpu time spent up to now is    44899.6 secs

     total energy              =    -702.43757285 Ry
     Harris-Foulkes estimate   =    -702.43757285 Ry
     estimated scf accuracy    <          3.1E-10 Ry

     iteration # 30     ecut=    40.00 Ry     beta= 0.60
     Davidson diagonalization with overlap
     ethr =  3.47E-13,  avg # of iterations =  1.0

     total cpu time spent up to now is    44942.9 secs

     total energy              =    -702.43757285 Ry
     Harris-Foulkes estimate   =    -702.43757285 Ry
     estimated scf accuracy    <          3.6E-11 Ry

     iteration # 31     ecut=    40.00 Ry     beta= 0.60
     Davidson diagonalization with overlap
     ethr =  1.00E-13,  avg # of iterations =  3.3

     total cpu time spent up to now is    44993.8 secs

     total energy              =    -702.43757285 Ry
     Harris-Foulkes estimate   =    -702.43757285 Ry
     estimated scf accuracy    <          4.9E-12 Ry

     iteration # 32     ecut=    40.00 Ry     beta= 0.60
     Davidson diagonalization with overlap
     ethr =  1.00E-13,  avg # of iterations =  1.0

     total cpu time spent up to now is    45036.7 secs

     End of self-consistent calculation

     Number of k-points >= 100: set verbosity='high' to print the bands.

     the Fermi energy is    14.9598 ev

!    total energy              =    -702.43757285 Ry
     Harris-Foulkes estimate   =    -702.43757285 Ry
     estimated scf accuracy    <          4.8E-13 Ry

     The total energy is the sum of the following terms:

     one-electron contribution =    -199.29673744 Ry
     hartree contribution      =     128.14863365 Ry
     xc contribution           =     -94.97986818 Ry
     ewald contribution        =    -536.31022271 Ry
     smearing contrib. (-TS)   =       0.00062183 Ry

     convergence has been achieved in  32 iterations

     Forces acting on atoms (cartesian axes, Ry/au):

     atom    1 type  2   force =     0.00009330   -0.00005387   -0.00017260
     atom    2 type  2   force =    -0.00009361    0.00005405    0.00017263
     atom    3 type  1   force =    -0.00002760    0.00001594    0.00004191
     atom    4 type  2   force =     0.00013580   -0.00007840    0.00002126
     atom    5 type  2   force =    -0.00013561    0.00007829   -0.00002123
     atom    6 type  1   force =     0.00002772   -0.00001601   -0.00004198

     Total force =     0.000372     Total SCF correction =     0.000004


     Computing stress (Cartesian axis) and pressure

          total   stress  (Ry/bohr**3)                   (kbar)     P=   -4.74
  -0.00002408  -0.00001154   0.00000205         -3.54     -1.70      0.30
  -0.00001154  -0.00003740  -0.00000119         -1.70     -5.50     -0.17
   0.00000205  -0.00000119  -0.00003524          0.30     -0.17     -5.18

 
     init_run     :     50.16s CPU     51.21s WALL (       2 calls)
     electrons    :  43119.60s CPU  44371.10s WALL (      34 calls)
     update_pot   :     45.51s CPU     46.37s WALL (      32 calls)
     forces       :    146.64s CPU    149.90s WALL (      34 calls)
     stress       :    389.99s CPU    399.62s WALL (      34 calls)

     Called by init_run:
     wfcinit      :     47.48s CPU     48.30s WALL (       2 calls)
     potinit      :      0.80s CPU      0.93s WALL (       2 calls)
     hinit0       :      1.42s CPU      1.44s WALL (       2 calls)

     Called by electrons:
     c_bands      :  36807.84s CPU  37762.77s WALL (     732 calls)
     sum_band     :   6115.05s CPU   6250.35s WALL (     732 calls)
     v_of_rho     :     44.02s CPU     44.29s WALL (     756 calls)
     newd         :    153.83s CPU    216.74s WALL (     756 calls)
     mix_rho      :      4.52s CPU      4.55s WALL (     732 calls)

     Called by c_bands:
     init_us_2    :    364.93s CPU    368.84s WALL (  610532 calls)
     cegterg      :  34435.04s CPU  34841.14s WALL (  291336 calls)

     Called by sum_band:
     sum_band:bec :     11.98s CPU     12.28s WALL (  291336 calls)
     addusdens    :    174.68s CPU    231.68s WALL (     732 calls)

     Called by *egterg:
     h_psi        :  25166.38s CPU  25537.64s WALL ( 1327543 calls)
     s_psi        :    828.53s CPU    830.26s WALL ( 1327543 calls)
     g_psi        :    140.06s CPU    143.31s WALL ( 1035411 calls)
     cdiaghg      :   5093.73s CPU   5101.16s WALL ( 1310031 calls)

     Called by h_psi:
     h_psi:pot    :  25101.32s CPU  25471.31s WALL ( 1327543 calls)
     h_psi:calbec :    963.77s CPU    971.36s WALL ( 1327543 calls)
     vloc_psi     :  23290.80s CPU  23647.50s WALL ( 1327543 calls)
     add_vuspsi   :    841.33s CPU    845.10s WALL ( 1327543 calls)

     General routines
     calbec       :   1379.58s CPU   1388.11s WALL ( 1686539 calls)
     fft          :     24.77s CPU     25.15s WALL (   10686 calls)
     ffts         :      0.84s CPU      0.85s WALL (    1488 calls)
     fftw         :  25622.38s CPU  25957.29s WALL (78946042 calls)
     interpolate  :      2.23s CPU      2.25s WALL (     756 calls)
 
     Parallel routines
     fft_scatt_xy :   5074.10s CPU   5116.43s WALL (78958216 calls)
     fft_scatt_yz :   4349.27s CPU   4353.48s WALL (78958216 calls)
 
     PWSCF        :    12h 9m CPU        9h12m WALL

      30h
 
   This run was terminated on:  22:13:11  18Feb2020            

=------------------------------------------------------------------------------=
   JOB DONE.
=------------------------------------------------------------------------------=
