
     Program PWSCF v.6.3MaX starts on 28Jan2020 at 13:50:52 

     This program is part of the open-source Quantum ESPRESSO suite
     for quantum simulation of materials; please cite
         "P. Giannozzi et al., J. Phys.:Condens. Matter 21 395502 (2009);
         "P. Giannozzi et al., J. Phys.:Condens. Matter 29 465901 (2017);
          URL http://www.quantum-espresso.org", 
     in publications or presentations arising from this work. More details at
     http://www.quantum-espresso.org/quote

     Parallel version (MPI), running on     4 processors

     MPI processes distributed on     1 nodes
     R & G space division:  proc/nbgrp/npool/nimage =       4
     Waiting for input...
     Reading input from standard input

     Current dimensions of program PWSCF are:
     Max number of different atomic species (ntypx) = 10
     Max number of k-points (npk) =  40000
     Max angular momentum in pseudopotentials (lmaxx) =  3
     Message from routine iosys:
     minimal I/O required, wf_collect reset to FALSE

     Subspace diagonalization in iterative solution of the eigenvalue problem:
     a serial algorithm will be used

 
     Parallelization info
     --------------------
     sticks:   dense  smooth     PW     G-vecs:    dense   smooth      PW
     Min         910     364    105                36370     9180    1427
     Max         911     365    106                36375     9183    1428
     Sum        3643    1459    421               145493    36727    5709
 


     bravais-lattice index     =            0
     lattice parameter (alat)  =       1.8897  a.u.
     unit-cell volume          =    1077.7903 (a.u.)^3
     number of atoms/cell      =            8
     number of atomic types    =            2
     number of electrons       =       100.00
     number of Kohn-Sham states=           60
     kinetic-energy cutoff     =      40.0000  Ry
     charge density cutoff     =     400.0000  Ry
     convergence threshold     =      1.0E-10
     mixing beta               =       0.6000
     number of iterations used =            8  plain     mixing
     Exchange-correlation      = SLA PW PBE PBE ( 1  4  3  4 0 0)
     nstep                     =           50


     celldm(1)=   1.889726  celldm(2)=   0.000000  celldm(3)=   0.000000
     celldm(4)=   0.000000  celldm(5)=   0.000000  celldm(6)=   0.000000

     crystal axes: (cart. coord. in units of alat)
               a(1) = (   3.045004  -5.274102   0.000000 )  
               a(2) = (  -6.090008   0.000000   0.000000 )  
               a(3) = (   0.000000   0.000000  -4.972461 )  

     reciprocal axes: (cart. coord. in units 2 pi/alat)
               b(1) = (  0.000000 -0.189606  0.000000 )  
               b(2) = ( -0.164203 -0.094803  0.000000 )  
               b(3) = (  0.000000  0.000000 -0.201108 )  


     PseudoPot. # 1 for Nb read from file:
     ./Nb.pbe-nsp-van.UPF
     MD5 check sum: 0a22fc7fb0ba19a08ca5db297a5d2854
     Pseudo is Ultrasoft + core correction, Zval = 13.0
     Generated by new atomic code, or converted to UPF format
     Using radial grid of  887 points,  6 beta functions with: 
                l(1) =   0
                l(2) =   0
                l(3) =   1
                l(4) =   1
                l(5) =   2
                l(6) =   2
     Q(r) pseudized with  6 coefficients,  rinner =    1.000   1.000   1.000
                                                       1.000   1.000

     PseudoPot. # 2 for Ti read from file:
     ./Ti.pbe-sp-van_ak.UPF
     MD5 check sum: f98fea3e8887528921fefa5636a534ca
     Pseudo is Ultrasoft, Zval = 12.0
     Generated by new atomic code, or converted to UPF format
     Using radial grid of  851 points,  6 beta functions with: 
                l(1) =   0
                l(2) =   0
                l(3) =   1
                l(4) =   1
                l(5) =   2
                l(6) =   2
     Q(r) pseudized with  8 coefficients,  rinner =    1.000   1.000   1.000
                                                       1.000   1.000

     atomic species   valence    mass     pseudopotential
        Nb            13.00    92.90638     Nb( 1.00)
        Ti            12.00    47.86700     Ti( 1.00)

      4 Sym. Ops. (no inversion) found
          (note:  8 additional sym.ops. were found but ignored
           their fractional translations are incommensurate with FFT grid)


   Cartesian axes

     site n.     atom                  positions (alat units)
         1           Ti  tau(   1) = (  -3.0450042  -5.2741024  -4.9724614  )
         2           Nb  tau(   2) = (   0.0000015  -1.7580350  -2.4862307  )
         3           Ti  tau(   3) = (   0.0000000  -5.2741024  -4.9724614  )
         4           Nb  tau(   4) = (  -3.0450027  -1.7580350  -2.4862307  )
         5           Ti  tau(   5) = (  -4.5675063  -2.6370512  -4.9724614  )
         6           Ti  tau(   6) = (   1.5225036  -4.3950862  -2.4862307  )
         7           Nb  tau(   7) = (  -1.5225021  -2.6370512  -4.9724614  )
         8           Nb  tau(   8) = (  -1.5225006  -4.3950862  -2.4862307  )

     number of k points=   217  Marzari-Vanderbilt smearing, width (Ry)=  0.0200

     Number of k-points >= 100: set verbosity='high' to print them.

     Dense  grid:   145493 G-vectors     FFT dimensions: (  75,  75,  60)

     Smooth grid:    36727 G-vectors     FFT dimensions: (  48,  48,  40)

     Estimated max dynamical RAM per process >     371.77 MB

     Estimated total dynamical RAM >       1.45 GB

     Initial potential from superposition of free atoms

     starting charge   95.98889, renormalised to  100.00000
     Starting wfcs are   92 randomized atomic wfcs

     total cpu time spent up to now is       21.0 secs

     Self-consistent Calculation

     iteration #  1     ecut=    40.00 Ry     beta= 0.60
     Davidson diagonalization with overlap
     ethr =  1.00E-02,  avg # of iterations =  3.1

     total cpu time spent up to now is       64.4 secs

     total energy              =    -911.76076272 Ry
     Harris-Foulkes estimate   =    -942.73551898 Ry
     estimated scf accuracy    <      38.88925076 Ry

     iteration #  2     ecut=    40.00 Ry     beta= 0.60
     Davidson diagonalization with overlap
     ethr =  1.00E-02,  avg # of iterations =  6.4

     total cpu time spent up to now is      143.2 secs

     total energy              =    -920.77292749 Ry
     Harris-Foulkes estimate   =    -982.65867424 Ry
     estimated scf accuracy    <     194.21002435 Ry

     iteration #  3     ecut=    40.00 Ry     beta= 0.60
     Davidson diagonalization with overlap
     ethr =  1.00E-02,  avg # of iterations =  5.0

     total cpu time spent up to now is      203.6 secs

     total energy              =    -939.60473889 Ry
     Harris-Foulkes estimate   =    -942.91628473 Ry
     estimated scf accuracy    <      23.52562617 Ry

     iteration #  4     ecut=    40.00 Ry     beta= 0.60
     Davidson diagonalization with overlap
     ethr =  1.00E-02,  avg # of iterations =  1.3

     total cpu time spent up to now is      234.9 secs

     total energy              =    -939.43307930 Ry
     Harris-Foulkes estimate   =    -940.40141645 Ry
     estimated scf accuracy    <      17.92313839 Ry

     iteration #  5     ecut=    40.00 Ry     beta= 0.60
     Davidson diagonalization with overlap
     ethr =  1.00E-02,  avg # of iterations =  1.0

     total cpu time spent up to now is      265.5 secs

     total energy              =    -939.84653704 Ry
     Harris-Foulkes estimate   =    -939.59523485 Ry
     estimated scf accuracy    <      14.01838430 Ry

     iteration #  6     ecut=    40.00 Ry     beta= 0.60
     Davidson diagonalization with overlap
     ethr =  1.00E-02,  avg # of iterations =  1.0

     total cpu time spent up to now is      295.2 secs

     total energy              =    -938.44267385 Ry
     Harris-Foulkes estimate   =    -939.87270184 Ry
     estimated scf accuracy    <      14.26000030 Ry

     iteration #  7     ecut=    40.00 Ry     beta= 0.60
     Davidson diagonalization with overlap
     ethr =  1.00E-02,  avg # of iterations =  1.4

     total cpu time spent up to now is      326.1 secs

     total energy              =    -936.42931564 Ry
     Harris-Foulkes estimate   =    -938.60165194 Ry
     estimated scf accuracy    <       8.49876057 Ry

     iteration #  8     ecut=    40.00 Ry     beta= 0.60
     Davidson diagonalization with overlap
     ethr =  8.50E-03,  avg # of iterations =  5.2

     total cpu time spent up to now is      382.4 secs

     total energy              =    -940.41495037 Ry
     Harris-Foulkes estimate   =    -939.65168835 Ry
     estimated scf accuracy    <      28.61056502 Ry

     iteration #  9     ecut=    40.00 Ry     beta= 0.60
     Davidson diagonalization with overlap
     ethr =  8.50E-03,  avg # of iterations =  1.1

     total cpu time spent up to now is      412.4 secs

     total energy              =    -938.53098822 Ry
     Harris-Foulkes estimate   =    -940.56982651 Ry
     estimated scf accuracy    <      47.16308496 Ry

     iteration # 10     ecut=    40.00 Ry     beta= 0.60
     Davidson diagonalization with overlap
     ethr =  8.50E-03,  avg # of iterations =  1.0

     total cpu time spent up to now is      442.9 secs

     total energy              =    -940.62278126 Ry
     Harris-Foulkes estimate   =    -938.98464326 Ry
     estimated scf accuracy    <      17.77277831 Ry

     iteration # 11     ecut=    40.00 Ry     beta= 0.60
     Davidson diagonalization with overlap
     ethr =  8.50E-03,  avg # of iterations =  1.0

     total cpu time spent up to now is      473.4 secs

     total energy              =    -937.87794260 Ry
     Harris-Foulkes estimate   =    -941.29874161 Ry
     estimated scf accuracy    <      52.75759387 Ry

     iteration # 12     ecut=    40.00 Ry     beta= 0.60
     Davidson diagonalization with overlap
     ethr =  8.50E-03,  avg # of iterations =  1.0

     total cpu time spent up to now is      504.0 secs

     total energy              =    -938.83789624 Ry
     Harris-Foulkes estimate   =    -938.78124123 Ry
     estimated scf accuracy    <      12.42734178 Ry

     iteration # 13     ecut=    40.00 Ry     beta= 0.60
     Davidson diagonalization with overlap
     ethr =  8.50E-03,  avg # of iterations =  1.0

     total cpu time spent up to now is      534.5 secs

     total energy              =    -938.81062489 Ry
     Harris-Foulkes estimate   =    -938.89692223 Ry
     estimated scf accuracy    <      13.63374248 Ry

     iteration # 14     ecut=    40.00 Ry     beta= 0.60
     Davidson diagonalization with overlap
     ethr =  8.50E-03,  avg # of iterations =  1.0

     total cpu time spent up to now is      565.1 secs

     total energy              =    -936.37479445 Ry
     Harris-Foulkes estimate   =    -938.83554513 Ry
     estimated scf accuracy    <      12.27631767 Ry

     iteration # 15     ecut=    40.00 Ry     beta= 0.60
     Davidson diagonalization with overlap
     ethr =  8.50E-03,  avg # of iterations =  4.9

     total cpu time spent up to now is      610.1 secs

     total energy              =    -937.98261623 Ry
     Harris-Foulkes estimate   =    -938.60141293 Ry
     estimated scf accuracy    <       3.76568903 Ry

     iteration # 16     ecut=    40.00 Ry     beta= 0.60
     Davidson diagonalization with overlap
     ethr =  3.77E-03,  avg # of iterations =  3.1

     total cpu time spent up to now is      646.1 secs

     total energy              =    -937.91901229 Ry
     Harris-Foulkes estimate   =    -938.35694292 Ry
     estimated scf accuracy    <       2.14702454 Ry

     iteration # 17     ecut=    40.00 Ry     beta= 0.60
     Davidson diagonalization with overlap
     ethr =  2.15E-03,  avg # of iterations =  3.6

     total cpu time spent up to now is      684.4 secs

     total energy              =    -938.20918813 Ry
     Harris-Foulkes estimate   =    -938.28688831 Ry
     estimated scf accuracy    <       1.23599374 Ry

     iteration # 18     ecut=    40.00 Ry     beta= 0.60
     Davidson diagonalization with overlap
     ethr =  1.24E-03,  avg # of iterations =  1.2

     total cpu time spent up to now is      715.4 secs

     total energy              =    -938.09268834 Ry
     Harris-Foulkes estimate   =    -938.23110028 Ry
     estimated scf accuracy    <       0.74130780 Ry

     iteration # 19     ecut=    40.00 Ry     beta= 0.60
     Davidson diagonalization with overlap
     ethr =  7.41E-04,  avg # of iterations =  3.8

     total cpu time spent up to now is      756.5 secs

     total energy              =    -938.19143530 Ry
     Harris-Foulkes estimate   =    -938.20934182 Ry
     estimated scf accuracy    <       0.28167490 Ry

     iteration # 20     ecut=    40.00 Ry     beta= 0.60
     Davidson diagonalization with overlap
     ethr =  2.82E-04,  avg # of iterations =  3.2

     total cpu time spent up to now is      792.1 secs

     total energy              =    -938.20690039 Ry
     Harris-Foulkes estimate   =    -938.20187206 Ry
     estimated scf accuracy    <       0.13614179 Ry

     iteration # 21     ecut=    40.00 Ry     beta= 0.60
     Davidson diagonalization with overlap
     ethr =  1.36E-04,  avg # of iterations =  5.8

     total cpu time spent up to now is      841.5 secs

     total energy              =    -938.13943594 Ry
     Harris-Foulkes estimate   =    -938.23387047 Ry
     estimated scf accuracy    <       0.82423589 Ry

     iteration # 22     ecut=    40.00 Ry     beta= 0.60
     Davidson diagonalization with overlap
     ethr =  1.36E-04,  avg # of iterations =  5.1

     total cpu time spent up to now is      889.1 secs

     total energy              =    -938.18945836 Ry
     Harris-Foulkes estimate   =    -938.19145703 Ry
     estimated scf accuracy    <       0.01437209 Ry

     iteration # 23     ecut=    40.00 Ry     beta= 0.60
     Davidson diagonalization with overlap
     c_bands:  1 eigenvalues not converged
     c_bands:  1 eigenvalues not converged
     ethr =  1.44E-05,  avg # of iterations =  6.6

     total cpu time spent up to now is      939.0 secs

     total energy              =    -938.19040339 Ry
     Harris-Foulkes estimate   =    -938.19080433 Ry
     estimated scf accuracy    <       0.00450097 Ry

     iteration # 24     ecut=    40.00 Ry     beta= 0.60
     Davidson diagonalization with overlap
     c_bands:  2 eigenvalues not converged
     c_bands:  1 eigenvalues not converged
     c_bands:  1 eigenvalues not converged
     c_bands:  2 eigenvalues not converged
     c_bands:  2 eigenvalues not converged
     c_bands:  1 eigenvalues not converged
     ethr =  4.50E-06,  avg # of iterations =  6.2

     total cpu time spent up to now is      988.5 secs

     total energy              =    -938.19051917 Ry
     Harris-Foulkes estimate   =    -938.19108245 Ry
     estimated scf accuracy    <       0.00581135 Ry

     iteration # 25     ecut=    40.00 Ry     beta= 0.60
     Davidson diagonalization with overlap
     c_bands:  2 eigenvalues not converged
     ethr =  4.50E-06,  avg # of iterations =  1.2

     total cpu time spent up to now is     1019.5 secs

     total energy              =    -938.19049008 Ry
     Harris-Foulkes estimate   =    -938.19068249 Ry
     estimated scf accuracy    <       0.00165426 Ry

     iteration # 26     ecut=    40.00 Ry     beta= 0.60
     Davidson diagonalization with overlap
     c_bands:  1 eigenvalues not converged
     c_bands:  1 eigenvalues not converged
     c_bands:  2 eigenvalues not converged
     c_bands:  1 eigenvalues not converged
     ethr =  1.65E-06,  avg # of iterations =  4.9

     total cpu time spent up to now is     1064.7 secs

     total energy              =    -938.19069105 Ry
     Harris-Foulkes estimate   =    -938.19070608 Ry
     estimated scf accuracy    <       0.00014502 Ry

     iteration # 27     ecut=    40.00 Ry     beta= 0.60
     Davidson diagonalization with overlap
     ethr =  1.45E-07,  avg # of iterations =  3.2

     total cpu time spent up to now is     1102.9 secs

     total energy              =    -938.19069767 Ry
     Harris-Foulkes estimate   =    -938.19070266 Ry
     estimated scf accuracy    <       0.00004248 Ry

     iteration # 28     ecut=    40.00 Ry     beta= 0.60
     Davidson diagonalization with overlap
     ethr =  4.25E-08,  avg # of iterations =  4.0

     total cpu time spent up to now is     1144.3 secs

     total energy              =    -938.19070221 Ry
     Harris-Foulkes estimate   =    -938.19070252 Ry
     estimated scf accuracy    <       0.00000152 Ry

     iteration # 29     ecut=    40.00 Ry     beta= 0.60
     Davidson diagonalization with overlap
     ethr =  1.52E-09,  avg # of iterations =  5.4

     total cpu time spent up to now is     1197.8 secs

     total energy              =    -938.19070267 Ry
     Harris-Foulkes estimate   =    -938.19070286 Ry
     estimated scf accuracy    <       0.00000111 Ry

     iteration # 30     ecut=    40.00 Ry     beta= 0.60
     Davidson diagonalization with overlap
     ethr =  1.11E-09,  avg # of iterations =  2.5

     total cpu time spent up to now is     1231.9 secs

     total energy              =    -938.19070277 Ry
     Harris-Foulkes estimate   =    -938.19070277 Ry
     estimated scf accuracy    <       0.00000003 Ry

     iteration # 31     ecut=    40.00 Ry     beta= 0.60
     Davidson diagonalization with overlap
     ethr =  2.62E-11,  avg # of iterations =  5.7

     total cpu time spent up to now is     1293.5 secs

     total energy              =    -938.19070279 Ry
     Harris-Foulkes estimate   =    -938.19070280 Ry
     estimated scf accuracy    <       0.00000013 Ry

     iteration # 32     ecut=    40.00 Ry     beta= 0.60
     Davidson diagonalization with overlap
     ethr =  2.62E-11,  avg # of iterations =  4.2

     total cpu time spent up to now is     1340.0 secs

     total energy              =    -938.19070279 Ry
     Harris-Foulkes estimate   =    -938.19070279 Ry
     estimated scf accuracy    <       0.00000001 Ry

     iteration # 33     ecut=    40.00 Ry     beta= 0.60
     Davidson diagonalization with overlap
     ethr =  1.40E-11,  avg # of iterations =  2.0

     total cpu time spent up to now is     1372.6 secs

     total energy              =    -938.19070279 Ry
     Harris-Foulkes estimate   =    -938.19070279 Ry
     estimated scf accuracy    <          1.8E-09 Ry

     iteration # 34     ecut=    40.00 Ry     beta= 0.60
     Davidson diagonalization with overlap
     ethr =  1.79E-12,  avg # of iterations =  4.7

     total cpu time spent up to now is     1422.9 secs

     total energy              =    -938.19070279 Ry
     Harris-Foulkes estimate   =    -938.19070279 Ry
     estimated scf accuracy    <          3.7E-09 Ry

     iteration # 35     ecut=    40.00 Ry     beta= 0.60
     Davidson diagonalization with overlap
     ethr =  1.79E-12,  avg # of iterations =  2.6

     total cpu time spent up to now is     1457.0 secs

     total energy              =    -938.19070279 Ry
     Harris-Foulkes estimate   =    -938.19070279 Ry
     estimated scf accuracy    <          7.7E-10 Ry

     iteration # 36     ecut=    40.00 Ry     beta= 0.60
     Davidson diagonalization with overlap
     ethr =  7.70E-13,  avg # of iterations =  3.8

     total cpu time spent up to now is     1499.5 secs

     End of self-consistent calculation

     Number of k-points >= 100: set verbosity='high' to print the bands.

     the Fermi energy is    13.8272 ev

!    total energy              =    -938.19070279 Ry
     Harris-Foulkes estimate   =    -938.19070279 Ry
     estimated scf accuracy    <          6.9E-11 Ry

     The total energy is the sum of the following terms:

     one-electron contribution =    -272.73898564 Ry
     hartree contribution      =     170.21104709 Ry
     xc contribution           =    -130.99977137 Ry
     ewald contribution        =    -704.65574085 Ry
     smearing contrib. (-TS)   =      -0.00725202 Ry

     convergence has been achieved in  36 iterations

     Forces acting on atoms (cartesian axes, Ry/au):

     atom    1 type  2   force =     0.00039477   -0.00022792    0.00000000
     atom    2 type  1   force =     0.00546174    0.00315322    0.00000000
     atom    3 type  2   force =    -0.00039099   -0.00022217    0.00000000
     atom    4 type  1   force =    -0.00546263    0.00315385    0.00000000
     atom    5 type  2   force =    -0.00000309    0.00044970    0.00000000
     atom    6 type  2   force =     0.00000164   -0.00000094    0.00000000
     atom    7 type  1   force =    -0.00000154    0.00000089    0.00000000
     atom    8 type  1   force =     0.00000010   -0.00630662    0.00000000

     Total force =     0.010952     Total SCF correction =     0.000021


     Computing stress (Cartesian axis) and pressure

          total   stress  (Ry/bohr**3)                   (kbar)     P= -123.56
  -0.00089947  -0.00000000   0.00000000       -132.32     -0.00      0.00
  -0.00000000  -0.00089947   0.00000000         -0.00   -132.32      0.00
   0.00000000   0.00000000  -0.00072092          0.00      0.00   -106.05


     BFGS Geometry Optimization

     number of scf cycles    =   1
     number of bfgs steps    =   0

     enthalpy new            =    -938.1907027924 Ry

     new trust radius        =       0.1476469155 bohr
     new conv_thr            =            1.0E-10 Ry

     new unit-cell volume =   1011.30212 a.u.^3 (   149.85951 Ang^3 )
     density =      6.23944 g/cm^3

CELL_PARAMETERS (alat=  1.88972599)
   2.976532102  -5.155504589  -0.000000000
  -5.953063673   0.000000307  -0.000000000
   0.000000000   0.000000000  -4.882842539

ATOMIC_POSITIONS (angstrom)
Ti      -2.976327364  -5.155622180  -4.882842539
Nb       0.002826815  -1.716871246  -2.441421269
Ti      -0.000201987  -5.155619358  -4.882842539
Nb      -2.979355954  -1.716870769  -2.441421269
Ti      -4.464799222  -2.577519370  -4.882842539
Ti       1.488268474  -4.296255120  -2.441421269
Nb      -1.488266579  -2.577751682  -4.882842539
Nb      -1.488264156  -4.299516752  -2.441421269


     NEW-OLD atomic charge density approx. for the potential

     Check: negative/imaginary core charge=   -0.000001    0.000000
     extrapolated charge   93.68920, renormalised to  100.00000

     total cpu time spent up to now is     1521.7 secs

     Self-consistent Calculation

     iteration #  1     ecut=    40.00 Ry     beta= 0.60
     Davidson diagonalization with overlap
     c_bands:  1 eigenvalues not converged
     c_bands:  1 eigenvalues not converged
     c_bands:  1 eigenvalues not converged
     c_bands:  1 eigenvalues not converged
     c_bands:  1 eigenvalues not converged
     c_bands:  2 eigenvalues not converged
     c_bands:  1 eigenvalues not converged
     c_bands:  1 eigenvalues not converged
     c_bands:  2 eigenvalues not converged
     c_bands:  1 eigenvalues not converged
     c_bands:  2 eigenvalues not converged
     c_bands:  2 eigenvalues not converged
     c_bands:  2 eigenvalues not converged
     c_bands:  1 eigenvalues not converged
     c_bands:  1 eigenvalues not converged
     c_bands:  1 eigenvalues not converged
     c_bands:  1 eigenvalues not converged
     c_bands:  2 eigenvalues not converged
     c_bands:  1 eigenvalues not converged
     c_bands:  1 eigenvalues not converged
     c_bands:  2 eigenvalues not converged
     c_bands:  2 eigenvalues not converged
     c_bands:  1 eigenvalues not converged
     c_bands:  2 eigenvalues not converged
     c_bands:  1 eigenvalues not converged
     c_bands:  2 eigenvalues not converged
     c_bands:  1 eigenvalues not converged
     c_bands:  1 eigenvalues not converged
     c_bands:  2 eigenvalues not converged
     c_bands:  2 eigenvalues not converged
     c_bands:  1 eigenvalues not converged
     c_bands:  2 eigenvalues not converged
     c_bands:  2 eigenvalues not converged
     c_bands:  2 eigenvalues not converged
     c_bands:  2 eigenvalues not converged
     c_bands:  1 eigenvalues not converged
     c_bands:  2 eigenvalues not converged
     c_bands:  2 eigenvalues not converged
     c_bands:  3 eigenvalues not converged
     c_bands:  2 eigenvalues not converged
     c_bands:  2 eigenvalues not converged
     c_bands:  2 eigenvalues not converged
     c_bands:  1 eigenvalues not converged
     c_bands:  1 eigenvalues not converged
     c_bands:  3 eigenvalues not converged
     c_bands:  2 eigenvalues not converged
     c_bands:  2 eigenvalues not converged
     c_bands:  1 eigenvalues not converged
     c_bands:  1 eigenvalues not converged
     c_bands:  1 eigenvalues not converged
     c_bands:  1 eigenvalues not converged
     c_bands:  3 eigenvalues not converged
     c_bands:  1 eigenvalues not converged
     c_bands:  2 eigenvalues not converged
     c_bands:  2 eigenvalues not converged
     c_bands:  1 eigenvalues not converged
     c_bands:  1 eigenvalues not converged
     c_bands:  1 eigenvalues not converged
     c_bands:  1 eigenvalues not converged
     c_bands:  1 eigenvalues not converged
     c_bands:  2 eigenvalues not converged
     c_bands:  2 eigenvalues not converged
     c_bands:  1 eigenvalues not converged
     c_bands:  1 eigenvalues not converged
     c_bands:  1 eigenvalues not converged
     c_bands:  1 eigenvalues not converged
     c_bands:  1 eigenvalues not converged
     c_bands:  1 eigenvalues not converged
     c_bands:  2 eigenvalues not converged
     c_bands:  2 eigenvalues not converged
     c_bands:  2 eigenvalues not converged
     c_bands:  2 eigenvalues not converged
     c_bands:  1 eigenvalues not converged
     c_bands:  1 eigenvalues not converged
     c_bands:  2 eigenvalues not converged
     c_bands:  2 eigenvalues not converged
     c_bands:  1 eigenvalues not converged
     c_bands:  1 eigenvalues not converged
     c_bands:  2 eigenvalues not converged
     c_bands:  3 eigenvalues not converged
     c_bands:  1 eigenvalues not converged
     c_bands:  1 eigenvalues not converged
     c_bands:  2 eigenvalues not converged
     c_bands:  2 eigenvalues not converged
     c_bands:  1 eigenvalues not converged
     c_bands:  2 eigenvalues not converged
     c_bands:  2 eigenvalues not converged
     c_bands:  2 eigenvalues not converged
     c_bands:  2 eigenvalues not converged
     c_bands:  2 eigenvalues not converged
     c_bands:  2 eigenvalues not converged
     c_bands:  2 eigenvalues not converged
     c_bands:  2 eigenvalues not converged
     c_bands:  1 eigenvalues not converged
     c_bands:  1 eigenvalues not converged
     c_bands:  2 eigenvalues not converged
     c_bands:  2 eigenvalues not converged
     c_bands:  2 eigenvalues not converged
     c_bands:  3 eigenvalues not converged
     c_bands:  2 eigenvalues not converged
     c_bands:  2 eigenvalues not converged
     c_bands:  2 eigenvalues not converged
     c_bands:  1 eigenvalues not converged
     c_bands:  1 eigenvalues not converged
     c_bands:  3 eigenvalues not converged
     c_bands:  2 eigenvalues not converged
     c_bands:  2 eigenvalues not converged
     c_bands:  1 eigenvalues not converged
     ethr =  1.00E-06,  avg # of iterations = 18.4

     total cpu time spent up to now is     1675.6 secs

     total energy              =    -929.83097295 Ry
     Harris-Foulkes estimate   =    -950.09253936 Ry
     estimated scf accuracy    <       8.81279554 Ry

     iteration #  2     ecut=    40.00 Ry     beta= 0.60
     Davidson diagonalization with overlap
     ethr =  8.81E-03,  avg # of iterations =  5.8

     total cpu time spent up to now is     1748.9 secs

     total energy              =    -937.15453031 Ry
     Harris-Foulkes estimate   =    -952.50942310 Ry
     estimated scf accuracy    <      53.35098390 Ry

     iteration #  3     ecut=    40.00 Ry     beta= 0.60
     Davidson diagonalization with overlap
     ethr =  8.81E-03,  avg # of iterations =  4.6

     total cpu time spent up to now is     1795.6 secs

     total energy              =    -938.14792789 Ry
     Harris-Foulkes estimate   =    -940.21405747 Ry
     estimated scf accuracy    <      11.10589025 Ry

     iteration #  4     ecut=    40.00 Ry     beta= 0.60
     Davidson diagonalization with overlap
     ethr =  8.81E-03,  avg # of iterations =  2.8

     total cpu time spent up to now is     1842.9 secs

     total energy              =    -938.15316421 Ry
     Harris-Foulkes estimate   =    -938.78635865 Ry
     estimated scf accuracy    <       6.63256843 Ry

     iteration #  5     ecut=    40.00 Ry     beta= 0.60
     Davidson diagonalization with overlap
     ethr =  6.63E-03,  avg # of iterations =  1.7

     total cpu time spent up to now is     1885.0 secs

     total energy              =    -938.08763858 Ry
     Harris-Foulkes estimate   =    -938.42587056 Ry
     estimated scf accuracy    <       3.63585904 Ry

     iteration #  6     ecut=    40.00 Ry     beta= 0.60
     Davidson diagonalization with overlap
     ethr =  3.64E-03,  avg # of iterations =  3.4

     total cpu time spent up to now is     1934.9 secs

     total energy              =    -938.11252424 Ry
     Harris-Foulkes estimate   =    -938.23011092 Ry
     estimated scf accuracy    <       1.64594818 Ry

     iteration #  7     ecut=    40.00 Ry     beta= 0.60
     Davidson diagonalization with overlap
     ethr =  1.65E-03,  avg # of iterations =  5.5

     total cpu time spent up to now is     2002.8 secs

     total energy              =    -938.30180343 Ry
     Harris-Foulkes estimate   =    -938.28740745 Ry
     estimated scf accuracy    <       0.28599241 Ry

     iteration #  8     ecut=    40.00 Ry     beta= 0.60
     Davidson diagonalization with overlap
     ethr =  2.86E-04,  avg # of iterations =  4.7

     total cpu time spent up to now is     2061.1 secs

     total energy              =    -938.35028661 Ry
     Harris-Foulkes estimate   =    -938.31631522 Ry
     estimated scf accuracy    <       0.44081638 Ry

     iteration #  9     ecut=    40.00 Ry     beta= 0.60
     Davidson diagonalization with overlap
     ethr =  2.86E-04,  avg # of iterations =  1.2

     total cpu time spent up to now is     2101.4 secs

     total energy              =    -938.34936202 Ry
     Harris-Foulkes estimate   =    -938.35767575 Ry
     estimated scf accuracy    <       0.75469775 Ry

     iteration # 10     ecut=    40.00 Ry     beta= 0.60
     Davidson diagonalization with overlap
     ethr =  2.86E-04,  avg # of iterations =  1.0

     total cpu time spent up to now is     2141.1 secs

     total energy              =    -938.17700653 Ry
     Harris-Foulkes estimate   =    -938.35071431 Ry
     estimated scf accuracy    <       0.73837136 Ry

     iteration # 11     ecut=    40.00 Ry     beta= 0.60
     Davidson diagonalization with overlap
     ethr =  2.86E-04,  avg # of iterations =  3.5

     total cpu time spent up to now is     2201.7 secs

     total energy              =    -938.23044709 Ry
     Harris-Foulkes estimate   =    -938.23599407 Ry
     estimated scf accuracy    <       0.08576923 Ry

     iteration # 12     ecut=    40.00 Ry     beta= 0.60
     Davidson diagonalization with overlap
     c_bands:  1 eigenvalues not converged
     c_bands:  1 eigenvalues not converged
     ethr =  8.58E-05,  avg # of iterations =  5.2

     total cpu time spent up to now is     2259.7 secs

     total energy              =    -938.22334444 Ry
     Harris-Foulkes estimate   =    -938.23310426 Ry
     estimated scf accuracy    <       0.03553272 Ry

     iteration # 13     ecut=    40.00 Ry     beta= 0.60
     Davidson diagonalization with overlap
     ethr =  3.55E-05,  avg # of iterations =  5.8

     total cpu time spent up to now is     2341.6 secs

     total energy              =    -938.22960321 Ry
     Harris-Foulkes estimate   =    -938.23845187 Ry
     estimated scf accuracy    <       0.08252899 Ry

     iteration # 14     ecut=    40.00 Ry     beta= 0.60
     Davidson diagonalization with overlap
     ethr =  3.55E-05,  avg # of iterations =  1.1

     total cpu time spent up to now is     2382.0 secs

     total energy              =    -938.23048278 Ry
     Harris-Foulkes estimate   =    -938.23214780 Ry
     estimated scf accuracy    <       0.01689086 Ry

     iteration # 15     ecut=    40.00 Ry     beta= 0.60
     Davidson diagonalization with overlap
     ethr =  1.69E-05,  avg # of iterations =  4.2

     total cpu time spent up to now is     2442.5 secs

     total energy              =    -938.23274580 Ry
     Harris-Foulkes estimate   =    -938.23282203 Ry
     estimated scf accuracy    <       0.00098628 Ry

     iteration # 16     ecut=    40.00 Ry     beta= 0.60
     Davidson diagonalization with overlap
     ethr =  9.86E-07,  avg # of iterations =  6.4

     total cpu time spent up to now is     2527.6 secs

     total energy              =    -938.23260070 Ry
     Harris-Foulkes estimate   =    -938.23304611 Ry
     estimated scf accuracy    <       0.00321160 Ry

     iteration # 17     ecut=    40.00 Ry     beta= 0.60
     Davidson diagonalization with overlap
     ethr =  9.86E-07,  avg # of iterations =  4.0

     total cpu time spent up to now is     2589.4 secs

     total energy              =    -938.23277264 Ry
     Harris-Foulkes estimate   =    -938.23283522 Ry
     estimated scf accuracy    <       0.00035069 Ry

     iteration # 18     ecut=    40.00 Ry     beta= 0.60
     Davidson diagonalization with overlap
     ethr =  3.51E-07,  avg # of iterations =  3.0

     total cpu time spent up to now is     2639.4 secs

     total energy              =    -938.23280173 Ry
     Harris-Foulkes estimate   =    -938.23281253 Ry
     estimated scf accuracy    <       0.00004598 Ry

     iteration # 19     ecut=    40.00 Ry     beta= 0.60
     Davidson diagonalization with overlap
     ethr =  4.60E-08,  avg # of iterations =  4.6

     total cpu time spent up to now is     2707.2 secs

     total energy              =    -938.23280403 Ry
     Harris-Foulkes estimate   =    -938.23282155 Ry
     estimated scf accuracy    <       0.00014678 Ry

     iteration # 20     ecut=    40.00 Ry     beta= 0.60
     Davidson diagonalization with overlap
     ethr =  4.60E-08,  avg # of iterations =  3.9

     total cpu time spent up to now is     2760.6 secs

     total energy              =    -938.23280849 Ry
     Harris-Foulkes estimate   =    -938.23281065 Ry
     estimated scf accuracy    <       0.00001456 Ry

     iteration # 21     ecut=    40.00 Ry     beta= 0.60
     Davidson diagonalization with overlap
     ethr =  1.46E-08,  avg # of iterations =  4.2

     total cpu time spent up to now is     2823.0 secs

     total energy              =    -938.23281129 Ry
     Harris-Foulkes estimate   =    -938.23281204 Ry
     estimated scf accuracy    <       0.00000594 Ry

     iteration # 22     ecut=    40.00 Ry     beta= 0.60
     Davidson diagonalization with overlap
     ethr =  5.94E-09,  avg # of iterations =  1.3

     total cpu time spent up to now is     2863.9 secs

     total energy              =    -938.23281146 Ry
     Harris-Foulkes estimate   =    -938.23281155 Ry
     estimated scf accuracy    <       0.00000073 Ry

     iteration # 23     ecut=    40.00 Ry     beta= 0.60
     Davidson diagonalization with overlap
     ethr =  7.27E-10,  avg # of iterations =  4.4

     total cpu time spent up to now is     2929.9 secs

     total energy              =    -938.23281163 Ry
     Harris-Foulkes estimate   =    -938.23281165 Ry
     estimated scf accuracy    <       0.00000019 Ry

     iteration # 24     ecut=    40.00 Ry     beta= 0.60
     Davidson diagonalization with overlap
     ethr =  1.88E-10,  avg # of iterations =  2.2

     total cpu time spent up to now is     2974.5 secs

     total energy              =    -938.23281163 Ry
     Harris-Foulkes estimate   =    -938.23281164 Ry
     estimated scf accuracy    <       0.00000007 Ry

     iteration # 25     ecut=    40.00 Ry     beta= 0.60
     Davidson diagonalization with overlap
     ethr =  7.01E-11,  avg # of iterations =  3.1

     total cpu time spent up to now is     3024.9 secs

     total energy              =    -938.23281164 Ry
     Harris-Foulkes estimate   =    -938.23281164 Ry
     estimated scf accuracy    <       0.00000002 Ry

     iteration # 26     ecut=    40.00 Ry     beta= 0.60
     Davidson diagonalization with overlap
     ethr =  2.42E-11,  avg # of iterations =  3.6

     total cpu time spent up to now is     3069.7 secs

     total energy              =    -938.23281164 Ry
     Harris-Foulkes estimate   =    -938.23281164 Ry
     estimated scf accuracy    <          5.4E-09 Ry

     iteration # 27     ecut=    40.00 Ry     beta= 0.60
     Davidson diagonalization with overlap
     ethr =  5.35E-12,  avg # of iterations =  4.3

     total cpu time spent up to now is     3116.2 secs

     total energy              =    -938.23281164 Ry
     Harris-Foulkes estimate   =    -938.23281164 Ry
     estimated scf accuracy    <          3.1E-09 Ry

     iteration # 28     ecut=    40.00 Ry     beta= 0.60
     Davidson diagonalization with overlap
     ethr =  3.10E-12,  avg # of iterations =  1.0

     total cpu time spent up to now is     3146.8 secs

     total energy              =    -938.23281164 Ry
     Harris-Foulkes estimate   =    -938.23281164 Ry
     estimated scf accuracy    <          3.1E-09 Ry

     iteration # 29     ecut=    40.00 Ry     beta= 0.60
     Davidson diagonalization with overlap
     ethr =  3.06E-12,  avg # of iterations =  1.1

     total cpu time spent up to now is     3177.5 secs

     total energy              =    -938.23281164 Ry
     Harris-Foulkes estimate   =    -938.23281164 Ry
     estimated scf accuracy    <          3.2E-10 Ry

     iteration # 30     ecut=    40.00 Ry     beta= 0.60
     Davidson diagonalization with overlap
     ethr =  3.20E-13,  avg # of iterations =  4.9

     total cpu time spent up to now is     3227.7 secs

     total energy              =    -938.23281164 Ry
     Harris-Foulkes estimate   =    -938.23281164 Ry
     estimated scf accuracy    <          2.8E-10 Ry

     iteration # 31     ecut=    40.00 Ry     beta= 0.60
     Davidson diagonalization with overlap
     ethr =  2.76E-13,  avg # of iterations =  1.0

     total cpu time spent up to now is     3258.2 secs

     End of self-consistent calculation

     Number of k-points >= 100: set verbosity='high' to print the bands.

     the Fermi energy is    14.9062 ev

!    total energy              =    -938.23281164 Ry
     Harris-Foulkes estimate   =    -938.23281164 Ry
     estimated scf accuracy    <          5.3E-11 Ry

     The total energy is the sum of the following terms:

     one-electron contribution =    -250.60389002 Ry
     hartree contribution      =     163.59628420 Ry
     xc contribution           =    -131.44014798 Ry
     ewald contribution        =    -719.77899984 Ry
     smearing contrib. (-TS)   =      -0.00605801 Ry

     convergence has been achieved in  31 iterations

     Forces acting on atoms (cartesian axes, Ry/au):

     atom    1 type  2   force =    -0.00089019    0.00051395    0.00000000
     atom    2 type  1   force =     0.00670541    0.00387103    0.00000000
     atom    3 type  2   force =     0.00088837    0.00051280    0.00000000
     atom    4 type  1   force =    -0.00670580    0.00387160    0.00000000
     atom    5 type  2   force =     0.00000009   -0.00102576    0.00000000
     atom    6 type  2   force =     0.00000261   -0.00000151    0.00000000
     atom    7 type  1   force =    -0.00000077    0.00000045    0.00000000
     atom    8 type  1   force =     0.00000030   -0.00774257    0.00000000

     Total force =     0.013528     Total SCF correction =     0.000011


     Computing stress (Cartesian axis) and pressure

          total   stress  (Ry/bohr**3)                   (kbar)     P=  -56.09
  -0.00044919  -0.00000000   0.00000000        -66.08     -0.00      0.00
  -0.00000000  -0.00044919   0.00000000         -0.00    -66.08      0.00
   0.00000000   0.00000000  -0.00024553          0.00      0.00    -36.12


     number of scf cycles    =   2
     number of bfgs steps    =   1

     enthalpy old            =    -938.1907027924 Ry
     enthalpy new            =    -938.2328116395 Ry

     CASE: enthalpy_new < enthalpy_old

     new trust radius        =       0.1286777587 bohr
     new conv_thr            =            1.0E-10 Ry

     new unit-cell volume =    960.05331 a.u.^3 (   142.26522 Ang^3 )
     density =      6.57250 g/cm^3

CELL_PARAMETERS (alat=  1.88972599)
   2.916313155  -5.051200313  -0.000000000
  -5.832624039   0.000001310  -0.000000000
  -0.000000000  -0.000000000  -4.828812278

ATOMIC_POSITIONS (angstrom)
Ti      -2.916899640  -5.050859084  -4.828812278
Nb       0.008789265  -1.678661005  -2.414406139
Ti       0.000590220  -5.050857794  -4.828812278
Nb      -2.925098422  -1.678659514  -2.414406139
Ti      -4.374468982  -2.526279940  -4.828812278
Ti       1.458161580  -4.209336045  -2.414406139
Nb      -1.458156924  -2.525598646  -4.828812278
Nb      -1.458153288  -4.219480225  -2.414406139


     NEW-OLD atomic charge density approx. for the potential

     Check: negative/imaginary core charge=   -0.000001    0.000000
     extrapolated charge   94.87600, renormalised to  100.00000

     total cpu time spent up to now is     3280.5 secs

     Self-consistent Calculation

     iteration #  1     ecut=    40.00 Ry     beta= 0.60
     Davidson diagonalization with overlap
     c_bands:  1 eigenvalues not converged
     c_bands:  1 eigenvalues not converged
     c_bands:  1 eigenvalues not converged
     c_bands:  1 eigenvalues not converged
     c_bands:  1 eigenvalues not converged
     c_bands:  1 eigenvalues not converged
     c_bands:  2 eigenvalues not converged
     c_bands:  1 eigenvalues not converged
     c_bands:  1 eigenvalues not converged
     c_bands:  2 eigenvalues not converged
     c_bands:  2 eigenvalues not converged
     c_bands:  1 eigenvalues not converged
     c_bands:  1 eigenvalues not converged
     c_bands:  1 eigenvalues not converged
     c_bands:  1 eigenvalues not converged
     c_bands:  3 eigenvalues not converged
     c_bands:  1 eigenvalues not converged
     c_bands:  2 eigenvalues not converged
     c_bands:  1 eigenvalues not converged
     c_bands:  1 eigenvalues not converged
     c_bands:  1 eigenvalues not converged
     c_bands:  1 eigenvalues not converged
     c_bands:  2 eigenvalues not converged
     c_bands:  1 eigenvalues not converged
     c_bands:  1 eigenvalues not converged
     c_bands:  1 eigenvalues not converged
     c_bands:  1 eigenvalues not converged
     c_bands:  1 eigenvalues not converged
     c_bands:  1 eigenvalues not converged
     c_bands:  1 eigenvalues not converged
     c_bands:  2 eigenvalues not converged
     c_bands:  2 eigenvalues not converged
     c_bands:  2 eigenvalues not converged
     c_bands:  3 eigenvalues not converged
     c_bands:  1 eigenvalues not converged
     c_bands:  1 eigenvalues not converged
     c_bands:  1 eigenvalues not converged
     c_bands:  1 eigenvalues not converged
     c_bands:  1 eigenvalues not converged
     c_bands:  1 eigenvalues not converged
     c_bands:  1 eigenvalues not converged
     c_bands:  2 eigenvalues not converged
     c_bands:  1 eigenvalues not converged
     c_bands:  1 eigenvalues not converged
     c_bands:  2 eigenvalues not converged
     c_bands:  2 eigenvalues not converged
     c_bands:  1 eigenvalues not converged
     c_bands:  1 eigenvalues not converged
     c_bands:  1 eigenvalues not converged
     c_bands:  3 eigenvalues not converged
     c_bands:  1 eigenvalues not converged
     c_bands:  1 eigenvalues not converged
     c_bands:  2 eigenvalues not converged
     c_bands:  2 eigenvalues not converged
     c_bands:  1 eigenvalues not converged
     c_bands:  1 eigenvalues not converged
     c_bands:  1 eigenvalues not converged
     c_bands:  1 eigenvalues not converged
     c_bands:  1 eigenvalues not converged
     c_bands:  1 eigenvalues not converged
     c_bands:  1 eigenvalues not converged
     c_bands:  1 eigenvalues not converged
     c_bands:  2 eigenvalues not converged
     c_bands:  2 eigenvalues not converged
     c_bands:  1 eigenvalues not converged
     c_bands:  1 eigenvalues not converged
     c_bands:  1 eigenvalues not converged
     c_bands:  1 eigenvalues not converged
     c_bands:  1 eigenvalues not converged
     c_bands:  1 eigenvalues not converged
     c_bands:  1 eigenvalues not converged
     c_bands:  1 eigenvalues not converged
     c_bands:  1 eigenvalues not converged
     c_bands:  1 eigenvalues not converged
     c_bands:  1 eigenvalues not converged
     c_bands:  1 eigenvalues not converged
     c_bands:  2 eigenvalues not converged
     c_bands:  2 eigenvalues not converged
     c_bands:  2 eigenvalues not converged
     c_bands:  3 eigenvalues not converged
     c_bands:  1 eigenvalues not converged
     ethr =  1.00E-06,  avg # of iterations = 17.2

     total cpu time spent up to now is     3421.9 secs

     total energy              =    -934.33229379 Ry
     Harris-Foulkes estimate   =    -947.10840842 Ry
     estimated scf accuracy    <       3.94990070 Ry

     iteration #  2     ecut=    40.00 Ry     beta= 0.60
     Davidson diagonalization with overlap
     ethr =  3.95E-03,  avg # of iterations =  6.3

     total cpu time spent up to now is     3497.7 secs

     total energy              =    -937.01578157 Ry
     Harris-Foulkes estimate   =    -945.56309063 Ry
     estimated scf accuracy    <      34.16013447 Ry

     iteration #  3     ecut=    40.00 Ry     beta= 0.60
     Davidson diagonalization with overlap
     ethr =  3.95E-03,  avg # of iterations =  5.2

     total cpu time spent up to now is     3555.2 secs

     total energy              =    -938.39216977 Ry
     Harris-Foulkes estimate   =    -939.14855493 Ry
     estimated scf accuracy    <       3.75518596 Ry

     iteration #  4     ecut=    40.00 Ry     beta= 0.60
     Davidson diagonalization with overlap
     ethr =  3.76E-03,  avg # of iterations =  1.1

     total cpu time spent up to now is     3585.8 secs

     total energy              =    -938.29440841 Ry
     Harris-Foulkes estimate   =    -938.50292152 Ry
     estimated scf accuracy    <       2.37942152 Ry

     iteration #  5     ecut=    40.00 Ry     beta= 0.60
     Davidson diagonalization with overlap
     ethr =  2.38E-03,  avg # of iterations =  1.5

     total cpu time spent up to now is     3617.6 secs

     total energy              =    -938.24332281 Ry
     Harris-Foulkes estimate   =    -938.35228314 Ry
     estimated scf accuracy    <       1.39479755 Ry

     iteration #  6     ecut=    40.00 Ry     beta= 0.60
     Davidson diagonalization with overlap
     ethr =  1.39E-03,  avg # of iterations =  1.4

     total cpu time spent up to now is     3648.9 secs

     total energy              =    -938.20732253 Ry
     Harris-Foulkes estimate   =    -938.27077318 Ry
     estimated scf accuracy    <       0.77250685 Ry

     iteration #  7     ecut=    40.00 Ry     beta= 0.60
     Davidson diagonalization with overlap
     ethr =  7.73E-04,  avg # of iterations =  3.6

     total cpu time spent up to now is     3688.8 secs

     total energy              =    -938.27832687 Ry
     Harris-Foulkes estimate   =    -938.26363980 Ry
     estimated scf accuracy    <       0.13801483 Ry

     iteration #  8     ecut=    40.00 Ry     beta= 0.60
     Davidson diagonalization with overlap
     ethr =  1.38E-04,  avg # of iterations =  6.1

     total cpu time spent up to now is     3734.7 secs

     total energy              =    -938.27501386 Ry
     Harris-Foulkes estimate   =    -938.28793552 Ry
     estimated scf accuracy    <       0.27745166 Ry

     iteration #  9     ecut=    40.00 Ry     beta= 0.60
     Davidson diagonalization with overlap
     ethr =  1.38E-04,  avg # of iterations =  1.0

     total cpu time spent up to now is     3765.2 secs

     total energy              =    -938.24408254 Ry
     Harris-Foulkes estimate   =    -938.27615438 Ry
     estimated scf accuracy    <       0.22780783 Ry

     iteration # 10     ecut=    40.00 Ry     beta= 0.60
     Davidson diagonalization with overlap
     ethr =  1.38E-04,  avg # of iterations =  1.2

     total cpu time spent up to now is     3796.2 secs

     total energy              =    -938.23028870 Ry
     Harris-Foulkes estimate   =    -938.24852567 Ry
     estimated scf accuracy    <       0.09458130 Ry

     iteration # 11     ecut=    40.00 Ry     beta= 0.60
     Davidson diagonalization with overlap
     ethr =  9.46E-05,  avg # of iterations =  5.5

     total cpu time spent up to now is     3843.7 secs

     total energy              =    -938.24172979 Ry
     Harris-Foulkes estimate   =    -938.24208170 Ry
     estimated scf accuracy    <       0.00706641 Ry

     iteration # 12     ecut=    40.00 Ry     beta= 0.60
     Davidson diagonalization with overlap
     c_bands:  2 eigenvalues not converged
     ethr =  7.07E-06,  avg # of iterations =  8.5

     total cpu time spent up to now is     3906.3 secs

     total energy              =    -938.24230084 Ry
     Harris-Foulkes estimate   =    -938.24271376 Ry
     estimated scf accuracy    <       0.00334096 Ry

     iteration # 13     ecut=    40.00 Ry     beta= 0.60
     Davidson diagonalization with overlap
     ethr =  3.34E-06,  avg # of iterations =  5.5

     total cpu time spent up to now is     3961.8 secs

     total energy              =    -938.24139066 Ry
     Harris-Foulkes estimate   =    -938.24402426 Ry
     estimated scf accuracy    <       0.01875638 Ry

     iteration # 14     ecut=    40.00 Ry     beta= 0.60
     Davidson diagonalization with overlap
     c_bands:  2 eigenvalues not converged
     ethr =  3.34E-06,  avg # of iterations =  5.2

     total cpu time spent up to now is     4011.8 secs

     total energy              =    -938.24247287 Ry
     Harris-Foulkes estimate   =    -938.24257600 Ry
     estimated scf accuracy    <       0.00085025 Ry

     iteration # 15     ecut=    40.00 Ry     beta= 0.60
     Davidson diagonalization with overlap
     ethr =  8.50E-07,  avg # of iterations =  2.1

     total cpu time spent up to now is     4044.8 secs

     total energy              =    -938.24249647 Ry
     Harris-Foulkes estimate   =    -938.24251685 Ry
     estimated scf accuracy    <       0.00018459 Ry

     iteration # 16     ecut=    40.00 Ry     beta= 0.60
     Davidson diagonalization with overlap
     ethr =  1.85E-07,  avg # of iterations =  4.2

     total cpu time spent up to now is     4090.4 secs

     total energy              =    -938.24251795 Ry
     Harris-Foulkes estimate   =    -938.24254562 Ry
     estimated scf accuracy    <       0.00024657 Ry

     iteration # 17     ecut=    40.00 Ry     beta= 0.60
     Davidson diagonalization with overlap
     ethr =  1.85E-07,  avg # of iterations =  1.1

     total cpu time spent up to now is     4121.1 secs

     total energy              =    -938.24252290 Ry
     Harris-Foulkes estimate   =    -938.24252499 Ry
     estimated scf accuracy    <       0.00006805 Ry

     iteration # 18     ecut=    40.00 Ry     beta= 0.60
     Davidson diagonalization with overlap
     ethr =  6.81E-08,  avg # of iterations =  3.9

     total cpu time spent up to now is     4159.5 secs

     total energy              =    -938.24252116 Ry
     Harris-Foulkes estimate   =    -938.24252640 Ry
     estimated scf accuracy    <       0.00003056 Ry

     iteration # 19     ecut=    40.00 Ry     beta= 0.60
     Davidson diagonalization with overlap
     ethr =  3.06E-08,  avg # of iterations =  4.0

     total cpu time spent up to now is     4199.3 secs

     total energy              =    -938.24252395 Ry
     Harris-Foulkes estimate   =    -938.24252445 Ry
     estimated scf accuracy    <       0.00000202 Ry

     iteration # 20     ecut=    40.00 Ry     beta= 0.60
     Davidson diagonalization with overlap
     ethr =  2.02E-09,  avg # of iterations =  5.1

     total cpu time spent up to now is     4253.2 secs

     total energy              =    -938.24252472 Ry
     Harris-Foulkes estimate   =    -938.24252535 Ry
     estimated scf accuracy    <       0.00000465 Ry

     iteration # 21     ecut=    40.00 Ry     beta= 0.60
     Davidson diagonalization with overlap
     ethr =  2.02E-09,  avg # of iterations =  3.2

     total cpu time spent up to now is     4291.0 secs

     total energy              =    -938.24252484 Ry
     Harris-Foulkes estimate   =    -938.24252504 Ry
     estimated scf accuracy    <       0.00000155 Ry

     iteration # 22     ecut=    40.00 Ry     beta= 0.60
     Davidson diagonalization with overlap
     ethr =  1.55E-09,  avg # of iterations =  2.2

     total cpu time spent up to now is     4324.3 secs

     total energy              =    -938.24252489 Ry
     Harris-Foulkes estimate   =    -938.24252492 Ry
     estimated scf accuracy    <       0.00000018 Ry

     iteration # 23     ecut=    40.00 Ry     beta= 0.60
     Davidson diagonalization with overlap
     ethr =  1.78E-10,  avg # of iterations =  4.9

     total cpu time spent up to now is     4374.7 secs

     total energy              =    -938.24252493 Ry
     Harris-Foulkes estimate   =    -938.24252496 Ry
     estimated scf accuracy    <       0.00000017 Ry

     iteration # 24     ecut=    40.00 Ry     beta= 0.60
     Davidson diagonalization with overlap
     ethr =  1.67E-10,  avg # of iterations =  1.1

     total cpu time spent up to now is     4405.3 secs

     total energy              =    -938.24252494 Ry
     Harris-Foulkes estimate   =    -938.24252494 Ry
     estimated scf accuracy    <       0.00000002 Ry

     iteration # 25     ecut=    40.00 Ry     beta= 0.60
     Davidson diagonalization with overlap
     ethr =  1.54E-11,  avg # of iterations =  4.3

     total cpu time spent up to now is     4452.3 secs

     total energy              =    -938.24252495 Ry
     Harris-Foulkes estimate   =    -938.24252495 Ry
     estimated scf accuracy    <          8.4E-10 Ry

     iteration # 26     ecut=    40.00 Ry     beta= 0.60
     Davidson diagonalization with overlap
     ethr =  8.39E-13,  avg # of iterations =  4.2

     total cpu time spent up to now is     4498.3 secs

     total energy              =    -938.24252495 Ry
     Harris-Foulkes estimate   =    -938.24252495 Ry
     estimated scf accuracy    <          1.0E-09 Ry

     iteration # 27     ecut=    40.00 Ry     beta= 0.60
     Davidson diagonalization with overlap
     ethr =  8.39E-13,  avg # of iterations =  3.2

     total cpu time spent up to now is     4534.6 secs

     total energy              =    -938.24252495 Ry
     Harris-Foulkes estimate   =    -938.24252495 Ry
     estimated scf accuracy    <          1.7E-10 Ry

     iteration # 28     ecut=    40.00 Ry     beta= 0.60
     Davidson diagonalization with overlap
     ethr =  1.65E-13,  avg # of iterations =  4.1

     total cpu time spent up to now is     4579.1 secs

     End of self-consistent calculation

     Number of k-points >= 100: set verbosity='high' to print the bands.

     the Fermi energy is    15.8287 ev

!    total energy              =    -938.24252495 Ry
     Harris-Foulkes estimate   =    -938.24252495 Ry
     estimated scf accuracy    <          3.9E-11 Ry

     The total energy is the sum of the following terms:

     one-electron contribution =    -232.32585998 Ry
     hartree contribution      =     158.27733632 Ry
     xc contribution           =    -131.82685548 Ry
     ewald contribution        =    -732.36210441 Ry
     smearing contrib. (-TS)   =      -0.00504139 Ry

     convergence has been achieved in  28 iterations

     Forces acting on atoms (cartesian axes, Ry/au):

     atom    1 type  2   force =    -0.00196598    0.00113506    0.00000000
     atom    2 type  1   force =     0.00559558    0.00323005   -0.00000000
     atom    3 type  2   force =     0.00196427    0.00113277   -0.00000000
     atom    4 type  1   force =    -0.00559547    0.00323055    0.00000000
     atom    5 type  2   force =     0.00000113   -0.00226749    0.00000000
     atom    6 type  2   force =     0.00000161   -0.00000093   -0.00000000
     atom    7 type  1   force =    -0.00000162    0.00000093    0.00000000
     atom    8 type  1   force =     0.00000048   -0.00646094    0.00000000

     Total force =     0.011860     Total SCF correction =     0.000008


     Computing stress (Cartesian axis) and pressure

          total   stress  (Ry/bohr**3)                   (kbar)     P=   11.84
   0.00001351   0.00000000  -0.00000000          1.99      0.00     -0.00
   0.00000000   0.00001351  -0.00000000          0.00      1.99     -0.00
  -0.00000000  -0.00000000   0.00021453         -0.00     -0.00     31.56


     number of scf cycles    =   3
     number of bfgs steps    =   2

     enthalpy old            =    -938.2328116395 Ry
     enthalpy new            =    -938.2425249458 Ry

     CASE: enthalpy_new < enthalpy_old

     new trust radius        =       0.0284172137 bohr
     new conv_thr            =            1.0E-10 Ry

     new unit-cell volume =    965.54779 a.u.^3 (   143.07942 Ang^3 )
     density =      6.53510 g/cm^3

CELL_PARAMETERS (alat=  1.88972599)
   2.917963598  -5.054059052  -0.000000000
  -5.835925002   0.000001266  -0.000000000
  -0.000000000  -0.000000000  -4.850955670

ATOMIC_POSITIONS (angstrom)
Ti      -2.919376507  -5.053240775  -4.850955670
Nb       0.011081347  -1.678290818  -2.425477835
Ti       0.001415863  -5.053240386  -4.850955670
Nb      -2.929040961  -1.678289144  -2.425477835
Ti      -4.376944258  -2.528662499  -4.850955670
Ti       1.458987433  -4.211718707  -2.425477835
Nb      -1.458982877  -2.527027637  -4.850955670
Nb      -1.458978357  -4.224509103  -2.425477835


     NEW-OLD atomic charge density approx. for the potential

     Check: negative/imaginary core charge=   -0.000001    0.000000
     extrapolated charge  100.54623, renormalised to  100.00000

     total cpu time spent up to now is     4601.6 secs

     Self-consistent Calculation

     iteration #  1     ecut=    40.00 Ry     beta= 0.60
     Davidson diagonalization with overlap
     c_bands:  1 eigenvalues not converged
     c_bands:  1 eigenvalues not converged
     ethr =  1.00E-06,  avg # of iterations =  7.2

     total cpu time spent up to now is     4678.1 secs

     total energy              =    -938.22449664 Ry
     Harris-Foulkes estimate   =    -937.33281767 Ry
     estimated scf accuracy    <       0.01616046 Ry

     iteration #  2     ecut=    40.00 Ry     beta= 0.60
     Davidson diagonalization with overlap
     c_bands:  1 eigenvalues not converged
     c_bands:  1 eigenvalues not converged
     c_bands:  1 eigenvalues not converged
     ethr =  1.62E-05,  avg # of iterations =  7.2

     total cpu time spent up to now is     4751.7 secs

     total energy              =    -938.21118805 Ry
     Harris-Foulkes estimate   =    -938.28452443 Ry
     estimated scf accuracy    <       0.55527523 Ry

     iteration #  3     ecut=    40.00 Ry     beta= 0.60
     Davidson diagonalization with overlap
     ethr =  1.62E-05,  avg # of iterations =  5.3

     total cpu time spent up to now is     4813.6 secs

     total energy              =    -938.24269294 Ry
     Harris-Foulkes estimate   =    -938.24783417 Ry
     estimated scf accuracy    <       0.01506195 Ry

     iteration #  4     ecut=    40.00 Ry     beta= 0.60
     Davidson diagonalization with overlap
     ethr =  1.51E-05,  avg # of iterations =  2.4

     total cpu time spent up to now is     4848.0 secs

     total energy              =    -938.24395442 Ry
     Harris-Foulkes estimate   =    -938.24454367 Ry
     estimated scf accuracy    <       0.00778973 Ry

     iteration #  5     ecut=    40.00 Ry     beta= 0.60
     Davidson diagonalization with overlap
     ethr =  7.79E-06,  avg # of iterations =  1.1

     total cpu time spent up to now is     4878.3 secs

     total energy              =    -938.24382114 Ry
     Harris-Foulkes estimate   =    -938.24429716 Ry
     estimated scf accuracy    <       0.00500453 Ry

     iteration #  6     ecut=    40.00 Ry     beta= 0.60
     Davidson diagonalization with overlap
     ethr =  5.00E-06,  avg # of iterations =  1.0

     total cpu time spent up to now is     4908.9 secs

     total energy              =    -938.24364126 Ry
     Harris-Foulkes estimate   =    -938.24391262 Ry
     estimated scf accuracy    <       0.00349703 Ry

     iteration #  7     ecut=    40.00 Ry     beta= 0.60
     Davidson diagonalization with overlap
     ethr =  3.50E-06,  avg # of iterations =  1.2

     total cpu time spent up to now is     4939.8 secs

     total energy              =    -938.24328302 Ry
     Harris-Foulkes estimate   =    -938.24370665 Ry
     estimated scf accuracy    <       0.00236874 Ry

     iteration #  8     ecut=    40.00 Ry     beta= 0.60
     Davidson diagonalization with overlap
     ethr =  2.37E-06,  avg # of iterations =  1.9

     total cpu time spent up to now is     4972.4 secs

     total energy              =    -938.24330841 Ry
     Harris-Foulkes estimate   =    -938.24338357 Ry
     estimated scf accuracy    <       0.00063383 Ry

     iteration #  9     ecut=    40.00 Ry     beta= 0.60
     Davidson diagonalization with overlap
     ethr =  6.34E-07,  avg # of iterations =  3.6

     total cpu time spent up to now is     5013.8 secs

     total energy              =    -938.24337519 Ry
     Harris-Foulkes estimate   =    -938.24338848 Ry
     estimated scf accuracy    <       0.00007621 Ry

     iteration # 10     ecut=    40.00 Ry     beta= 0.60
     Davidson diagonalization with overlap
     ethr =  7.62E-08,  avg # of iterations =  4.4

     total cpu time spent up to now is     5060.3 secs

     total energy              =    -938.24339055 Ry
     Harris-Foulkes estimate   =    -938.24339206 Ry
     estimated scf accuracy    <       0.00001815 Ry

     iteration # 11     ecut=    40.00 Ry     beta= 0.60
     Davidson diagonalization with overlap
     ethr =  1.81E-08,  avg # of iterations =  1.6

     total cpu time spent up to now is     5092.1 secs

     total energy              =    -938.24339127 Ry
     Harris-Foulkes estimate   =    -938.24339128 Ry
     estimated scf accuracy    <       0.00001128 Ry

     iteration # 12     ecut=    40.00 Ry     beta= 0.60
     Davidson diagonalization with overlap
     ethr =  1.13E-08,  avg # of iterations =  1.0

     total cpu time spent up to now is     5122.6 secs

     total energy              =    -938.24339010 Ry
     Harris-Foulkes estimate   =    -938.24339142 Ry
     estimated scf accuracy    <       0.00001238 Ry

     iteration # 13     ecut=    40.00 Ry     beta= 0.60
     Davidson diagonalization with overlap
     ethr =  1.13E-08,  avg # of iterations =  1.1

     total cpu time spent up to now is     5153.3 secs

     total energy              =    -938.24338990 Ry
     Harris-Foulkes estimate   =    -938.24339035 Ry
     estimated scf accuracy    <       0.00000561 Ry

     iteration # 14     ecut=    40.00 Ry     beta= 0.60
     Davidson diagonalization with overlap
     ethr =  5.61E-09,  avg # of iterations =  3.3

     total cpu time spent up to now is     5190.6 secs

     total energy              =    -938.24339015 Ry
     Harris-Foulkes estimate   =    -938.24339017 Ry
     estimated scf accuracy    <       0.00000223 Ry

     iteration # 15     ecut=    40.00 Ry     beta= 0.60
     Davidson diagonalization with overlap
     ethr =  2.23E-09,  avg # of iterations =  1.6

     total cpu time spent up to now is     5222.4 secs

     total energy              =    -938.24338996 Ry
     Harris-Foulkes estimate   =    -938.24339019 Ry
     estimated scf accuracy    <       0.00000201 Ry

     iteration # 16     ecut=    40.00 Ry     beta= 0.60
     Davidson diagonalization with overlap
     ethr =  2.01E-09,  avg # of iterations =  1.7

     total cpu time spent up to now is     5254.5 secs

     total energy              =    -938.24338985 Ry
     Harris-Foulkes estimate   =    -938.24339001 Ry
     estimated scf accuracy    <       0.00000110 Ry

     iteration # 17     ecut=    40.00 Ry     beta= 0.60
     Davidson diagonalization with overlap
     ethr =  1.10E-09,  avg # of iterations =  3.1

     total cpu time spent up to now is     5290.9 secs

     total energy              =    -938.24338963 Ry
     Harris-Foulkes estimate   =    -938.24338991 Ry
     estimated scf accuracy    <       0.00000060 Ry

     iteration # 18     ecut=    40.00 Ry     beta= 0.60
     Davidson diagonalization with overlap
     ethr =  5.98E-10,  avg # of iterations =  3.8

     total cpu time spent up to now is     5335.0 secs

     total energy              =    -938.24338973 Ry
     Harris-Foulkes estimate   =    -938.24338980 Ry
     estimated scf accuracy    <       0.00000040 Ry

     iteration # 19     ecut=    40.00 Ry     beta= 0.60
     Davidson diagonalization with overlap
     ethr =  3.95E-10,  avg # of iterations =  1.9

     total cpu time spent up to now is     5367.4 secs

     total energy              =    -938.24338975 Ry
     Harris-Foulkes estimate   =    -938.24338976 Ry
     estimated scf accuracy    <       0.00000004 Ry

     iteration # 20     ecut=    40.00 Ry     beta= 0.60
     Davidson diagonalization with overlap
     ethr =  4.40E-11,  avg # of iterations =  4.8

     total cpu time spent up to now is     5417.2 secs

     total energy              =    -938.24338976 Ry
     Harris-Foulkes estimate   =    -938.24338976 Ry
     estimated scf accuracy    <       0.00000003 Ry

     iteration # 21     ecut=    40.00 Ry     beta= 0.60
     Davidson diagonalization with overlap
     ethr =  2.93E-11,  avg # of iterations =  1.0

     total cpu time spent up to now is     5447.7 secs

     total energy              =    -938.24338976 Ry
     Harris-Foulkes estimate   =    -938.24338976 Ry
     estimated scf accuracy    <       0.00000001 Ry

     iteration # 22     ecut=    40.00 Ry     beta= 0.60
     Davidson diagonalization with overlap
     ethr =  1.42E-11,  avg # of iterations =  3.5

     total cpu time spent up to now is     5487.9 secs

     total energy              =    -938.24338976 Ry
     Harris-Foulkes estimate   =    -938.24338976 Ry
     estimated scf accuracy    <          2.5E-09 Ry

     iteration # 23     ecut=    40.00 Ry     beta= 0.60
     Davidson diagonalization with overlap
     ethr =  2.47E-12,  avg # of iterations =  2.8

     total cpu time spent up to now is     5523.6 secs

     total energy              =    -938.24338976 Ry
     Harris-Foulkes estimate   =    -938.24338976 Ry
     estimated scf accuracy    <          4.6E-10 Ry

     iteration # 24     ecut=    40.00 Ry     beta= 0.60
     Davidson diagonalization with overlap
     ethr =  4.59E-13,  avg # of iterations =  4.1

     total cpu time spent up to now is     5568.3 secs

     total energy              =    -938.24338976 Ry
     Harris-Foulkes estimate   =    -938.24338976 Ry
     estimated scf accuracy    <          8.1E-10 Ry

     iteration # 25     ecut=    40.00 Ry     beta= 0.60
     Davidson diagonalization with overlap
     ethr =  4.59E-13,  avg # of iterations =  3.2

     total cpu time spent up to now is     5605.3 secs

     End of self-consistent calculation

     Number of k-points >= 100: set verbosity='high' to print the bands.

     the Fermi energy is    15.7212 ev

!    total energy              =    -938.24338976 Ry
     Harris-Foulkes estimate   =    -938.24338976 Ry
     estimated scf accuracy    <          3.5E-11 Ry

     The total energy is the sum of the following terms:

     one-electron contribution =    -234.36561805 Ry
     hartree contribution      =     158.87273562 Ry
     xc contribution           =    -131.78446889 Ry
     ewald contribution        =    -730.96098153 Ry
     smearing contrib. (-TS)   =      -0.00505691 Ry

     convergence has been achieved in  25 iterations

     Forces acting on atoms (cartesian axes, Ry/au):

     atom    1 type  2   force =    -0.00163958    0.00094661    0.00000000
     atom    2 type  1   force =     0.00443399    0.00255956   -0.00000000
     atom    3 type  2   force =     0.00163941    0.00094507   -0.00000000
     atom    4 type  1   force =    -0.00443445    0.00256023    0.00000000
     atom    5 type  2   force =     0.00000125   -0.00189230    0.00000000
     atom    6 type  2   force =     0.00000091   -0.00000052   -0.00000000
     atom    7 type  1   force =    -0.00000187    0.00000108    0.00000000
     atom    8 type  1   force =     0.00000035   -0.00511973    0.00000000

     Total force =     0.009455     Total SCF correction =     0.000011


     Computing stress (Cartesian axis) and pressure

          total   stress  (Ry/bohr**3)                   (kbar)     P=    3.34
  -0.00003571  -0.00000000  -0.00000000         -5.25     -0.00     -0.00
  -0.00000000  -0.00003571  -0.00000000         -0.00     -5.25     -0.00
  -0.00000000  -0.00000000   0.00013959         -0.00     -0.00     20.53


     number of scf cycles    =   4
     number of bfgs steps    =   3

     enthalpy old            =    -938.2425249458 Ry
     enthalpy new            =    -938.2433897606 Ry

     CASE: enthalpy_new < enthalpy_old

     new trust radius        =       0.0425524902 bohr
     new conv_thr            =            1.0E-10 Ry

     new unit-cell volume =    968.50552 a.u.^3 (   143.51771 Ang^3 )
     density =      6.51515 g/cm^3

CELL_PARAMETERS (alat=  1.88972599)
   2.912475915  -5.044553227   0.000000000
  -5.824948874   0.000001706   0.000000000
  -0.000000000  -0.000000000  -4.884170759

ATOMIC_POSITIONS (angstrom)
Ti      -2.915543171  -5.042778933  -4.884170759
Nb       0.015738545  -1.672433807  -2.442085379
Ti       0.003070823  -5.042780371  -4.884170759
Nb      -2.928210158  -1.672431298  -2.442085379
Ti      -4.368710843  -2.525819039  -4.884170759
Ti       1.456244804  -4.203797740  -2.442085379
Nb      -1.456240406  -2.522273493  -4.884170759
Nb      -1.456233633  -4.221964595  -2.442085379


     NEW-OLD atomic charge density approx. for the potential

     Check: negative/imaginary core charge=   -0.000001    0.000000
     extrapolated charge  100.29314, renormalised to  100.00000

     total cpu time spent up to now is     5627.7 secs

     Self-consistent Calculation

     iteration #  1     ecut=    40.00 Ry     beta= 0.60
     Davidson diagonalization with overlap
     c_bands:  1 eigenvalues not converged
     c_bands:  1 eigenvalues not converged
     c_bands:  1 eigenvalues not converged
     ethr =  1.00E-06,  avg # of iterations =  5.8

     total cpu time spent up to now is     5706.2 secs

     total energy              =    -938.23916359 Ry
     Harris-Foulkes estimate   =    -937.75286637 Ry
     estimated scf accuracy    <       0.00448541 Ry

     iteration #  2     ecut=    40.00 Ry     beta= 0.60
     Davidson diagonalization with overlap
     c_bands:  1 eigenvalues not converged
     c_bands:  1 eigenvalues not converged
     c_bands:  1 eigenvalues not converged
     c_bands:  1 eigenvalues not converged
     c_bands:  1 eigenvalues not converged
     c_bands:  1 eigenvalues not converged
     c_bands:  1 eigenvalues not converged
     ethr =  4.49E-06,  avg # of iterations =  7.1

     total cpu time spent up to now is     5779.3 secs

     total energy              =    -938.23646514 Ry
     Harris-Foulkes estimate   =    -938.25471818 Ry
     estimated scf accuracy    <       0.13127481 Ry

     iteration #  3     ecut=    40.00 Ry     beta= 0.60
     Davidson diagonalization with overlap
     ethr =  4.49E-06,  avg # of iterations =  5.5

     total cpu time spent up to now is     5842.3 secs

     total energy              =    -938.24414685 Ry
     Harris-Foulkes estimate   =    -938.24571815 Ry
     estimated scf accuracy    <       0.00479384 Ry

     iteration #  4     ecut=    40.00 Ry     beta= 0.60
     Davidson diagonalization with overlap
     ethr =  4.49E-06,  avg # of iterations =  2.7

     total cpu time spent up to now is     5877.8 secs

     total energy              =    -938.24454168 Ry
     Harris-Foulkes estimate   =    -938.24468851 Ry
     estimated scf accuracy    <       0.00174412 Ry

     iteration #  5     ecut=    40.00 Ry     beta= 0.60
     Davidson diagonalization with overlap
     ethr =  1.74E-06,  avg # of iterations =  1.9

     total cpu time spent up to now is     5910.0 secs

     total energy              =    -938.24450862 Ry
     Harris-Foulkes estimate   =    -938.24464406 Ry
     estimated scf accuracy    <       0.00153855 Ry

     iteration #  6     ecut=    40.00 Ry     beta= 0.60
     Davidson diagonalization with overlap
     ethr =  1.54E-06,  avg # of iterations =  1.0

     total cpu time spent up to now is     5940.5 secs

     total energy              =    -938.24438524 Ry
     Harris-Foulkes estimate   =    -938.24454078 Ry
     estimated scf accuracy    <       0.00102892 Ry

     iteration #  7     ecut=    40.00 Ry     beta= 0.60
     Davidson diagonalization with overlap
     ethr =  1.03E-06,  avg # of iterations =  2.0

     total cpu time spent up to now is     5973.6 secs

     total energy              =    -938.24433860 Ry
     Harris-Foulkes estimate   =    -938.24443028 Ry
     estimated scf accuracy    <       0.00041778 Ry

     iteration #  8     ecut=    40.00 Ry     beta= 0.60
     Davidson diagonalization with overlap
     ethr =  4.18E-07,  avg # of iterations =  3.5

     total cpu time spent up to now is     6013.2 secs

     total energy              =    -938.24438731 Ry
     Harris-Foulkes estimate   =    -938.24438926 Ry
     estimated scf accuracy    <       0.00001751 Ry

     iteration #  9     ecut=    40.00 Ry     beta= 0.60
     Davidson diagonalization with overlap
     ethr =  1.75E-08,  avg # of iterations =  5.0

     total cpu time spent up to now is     6067.9 secs

     total energy              =    -938.24439395 Ry
     Harris-Foulkes estimate   =    -938.24439489 Ry
     estimated scf accuracy    <       0.00000782 Ry

     iteration # 10     ecut=    40.00 Ry     beta= 0.60
     Davidson diagonalization with overlap
     ethr =  7.82E-09,  avg # of iterations =  1.0

     total cpu time spent up to now is     6098.5 secs

     total energy              =    -938.24439268 Ry
     Harris-Foulkes estimate   =    -938.24439413 Ry
     estimated scf accuracy    <       0.00000471 Ry

     iteration # 11     ecut=    40.00 Ry     beta= 0.60
     Davidson diagonalization with overlap
     ethr =  4.71E-09,  avg # of iterations =  3.5

     total cpu time spent up to now is     6139.1 secs

     total energy              =    -938.24439321 Ry
     Harris-Foulkes estimate   =    -938.24439329 Ry
     estimated scf accuracy    <       0.00000038 Ry

     iteration # 12     ecut=    40.00 Ry     beta= 0.60
     Davidson diagonalization with overlap
     ethr =  3.82E-10,  avg # of iterations =  4.9

     total cpu time spent up to now is     6194.2 secs

     total energy              =    -938.24439330 Ry
     Harris-Foulkes estimate   =    -938.24439338 Ry
     estimated scf accuracy    <       0.00000120 Ry

     iteration # 13     ecut=    40.00 Ry     beta= 0.60
     Davidson diagonalization with overlap
     ethr =  3.82E-10,  avg # of iterations =  2.9

     total cpu time spent up to now is     6230.3 secs

     total energy              =    -938.24439328 Ry
     Harris-Foulkes estimate   =    -938.24439334 Ry
     estimated scf accuracy    <       0.00000075 Ry

     iteration # 14     ecut=    40.00 Ry     beta= 0.60
     Davidson diagonalization with overlap
     ethr =  3.82E-10,  avg # of iterations =  1.0

     total cpu time spent up to now is     6260.9 secs

     total energy              =    -938.24439326 Ry
     Harris-Foulkes estimate   =    -938.24439329 Ry
     estimated scf accuracy    <       0.00000039 Ry

     iteration # 15     ecut=    40.00 Ry     beta= 0.60
     Davidson diagonalization with overlap
     ethr =  3.82E-10,  avg # of iterations =  1.8

     total cpu time spent up to now is     6293.2 secs

     total energy              =    -938.24439326 Ry
     Harris-Foulkes estimate   =    -938.24439327 Ry
     estimated scf accuracy    <       0.00000012 Ry

     iteration # 16     ecut=    40.00 Ry     beta= 0.60
     Davidson diagonalization with overlap
     ethr =  1.16E-10,  avg # of iterations =  3.9

     total cpu time spent up to now is     6334.3 secs

     total energy              =    -938.24439327 Ry
     Harris-Foulkes estimate   =    -938.24439328 Ry
     estimated scf accuracy    <       0.00000004 Ry

     iteration # 17     ecut=    40.00 Ry     beta= 0.60
     Davidson diagonalization with overlap
     ethr =  3.65E-11,  avg # of iterations =  2.8

     total cpu time spent up to now is     6370.0 secs

     total energy              =    -938.24439327 Ry
     Harris-Foulkes estimate   =    -938.24439328 Ry
     estimated scf accuracy    <       0.00000001 Ry

     iteration # 18     ecut=    40.00 Ry     beta= 0.60
     Davidson diagonalization with overlap
     ethr =  1.41E-11,  avg # of iterations =  3.7

     total cpu time spent up to now is     6408.9 secs

     total energy              =    -938.24439327 Ry
     Harris-Foulkes estimate   =    -938.24439327 Ry
     estimated scf accuracy    <          2.3E-09 Ry

     iteration # 19     ecut=    40.00 Ry     beta= 0.60
     Davidson diagonalization with overlap
     ethr =  2.26E-12,  avg # of iterations =  3.9

     total cpu time spent up to now is     6450.6 secs

     total energy              =    -938.24439327 Ry
     Harris-Foulkes estimate   =    -938.24439327 Ry
     estimated scf accuracy    <          7.0E-10 Ry

     iteration # 20     ecut=    40.00 Ry     beta= 0.60
     Davidson diagonalization with overlap
     ethr =  7.04E-13,  avg # of iterations =  2.6

     total cpu time spent up to now is     6485.5 secs

     total energy              =    -938.24439327 Ry
     Harris-Foulkes estimate   =    -938.24439327 Ry
     estimated scf accuracy    <          1.7E-10 Ry

     iteration # 21     ecut=    40.00 Ry     beta= 0.60
     Davidson diagonalization with overlap
     ethr =  1.67E-13,  avg # of iterations =  4.1

     total cpu time spent up to now is     6529.1 secs

     End of self-consistent calculation

     Number of k-points >= 100: set verbosity='high' to print the bands.

     the Fermi energy is    15.6582 ev

!    total energy              =    -938.24439327 Ry
     Harris-Foulkes estimate   =    -938.24439327 Ry
     estimated scf accuracy    <          2.3E-11 Ry

     The total energy is the sum of the following terms:

     one-electron contribution =    -235.53163624 Ry
     hartree contribution      =     159.23368180 Ry
     xc contribution           =    -131.76453340 Ry
     ewald contribution        =    -730.17699018 Ry
     smearing contrib. (-TS)   =      -0.00491525 Ry

     convergence has been achieved in  21 iterations

     Forces acting on atoms (cartesian axes, Ry/au):

     atom    1 type  2   force =    -0.00114443    0.00066074    0.00000000
     atom    2 type  1   force =     0.00216807    0.00125204   -0.00000000
     atom    3 type  2   force =     0.00114724    0.00066095   -0.00000000
     atom    4 type  1   force =    -0.00216962    0.00125263    0.00000000
     atom    5 type  2   force =     0.00000122   -0.00132401    0.00000000
     atom    6 type  2   force =    -0.00000007    0.00000004    0.00000000
     atom    7 type  1   force =    -0.00000215    0.00000124    0.00000000
[...]
     Davidson diagonalization with overlap
     c_bands:  2 eigenvalues not converged
     c_bands:  1 eigenvalues not converged
     c_bands:  1 eigenvalues not converged
     c_bands:  1 eigenvalues not converged
     c_bands:  1 eigenvalues not converged
     c_bands:  1 eigenvalues not converged
     c_bands:  1 eigenvalues not converged
     c_bands:  2 eigenvalues not converged
     c_bands:  1 eigenvalues not converged
     c_bands:  2 eigenvalues not converged
     c_bands:  1 eigenvalues not converged
     c_bands:  1 eigenvalues not converged
     c_bands:  1 eigenvalues not converged
     c_bands:  2 eigenvalues not converged
     c_bands:  1 eigenvalues not converged
     c_bands:  1 eigenvalues not converged
     c_bands:  1 eigenvalues not converged
     c_bands:  1 eigenvalues not converged
     c_bands:  1 eigenvalues not converged
     c_bands:  1 eigenvalues not converged
     c_bands:  1 eigenvalues not converged
     c_bands:  1 eigenvalues not converged
     c_bands:  1 eigenvalues not converged
     c_bands:  1 eigenvalues not converged
     c_bands:  1 eigenvalues not converged
     c_bands:  2 eigenvalues not converged
     c_bands:  1 eigenvalues not converged
     c_bands:  1 eigenvalues not converged
     c_bands:  1 eigenvalues not converged
     c_bands:  2 eigenvalues not converged
     c_bands:  2 eigenvalues not converged
     c_bands:  1 eigenvalues not converged
     c_bands:  1 eigenvalues not converged
     c_bands:  1 eigenvalues not converged
     c_bands:  1 eigenvalues not converged
     c_bands:  1 eigenvalues not converged
     c_bands:  1 eigenvalues not converged
     c_bands:  1 eigenvalues not converged
     c_bands:  1 eigenvalues not converged
     c_bands:  1 eigenvalues not converged
     c_bands:  1 eigenvalues not converged
     c_bands:  1 eigenvalues not converged
     c_bands:  1 eigenvalues not converged
     c_bands:  1 eigenvalues not converged
     c_bands:  1 eigenvalues not converged
     c_bands:  1 eigenvalues not converged
     c_bands:  1 eigenvalues not converged
     c_bands:  1 eigenvalues not converged
     c_bands:  1 eigenvalues not converged
     c_bands:  1 eigenvalues not converged
     c_bands:  1 eigenvalues not converged
     c_bands:  1 eigenvalues not converged
     c_bands:  1 eigenvalues not converged
     c_bands:  1 eigenvalues not converged
     c_bands:  1 eigenvalues not converged
     c_bands:  1 eigenvalues not converged
     c_bands:  2 eigenvalues not converged
     ethr =  1.00E-06,  avg # of iterations = 15.9

     total cpu time spent up to now is    15803.5 secs

     total energy              =    -914.85867588 Ry
     Harris-Foulkes estimate   =    -942.41317998 Ry
     estimated scf accuracy    <      34.65900805 Ry

     iteration #  2     ecut=    40.00 Ry     beta= 0.60
     Davidson diagonalization with overlap
     ethr =  1.00E-02,  avg # of iterations =  6.0

     total cpu time spent up to now is    15873.3 secs

     total energy              =    -931.82221425 Ry
     Harris-Foulkes estimate   =    -977.29696041 Ry
     estimated scf accuracy    <     131.60535617 Ry

     iteration #  3     ecut=    40.00 Ry     beta= 0.60
     Davidson diagonalization with overlap
     ethr =  1.00E-02,  avg # of iterations =  4.0

     total cpu time spent up to now is    15923.4 secs

     total energy              =    -939.69976289 Ry
     Harris-Foulkes estimate   =    -943.18407864 Ry
     estimated scf accuracy    <      29.99963700 Ry

     iteration #  4     ecut=    40.00 Ry     beta= 0.60
     Davidson diagonalization with overlap
     ethr =  1.00E-02,  avg # of iterations =  2.0

     total cpu time spent up to now is    15954.8 secs

     total energy              =    -939.79577459 Ry
     Harris-Foulkes estimate   =    -940.35919989 Ry
     estimated scf accuracy    <      17.48201183 Ry

     iteration #  5     ecut=    40.00 Ry     beta= 0.60
     Davidson diagonalization with overlap
     ethr =  1.00E-02,  avg # of iterations =  1.0

     total cpu time spent up to now is    15984.0 secs

     total energy              =    -939.31406216 Ry
     Harris-Foulkes estimate   =    -939.86503838 Ry
     estimated scf accuracy    <      15.38504702 Ry

     iteration #  6     ecut=    40.00 Ry     beta= 0.60
     Davidson diagonalization with overlap
     ethr =  1.00E-02,  avg # of iterations =  1.0

     total cpu time spent up to now is    16013.0 secs

     total energy              =    -936.76292909 Ry
     Harris-Foulkes estimate   =    -939.37091704 Ry
     estimated scf accuracy    <      12.86699027 Ry

     iteration #  7     ecut=    40.00 Ry     beta= 0.60
     Davidson diagonalization with overlap
     ethr =  1.00E-02,  avg # of iterations =  4.2

     total cpu time spent up to now is    16056.7 secs

     total energy              =    -938.36967264 Ry
     Harris-Foulkes estimate   =    -938.28338926 Ry
     estimated scf accuracy    <       0.86943937 Ry

     iteration #  8     ecut=    40.00 Ry     beta= 0.60
     Davidson diagonalization with overlap
     ethr =  8.69E-04,  avg # of iterations =  6.2

     total cpu time spent up to now is    16116.2 secs

     total energy              =    -938.21011218 Ry
     Harris-Foulkes estimate   =    -938.59270576 Ry
     estimated scf accuracy    <       5.13246696 Ry

     iteration #  9     ecut=    40.00 Ry     beta= 0.60
     Davidson diagonalization with overlap
     ethr =  8.69E-04,  avg # of iterations =  3.0

     total cpu time spent up to now is    16160.8 secs

     total energy              =    -938.25673535 Ry
     Harris-Foulkes estimate   =    -938.33252958 Ry
     estimated scf accuracy    <       2.38061439 Ry

     iteration # 10     ecut=    40.00 Ry     beta= 0.60
     Davidson diagonalization with overlap
     ethr =  8.69E-04,  avg # of iterations =  2.4

     total cpu time spent up to now is    16204.3 secs

     total energy              =    -938.19779655 Ry
     Harris-Foulkes estimate   =    -938.30248550 Ry
     estimated scf accuracy    <       1.17694499 Ry

     iteration # 11     ecut=    40.00 Ry     beta= 0.60
     Davidson diagonalization with overlap
     ethr =  8.69E-04,  avg # of iterations =  1.8

     total cpu time spent up to now is    16244.4 secs

     total energy              =    -938.17164053 Ry
     Harris-Foulkes estimate   =    -938.23373997 Ry
     estimated scf accuracy    <       0.30486031 Ry

     iteration # 12     ecut=    40.00 Ry     beta= 0.60
     Davidson diagonalization with overlap
     ethr =  3.05E-04,  avg # of iterations =  5.5

     total cpu time spent up to now is    16318.9 secs

     total energy              =    -938.28842965 Ry
     Harris-Foulkes estimate   =    -938.29705935 Ry
     estimated scf accuracy    <       0.53945330 Ry

     iteration # 13     ecut=    40.00 Ry     beta= 0.60
     Davidson diagonalization with overlap
     ethr =  3.05E-04,  avg # of iterations =  1.0

     total cpu time spent up to now is    16356.3 secs

     total energy              =    -938.31508735 Ry
     Harris-Foulkes estimate   =    -938.29047767 Ry
     estimated scf accuracy    <       0.52580453 Ry

     iteration # 14     ecut=    40.00 Ry     beta= 0.60
     Davidson diagonalization with overlap
     ethr =  3.05E-04,  avg # of iterations =  1.0

     total cpu time spent up to now is    16393.7 secs

     total energy              =    -938.21732539 Ry
     Harris-Foulkes estimate   =    -938.32081460 Ry
     estimated scf accuracy    <       0.83973359 Ry

     iteration # 15     ecut=    40.00 Ry     beta= 0.60
     Davidson diagonalization with overlap
     ethr =  3.05E-04,  avg # of iterations =  1.0

     total cpu time spent up to now is    16431.1 secs

     total energy              =    -938.22431384 Ry
     Harris-Foulkes estimate   =    -938.24006381 Ry
     estimated scf accuracy    <       0.20119254 Ry

     iteration # 16     ecut=    40.00 Ry     beta= 0.60
     Davidson diagonalization with overlap
     ethr =  2.01E-04,  avg # of iterations =  3.3

     total cpu time spent up to now is    16481.8 secs

     total energy              =    -938.23902701 Ry
     Harris-Foulkes estimate   =    -938.24015923 Ry
     estimated scf accuracy    <       0.01064943 Ry

     iteration # 17     ecut=    40.00 Ry     beta= 0.60
     Davidson diagonalization with overlap
     ethr =  1.06E-05,  avg # of iterations =  7.6

     total cpu time spent up to now is    16566.9 secs

     total energy              =    -938.24056363 Ry
     Harris-Foulkes estimate   =    -938.24108764 Ry
     estimated scf accuracy    <       0.00138644 Ry

     iteration # 18     ecut=    40.00 Ry     beta= 0.60
     Davidson diagonalization with overlap
     ethr =  1.39E-06,  avg # of iterations =  5.8

     total cpu time spent up to now is    16644.3 secs

     total energy              =    -938.24038985 Ry
     Harris-Foulkes estimate   =    -938.24166004 Ry
     estimated scf accuracy    <       0.00921253 Ry

     iteration # 19     ecut=    40.00 Ry     beta= 0.60
     Davidson diagonalization with overlap
     ethr =  1.39E-06,  avg # of iterations =  4.5

     total cpu time spent up to now is    16707.0 secs

     total energy              =    -938.24094384 Ry
     Harris-Foulkes estimate   =    -938.24098932 Ry
     estimated scf accuracy    <       0.00051017 Ry

     iteration # 20     ecut=    40.00 Ry     beta= 0.60
     Davidson diagonalization with overlap
     ethr =  5.10E-07,  avg # of iterations =  2.6

     total cpu time spent up to now is    16750.8 secs

     total energy              =    -938.24094567 Ry
     Harris-Foulkes estimate   =    -938.24099870 Ry
     estimated scf accuracy    <       0.00049585 Ry

     iteration # 21     ecut=    40.00 Ry     beta= 0.60
     Davidson diagonalization with overlap
     ethr =  4.96E-07,  avg # of iterations =  1.0

     total cpu time spent up to now is    16788.2 secs

     total energy              =    -938.24095377 Ry
     Harris-Foulkes estimate   =    -938.24096264 Ry
     estimated scf accuracy    <       0.00012158 Ry

     iteration # 22     ecut=    40.00 Ry     beta= 0.60
     Davidson diagonalization with overlap
     ethr =  1.22E-07,  avg # of iterations =  4.1

     total cpu time spent up to now is    16842.0 secs

     total energy              =    -938.24096077 Ry
     Harris-Foulkes estimate   =    -938.24096292 Ry
     estimated scf accuracy    <       0.00005694 Ry

     iteration # 23     ecut=    40.00 Ry     beta= 0.60
     Davidson diagonalization with overlap
     ethr =  5.69E-08,  avg # of iterations =  1.3

     total cpu time spent up to now is    16880.4 secs

     total energy              =    -938.24095922 Ry
     Harris-Foulkes estimate   =    -938.24096170 Ry
     estimated scf accuracy    <       0.00003893 Ry

     iteration # 24     ecut=    40.00 Ry     beta= 0.60
     Davidson diagonalization with overlap
     ethr =  3.89E-08,  avg # of iterations =  1.2

     total cpu time spent up to now is    16918.5 secs

     total energy              =    -938.24095630 Ry
     Harris-Foulkes estimate   =    -938.24096005 Ry
     estimated scf accuracy    <       0.00001910 Ry

     iteration # 25     ecut=    40.00 Ry     beta= 0.60
     Davidson diagonalization with overlap
     ethr =  1.91E-08,  avg # of iterations =  4.0

     total cpu time spent up to now is    16976.2 secs

     total energy              =    -938.24095902 Ry
     Harris-Foulkes estimate   =    -938.24096056 Ry
     estimated scf accuracy    <       0.00001617 Ry

     iteration # 26     ecut=    40.00 Ry     beta= 0.60
     Davidson diagonalization with overlap
     ethr =  1.62E-08,  avg # of iterations =  1.0

     total cpu time spent up to now is    17013.7 secs

     total energy              =    -938.24095844 Ry
     Harris-Foulkes estimate   =    -938.24095940 Ry
     estimated scf accuracy    <       0.00000489 Ry

     iteration # 27     ecut=    40.00 Ry     beta= 0.60
     Davidson diagonalization with overlap
     ethr =  4.89E-09,  avg # of iterations =  3.9

     total cpu time spent up to now is    17071.0 secs

     total energy              =    -938.24095907 Ry
     Harris-Foulkes estimate   =    -938.24095962 Ry
     estimated scf accuracy    <       0.00000345 Ry

     iteration # 28     ecut=    40.00 Ry     beta= 0.60
     Davidson diagonalization with overlap
     ethr =  3.45E-09,  avg # of iterations =  1.7

     total cpu time spent up to now is    17110.7 secs

     total energy              =    -938.24095931 Ry
     Harris-Foulkes estimate   =    -938.24095930 Ry
     estimated scf accuracy    <       0.00000007 Ry

     iteration # 29     ecut=    40.00 Ry     beta= 0.60
     Davidson diagonalization with overlap
     ethr =  6.66E-11,  avg # of iterations =  5.1

     total cpu time spent up to now is    17181.3 secs

     total energy              =    -938.24095938 Ry
     Harris-Foulkes estimate   =    -938.24095938 Ry
     estimated scf accuracy    <       0.00000002 Ry

     iteration # 30     ecut=    40.00 Ry     beta= 0.60
     Davidson diagonalization with overlap
     ethr =  1.63E-11,  avg # of iterations =  1.1

     total cpu time spent up to now is    17219.0 secs

     total energy              =    -938.24095937 Ry
     Harris-Foulkes estimate   =    -938.24095938 Ry
     estimated scf accuracy    <          6.6E-09 Ry

     iteration # 31     ecut=    40.00 Ry     beta= 0.60
     Davidson diagonalization with overlap
     ethr =  6.64E-12,  avg # of iterations =  4.1

     total cpu time spent up to now is    17277.5 secs

     total energy              =    -938.24095938 Ry
     Harris-Foulkes estimate   =    -938.24095938 Ry
     estimated scf accuracy    <          5.0E-09 Ry

     iteration # 32     ecut=    40.00 Ry     beta= 0.60
     Davidson diagonalization with overlap
     ethr =  5.02E-12,  avg # of iterations =  1.0

     total cpu time spent up to now is    17315.1 secs

     total energy              =    -938.24095938 Ry
     Harris-Foulkes estimate   =    -938.24095938 Ry
     estimated scf accuracy    <          8.4E-10 Ry

     iteration # 33     ecut=    40.00 Ry     beta= 0.60
     Davidson diagonalization with overlap
     ethr =  8.37E-13,  avg # of iterations =  4.2

     total cpu time spent up to now is    17371.9 secs

     total energy              =    -938.24095938 Ry
     Harris-Foulkes estimate   =    -938.24095938 Ry
     estimated scf accuracy    <          5.0E-10 Ry

     iteration # 34     ecut=    40.00 Ry     beta= 0.60
     Davidson diagonalization with overlap
     ethr =  4.98E-13,  avg # of iterations =  1.0

     total cpu time spent up to now is    17400.9 secs

     total energy              =    -938.24095938 Ry
     Harris-Foulkes estimate   =    -938.24095938 Ry
     estimated scf accuracy    <          1.2E-10 Ry

     iteration # 35     ecut=    40.00 Ry     beta= 0.60
     Davidson diagonalization with overlap
     ethr =  1.24E-13,  avg # of iterations =  3.8

     total cpu time spent up to now is    17438.4 secs

     total energy              =    -938.24095938 Ry
     Harris-Foulkes estimate   =    -938.24095938 Ry
     estimated scf accuracy    <          8.9E-12 Ry

     iteration # 36     ecut=    40.00 Ry     beta= 0.60
     Davidson diagonalization with overlap
     ethr =  1.00E-13,  avg # of iterations =  1.0

     total cpu time spent up to now is    17467.4 secs

     End of self-consistent calculation

     Number of k-points >= 100: set verbosity='high' to print the bands.

     the Fermi energy is    15.6776 ev

!    total energy              =    -938.24095938 Ry
     Harris-Foulkes estimate   =    -938.24095938 Ry
     estimated scf accuracy    <          3.0E-12 Ry

     The total energy is the sum of the following terms:

     one-electron contribution =    -235.21930058 Ry
     hartree contribution      =     159.26462233 Ry
     xc contribution           =    -131.79453108 Ry
     ewald contribution        =    -730.48775082 Ry
     smearing contrib. (-TS)   =      -0.00399922 Ry

     convergence has been achieved in  36 iterations

     Forces acting on atoms (cartesian axes, Ry/au):

     atom    1 type  2   force =     0.00011465   -0.00006619    0.00000000
     atom    2 type  1   force =    -0.00001346   -0.00000787   -0.00000000
     atom    3 type  2   force =    -0.00011558   -0.00006568   -0.00000000
     atom    4 type  1   force =     0.00000942   -0.00000544    0.00000000
     atom    5 type  2   force =    -0.00000091    0.00013293   -0.00000000
     atom    6 type  2   force =     0.00000156   -0.00000090    0.00000000
     atom    7 type  1   force =     0.00000423   -0.00000244    0.00000000
     atom    8 type  1   force =     0.00000008    0.00001559   -0.00000000

     Total force =     0.000231     Total SCF correction =     0.000003


     Computing stress (Cartesian axis) and pressure

          total   stress  (Ry/bohr**3)                   (kbar)     P=   -2.83
  -0.00002383   0.00000001   0.00000000         -3.51      0.00      0.00
   0.00000001  -0.00002382   0.00000000          0.00     -3.50      0.00
  -0.00000000  -0.00000000  -0.00001007         -0.00     -0.00     -1.48

 
     init_run     :     35.59s CPU     37.73s WALL (       2 calls)
     electrons    :  16692.06s CPU  17019.18s WALL (      18 calls)
     update_pot   :     31.12s CPU     31.18s WALL (      16 calls)
     forces       :    100.15s CPU    103.06s WALL (      18 calls)
     stress       :    276.32s CPU    284.51s WALL (      18 calls)

     Called by init_run:
     wfcinit      :     32.71s CPU     34.00s WALL (       2 calls)
     potinit      :      0.86s CPU      1.15s WALL (       2 calls)
     hinit0       :      1.57s CPU      1.89s WALL (       2 calls)

     Called by electrons:
     c_bands      :  14665.51s CPU  14858.74s WALL (     374 calls)
     sum_band     :   1918.40s CPU   1998.47s WALL (     374 calls)
     v_of_rho     :     20.49s CPU     20.59s WALL (     385 calls)
     newd         :     88.13s CPU    140.19s WALL (     385 calls)
     mix_rho      :      2.95s CPU      2.96s WALL (     374 calls)

     Called by c_bands:
     init_us_2    :    191.67s CPU    192.81s WALL (  170562 calls)
     cegterg      :  13391.89s CPU  13554.07s WALL (   81158 calls)

     Called by sum_band:
     sum_band:bec :      7.20s CPU      7.27s WALL (   81158 calls)
     addusdens    :    107.63s CPU    156.60s WALL (     374 calls)

     Called by *egterg:
     h_psi        :   7717.36s CPU   7860.26s WALL (  352083 calls)
     s_psi        :    592.16s CPU    592.96s WALL (  352083 calls)
     g_psi        :     68.70s CPU     70.55s WALL (  270491 calls)
     cdiaghg      :   2602.64s CPU   2607.05s WALL (  346658 calls)

     Called by h_psi:
     h_psi:pot    :   7667.79s CPU   7807.60s WALL (  352083 calls)
     h_psi:calbec :    689.39s CPU    695.26s WALL (  352083 calls)
     vloc_psi     :   6370.07s CPU   6502.38s WALL (  352083 calls)
     add_vuspsi   :    606.34s CPU    607.50s WALL (  352083 calls)

     General routines
     calbec       :   1008.64s CPU   1017.85s WALL (  452771 calls)
     fft          :     13.44s CPU     13.83s WALL (    5460 calls)
     ffts         :      0.43s CPU      0.45s WALL (     759 calls)
     fftw         :   6810.06s CPU   6952.62s WALL (29292220 calls)
     interpolate  :      1.20s CPU      1.21s WALL (     385 calls)
 
     Parallel routines
     fft_scatt_xy :   1107.90s CPU   1134.77s WALL (29298439 calls)
     fft_scatt_yz :   1657.96s CPU   1658.40s WALL (29298439 calls)
 
     PWSCF        :     4h45m CPU       45h 4m WALL

      51h
 
   This run was terminated on:  18:42:16  28Jan2020            

=------------------------------------------------------------------------------=
   JOB DONE.
=------------------------------------------------------------------------------=
