
     Program PWSCF v.6.0 (svn rev. 13079) starts on 25Apr2018 at 16:34:56 

     This program is part of the open-source Quantum ESPRESSO suite
     for quantum simulation of materials; please cite
         "P. Giannozzi et al., J. Phys.:Condens. Matter 21 395502 (2009);
          URL http://www.quantum-espresso.org", 
     in publications or presentations arising from this work. More details at
     http://www.quantum-espresso.org/quote

     Parallel version (MPI), running on     4 processors
     R & G space division:  proc/nbgrp/npool/nimage =       4
     Waiting for input...
     Reading input from standard input

     Current dimensions of program PWSCF are:
     Max number of different atomic species (ntypx) = 10
     Max number of k-points (npk) =  40000
     Max angular momentum in pseudopotentials (lmaxx) =  3

     Subspace diagonalization in iterative solution of the eigenvalue problem:
     a serial algorithm will be used


     Parallelization info
     --------------------
     sticks:   dense  smooth     PW     G-vecs:    dense   smooth      PW
     Min         228      91     30                 9112     2301     412
     Max         229      92     31                 9119     2304     414
     Sum         913     367    121                36455     9211    1653



     bravais-lattice index     =            0
     lattice parameter (alat)  =       1.8897  a.u.
     unit-cell volume          =     269.4476 (a.u.)^3
     number of atoms/cell      =            2
     number of atomic types    =            2
     number of electrons       =        25.00
     number of Kohn-Sham states=           17
     kinetic-energy cutoff     =      40.0000  Ry
     charge density cutoff     =     400.0000  Ry
     convergence threshold     =      1.0E-10
     mixing beta               =       0.6000
     number of iterations used =            8  plain     mixing
     Exchange-correlation      = SLA  PW   PBE  PBE ( 1  4  3  4 0 0)
     nstep                     =           50


     celldm(1)=   1.889726  celldm(2)=   0.000000  celldm(3)=   0.000000
     celldm(4)=   0.000000  celldm(5)=   0.000000  celldm(6)=   0.000000

     crystal axes: (cart. coord. in units of alat)
               a(1) = (   1.522502  -2.637051   0.000000 )  
               a(2) = (  -3.045004   0.000000   0.000000 )  
               a(3) = (   0.000000   0.000000  -4.972461 )  

     reciprocal axes: (cart. coord. in units 2 pi/alat)
               b(1) = ( -0.000000 -0.379211 -0.000000 )  
               b(2) = ( -0.328407 -0.189606 -0.000000 )  
               b(3) = ( -0.000000 -0.000000 -0.201108 )  


     PseudoPot. # 1 for Nb read from file:
     ./Nb.pbe-nsp-van.UPF
     MD5 check sum: 0a22fc7fb0ba19a08ca5db297a5d2854
     Pseudo is Ultrasoft + core correction, Zval = 13.0
     Generated by new atomic code, or converted to UPF format
     Using radial grid of  887 points,  6 beta functions with: 
                l(1) =   0
                l(2) =   0
                l(3) =   1
                l(4) =   1
                l(5) =   2
                l(6) =   2
     Q(r) pseudized with  6 coefficients,  rinner =    1.000   1.000   1.000
                                                       1.000   1.000

     PseudoPot. # 2 for Ti read from file:
     ./Ti.pbe-sp-van_ak.UPF
     MD5 check sum: f98fea3e8887528921fefa5636a534ca
     Pseudo is Ultrasoft, Zval = 12.0
     Generated by new atomic code, or converted to UPF format
     Using radial grid of  851 points,  6 beta functions with: 
                l(1) =   0
                l(2) =   0
                l(3) =   1
                l(4) =   1
                l(5) =   2
                l(6) =   2
     Q(r) pseudized with  8 coefficients,  rinner =    1.000   1.000   1.000
                                                       1.000   1.000

     atomic species   valence    mass     pseudopotential
        Nb            13.00    92.90638     Nb( 1.00)
        Ti            12.00    47.86700     Ti( 1.00)

     12 Sym. Ops. (no inversion) found



   Cartesian axes

     site n.     atom                  positions (alat units)
         1           Ti  tau(   1) = (  -1.5225021  -2.6370512  -4.9724614  )
         2           Nb  tau(   2) = (   0.0000015  -1.7580350  -2.4862307  )

     number of k points=   280  Marzari-Vanderbilt smearing, width (Ry)=  0.0200

     Number of k-points >= 100: set verbosity='high' to print them.

     Dense  grid:    36455 G-vectors     FFT dimensions: (  40,  40,  60)

     Smooth grid:     9211 G-vectors     FFT dimensions: (  24,  24,  40)

     Estimated max dynamical RAM per process >      27.21Mb

     Estimated total allocated dynamical RAM >     108.83Mb

     Initial potential from superposition of free atoms

     starting charge   23.99722, renormalised to   25.00000
     Starting wfc are   23 randomized atomic wfcs

     total cpu time spent up to now is        3.7 secs

     per-process dynamical memory:    98.5 Mb

     Self-consistent Calculation

     iteration #  1     ecut=    40.00 Ry     beta=0.60
     Davidson diagonalization with overlap
     ethr =  1.00E-02,  avg # of iterations =  3.0

     total cpu time spent up to now is       10.0 secs

     total energy              =    -228.42355354 Ry
     Harris-Foulkes estimate   =    -235.65589728 Ry
     estimated scf accuracy    <       9.09899505 Ry

     iteration #  2     ecut=    40.00 Ry     beta=0.60
     Davidson diagonalization with overlap
     ethr =  1.00E-02,  avg # of iterations =  5.6

     total cpu time spent up to now is       20.5 secs

     total energy              =    -231.89300100 Ry
     Harris-Foulkes estimate   =    -244.62858656 Ry
     estimated scf accuracy    <      37.59440920 Ry

     iteration #  3     ecut=    40.00 Ry     beta=0.60
     Davidson diagonalization with overlap
     ethr =  1.00E-02,  avg # of iterations =  4.0

     total cpu time spent up to now is       27.7 secs

     total energy              =    -235.02965597 Ry
     Harris-Foulkes estimate   =    -235.48195023 Ry
     estimated scf accuracy    <       5.31482549 Ry

     iteration #  4     ecut=    40.00 Ry     beta=0.60
     Davidson diagonalization with overlap
     ethr =  1.00E-02,  avg # of iterations =  1.1

     total cpu time spent up to now is       32.0 secs

     total energy              =    -234.67738189 Ry
     Harris-Foulkes estimate   =    -235.05413468 Ry
     estimated scf accuracy    <       3.88992136 Ry

     iteration #  5     ecut=    40.00 Ry     beta=0.60
     Davidson diagonalization with overlap
     ethr =  1.00E-02,  avg # of iterations =  1.1

     total cpu time spent up to now is       36.2 secs

     total energy              =    -234.51690235 Ry
     Harris-Foulkes estimate   =    -234.71829200 Ry
     estimated scf accuracy    <       2.11120279 Ry

     iteration #  6     ecut=    40.00 Ry     beta=0.60
     Davidson diagonalization with overlap
     ethr =  8.44E-03,  avg # of iterations =  1.3

     total cpu time spent up to now is       40.5 secs

     total energy              =    -234.35520186 Ry
     Harris-Foulkes estimate   =    -234.55887892 Ry
     estimated scf accuracy    <       0.94065058 Ry

     iteration #  7     ecut=    40.00 Ry     beta=0.60
     Davidson diagonalization with overlap
     ethr =  3.76E-03,  avg # of iterations =  4.5

     total cpu time spent up to now is       47.1 secs

     total energy              =    -234.64701716 Ry
     Harris-Foulkes estimate   =    -234.62871098 Ry
     estimated scf accuracy    <       1.44632787 Ry

     iteration #  8     ecut=    40.00 Ry     beta=0.60
     Davidson diagonalization with overlap
     ethr =  3.76E-03,  avg # of iterations =  1.1

     total cpu time spent up to now is       51.3 secs

     total energy              =    -234.68963314 Ry
     Harris-Foulkes estimate   =    -234.64885274 Ry
     estimated scf accuracy    <       1.76674268 Ry

     iteration #  9     ecut=    40.00 Ry     beta=0.60
     Davidson diagonalization with overlap
     ethr =  3.76E-03,  avg # of iterations =  1.0

     total cpu time spent up to now is       55.5 secs

     total energy              =    -234.47106705 Ry
     Harris-Foulkes estimate   =    -234.69388774 Ry
     estimated scf accuracy    <       2.51692874 Ry

     iteration # 10     ecut=    40.00 Ry     beta=0.60
     Davidson diagonalization with overlap
     ethr =  3.76E-03,  avg # of iterations =  1.0

     total cpu time spent up to now is       59.6 secs

     total energy              =    -234.50942291 Ry
     Harris-Foulkes estimate   =    -234.54950160 Ry
     estimated scf accuracy    <       0.15531712 Ry

     iteration # 11     ecut=    40.00 Ry     beta=0.60
     Davidson diagonalization with overlap
     ethr =  6.21E-04,  avg # of iterations =  4.1

     total cpu time spent up to now is       65.9 secs

     total energy              =    -234.57239115 Ry
     Harris-Foulkes estimate   =    -234.57115215 Ry
     estimated scf accuracy    <       0.24157591 Ry

     iteration # 12     ecut=    40.00 Ry     beta=0.60
     Davidson diagonalization with overlap
     ethr =  6.21E-04,  avg # of iterations =  1.0

     total cpu time spent up to now is       70.0 secs

     total energy              =    -234.58963005 Ry
     Harris-Foulkes estimate   =    -234.57264573 Ry
     estimated scf accuracy    <       0.24981105 Ry

     iteration # 13     ecut=    40.00 Ry     beta=0.60
     Davidson diagonalization with overlap
     ethr =  6.21E-04,  avg # of iterations =  1.0

     total cpu time spent up to now is       74.6 secs

     total energy              =    -234.57301656 Ry
     Harris-Foulkes estimate   =    -234.59200871 Ry
     estimated scf accuracy    <       0.44147083 Ry

     iteration # 14     ecut=    40.00 Ry     beta=0.60
     Davidson diagonalization with overlap
     ethr =  6.21E-04,  avg # of iterations =  1.0

     total cpu time spent up to now is       78.8 secs

     total energy              =    -234.54467440 Ry
     Harris-Foulkes estimate   =    -234.57515102 Ry
     estimated scf accuracy    <       0.27121780 Ry

     iteration # 15     ecut=    40.00 Ry     beta=0.60
     Davidson diagonalization with overlap
     ethr =  6.21E-04,  avg # of iterations =  1.0

     total cpu time spent up to now is       83.2 secs

     total energy              =    -234.54173019 Ry
     Harris-Foulkes estimate   =    -234.55133027 Ry
     estimated scf accuracy    <       0.05451467 Ry

     iteration # 16     ecut=    40.00 Ry     beta=0.60
     Davidson diagonalization with overlap
     ethr =  2.18E-04,  avg # of iterations =  3.6

     total cpu time spent up to now is       88.9 secs

     total energy              =    -234.55170758 Ry
     Harris-Foulkes estimate   =    -234.55141732 Ry
     estimated scf accuracy    <       0.01383136 Ry

     iteration # 17     ecut=    40.00 Ry     beta=0.60
     Davidson diagonalization with overlap
     ethr =  5.53E-05,  avg # of iterations =  2.3

     total cpu time spent up to now is       93.7 secs

     total energy              =    -234.54772275 Ry
     Harris-Foulkes estimate   =    -234.55179397 Ry
     estimated scf accuracy    <       0.01748694 Ry

     iteration # 18     ecut=    40.00 Ry     beta=0.60
     Davidson diagonalization with overlap
     ethr =  5.53E-05,  avg # of iterations =  2.9

     total cpu time spent up to now is       98.7 secs

     total energy              =    -234.55038668 Ry
     Harris-Foulkes estimate   =    -234.55092071 Ry
     estimated scf accuracy    <       0.00827798 Ry

     iteration # 19     ecut=    40.00 Ry     beta=0.60
     Davidson diagonalization with overlap
     ethr =  3.31E-05,  avg # of iterations =  1.1

     total cpu time spent up to now is      102.9 secs

     total energy              =    -234.55038283 Ry
     Harris-Foulkes estimate   =    -234.55054919 Ry
     estimated scf accuracy    <       0.00314067 Ry

     iteration # 20     ecut=    40.00 Ry     beta=0.60
     Davidson diagonalization with overlap
     ethr =  1.26E-05,  avg # of iterations =  1.6

     total cpu time spent up to now is      107.3 secs

     total energy              =    -234.55043287 Ry
     Harris-Foulkes estimate   =    -234.55044175 Ry
     estimated scf accuracy    <       0.00145515 Ry

     iteration # 21     ecut=    40.00 Ry     beta=0.60
     Davidson diagonalization with overlap
     ethr =  5.82E-06,  avg # of iterations =  2.2

     total cpu time spent up to now is      111.9 secs

     total energy              =    -234.55032665 Ry
     Harris-Foulkes estimate   =    -234.55045125 Ry
     estimated scf accuracy    <       0.00137501 Ry

     iteration # 22     ecut=    40.00 Ry     beta=0.60
     Davidson diagonalization with overlap
     ethr =  5.50E-06,  avg # of iterations =  1.7

     total cpu time spent up to now is      116.3 secs

     total energy              =    -234.55037815 Ry
     Harris-Foulkes estimate   =    -234.55038189 Ry
     estimated scf accuracy    <       0.00012724 Ry

     iteration # 23     ecut=    40.00 Ry     beta=0.60
     Davidson diagonalization with overlap
     ethr =  5.09E-07,  avg # of iterations =  2.8

     total cpu time spent up to now is      121.2 secs

     total energy              =    -234.55038257 Ry
     Harris-Foulkes estimate   =    -234.55038398 Ry
     estimated scf accuracy    <       0.00006559 Ry

     iteration # 24     ecut=    40.00 Ry     beta=0.60
     Davidson diagonalization with overlap
     ethr =  2.62E-07,  avg # of iterations =  3.6

     total cpu time spent up to now is      126.6 secs

     total energy              =    -234.55040025 Ry
     Harris-Foulkes estimate   =    -234.55039984 Ry
     estimated scf accuracy    <       0.00014298 Ry

     iteration # 25     ecut=    40.00 Ry     beta=0.60
     Davidson diagonalization with overlap
     ethr =  2.62E-07,  avg # of iterations =  1.0

     total cpu time spent up to now is      130.8 secs

     total energy              =    -234.55037870 Ry
     Harris-Foulkes estimate   =    -234.55040059 Ry
     estimated scf accuracy    <       0.00014195 Ry

     iteration # 26     ecut=    40.00 Ry     beta=0.60
     Davidson diagonalization with overlap
     ethr =  2.62E-07,  avg # of iterations =  1.2

     total cpu time spent up to now is      135.0 secs

     total energy              =    -234.55036637 Ry
     Harris-Foulkes estimate   =    -234.55038150 Ry
     estimated scf accuracy    <       0.00005907 Ry

     iteration # 27     ecut=    40.00 Ry     beta=0.60
     Davidson diagonalization with overlap
     ethr =  2.36E-07,  avg # of iterations =  3.1

     total cpu time spent up to now is      140.5 secs

     total energy              =    -234.55037557 Ry
     Harris-Foulkes estimate   =    -234.55037515 Ry
     estimated scf accuracy    <       0.00000420 Ry

     iteration # 28     ecut=    40.00 Ry     beta=0.60
     Davidson diagonalization with overlap
     ethr =  1.68E-08,  avg # of iterations =  2.6

     total cpu time spent up to now is      145.6 secs

     total energy              =    -234.55037510 Ry
     Harris-Foulkes estimate   =    -234.55037614 Ry
     estimated scf accuracy    <       0.00001383 Ry

     iteration # 29     ecut=    40.00 Ry     beta=0.60
     Davidson diagonalization with overlap
     ethr =  1.68E-08,  avg # of iterations =  1.0

     total cpu time spent up to now is      149.7 secs

     total energy              =    -234.55037427 Ry
     Harris-Foulkes estimate   =    -234.55037526 Ry
     estimated scf accuracy    <       0.00000541 Ry

     iteration # 30     ecut=    40.00 Ry     beta=0.60
     Davidson diagonalization with overlap
     ethr =  1.68E-08,  avg # of iterations =  1.7

     total cpu time spent up to now is      154.1 secs

     total energy              =    -234.55037459 Ry
     Harris-Foulkes estimate   =    -234.55037462 Ry
     estimated scf accuracy    <       0.00000005 Ry

     iteration # 31     ecut=    40.00 Ry     beta=0.60
     Davidson diagonalization with overlap
     ethr =  2.05E-10,  avg # of iterations =  4.3

     total cpu time spent up to now is      161.1 secs

     total energy              =    -234.55037464 Ry
     Harris-Foulkes estimate   =    -234.55037464 Ry
     estimated scf accuracy    <          8.9E-09 Ry

     iteration # 32     ecut=    40.00 Ry     beta=0.60
     Davidson diagonalization with overlap
     ethr =  3.54E-11,  avg # of iterations =  2.2

     total cpu time spent up to now is      165.9 secs

     total energy              =    -234.55037464 Ry
     Harris-Foulkes estimate   =    -234.55037464 Ry
     estimated scf accuracy    <          2.6E-09 Ry

     iteration # 33     ecut=    40.00 Ry     beta=0.60
     Davidson diagonalization with overlap
     ethr =  1.06E-11,  avg # of iterations =  3.0

     total cpu time spent up to now is      170.9 secs

     End of self-consistent calculation

     Number of k-points >= 100: set verbosity='high' to print the bands.

     the Fermi energy is    13.8080 ev

!    total energy              =    -234.55037464 Ry
     Harris-Foulkes estimate   =    -234.55037464 Ry
     estimated scf accuracy    <          5.2E-11 Ry

     The total energy is the sum of the following terms:

     one-electron contribution =     -68.16586699 Ry
     hartree contribution      =      42.52949451 Ry
     xc contribution           =     -32.74659335 Ry
     ewald contribution        =    -176.16613289 Ry
     smearing contrib. (-TS)   =      -0.00127591 Ry

     convergence has been achieved in  33 iterations

     Forces acting on atoms (Ry/au):

     atom    1 type  2   force =     0.00000000    0.00000000    0.00000000
     atom    2 type  1   force =    -0.00000000   -0.00000000   -0.00000000

     Total force =     0.000000     Total SCF correction =     0.000000


     entering subroutine stress ...

          total   stress  (Ry/bohr**3)                   (kbar)     P= -126.23
  -0.00090948   0.00000000   0.00000000       -133.79      0.00      0.00
   0.00000000  -0.00090948   0.00000000          0.00   -133.79      0.00
   0.00000000   0.00000000  -0.00075533          0.00      0.00   -111.11


     BFGS Geometry Optimization

     number of scf cycles    =   1
     number of bfgs steps    =   0

     enthalpy new            =    -234.5503746368 Ry

     new trust radius        =       0.0746446123 bohr
     new conv_thr            =            1.0E-10 Ry

     new unit-cell volume =    252.47476 a.u.^3 (    37.41290 Ang^3 )

CELL_PARAMETERS (alat=  1.88972599)
   1.487885018  -2.577092632   0.000000000
  -2.975770036  -0.000000000   0.000000000
   0.000000000   0.000000000  -4.878564563

ATOMIC_POSITIONS (angstrom)
Ti      -1.487885018  -2.577092632  -4.878564563
Nb       0.000001488  -1.718062614  -2.439282281


     NEW-OLD atomic charge density approx. for the potential

     Check: negative/imaginary core charge=   -0.000001    0.000000
     extrapolated charge   23.38677, renormalised to   25.00000

     total cpu time spent up to now is      175.4 secs

     per-process dynamical memory:   123.4 Mb

     Self-consistent Calculation

     iteration #  1     ecut=    40.00 Ry     beta=0.60
     Davidson diagonalization with overlap
     c_bands:  1 eigenvalues not converged
     c_bands:  1 eigenvalues not converged
     c_bands:  1 eigenvalues not converged
     c_bands:  1 eigenvalues not converged
     c_bands:  1 eigenvalues not converged
     c_bands:  1 eigenvalues not converged
     c_bands:  1 eigenvalues not converged
     c_bands:  1 eigenvalues not converged
     c_bands:  1 eigenvalues not converged
     c_bands:  1 eigenvalues not converged
     ethr =  1.00E-06,  avg # of iterations = 11.8

     total cpu time spent up to now is      191.6 secs

     total energy              =    -232.15766823 Ry
     Harris-Foulkes estimate   =    -237.59804046 Ry
     estimated scf accuracy    <       2.55023942 Ry

     iteration #  2     ecut=    40.00 Ry     beta=0.60
     Davidson diagonalization with overlap
     ethr =  1.00E-02,  avg # of iterations =  4.8

     total cpu time spent up to now is      200.8 secs

     total energy              =    -234.31442165 Ry
     Harris-Foulkes estimate   =    -238.56170985 Ry
     estimated scf accuracy    <      14.30998647 Ry

     iteration #  3     ecut=    40.00 Ry     beta=0.60
     Davidson diagonalization with overlap
     ethr =  1.00E-02,  avg # of iterations =  3.0

     total cpu time spent up to now is      206.6 secs

     total energy              =    -234.60348391 Ry
     Harris-Foulkes estimate   =    -235.14760247 Ry
     estimated scf accuracy    <       2.80517270 Ry

     iteration #  4     ecut=    40.00 Ry     beta=0.60
     Davidson diagonalization with overlap
     ethr =  1.00E-02,  avg # of iterations =  1.2

     total cpu time spent up to now is      210.8 secs

     total energy              =    -234.56180487 Ry
     Harris-Foulkes estimate   =    -234.67581018 Ry
     estimated scf accuracy    <       1.17958989 Ry

     iteration #  5     ecut=    40.00 Ry     beta=0.60
     Davidson diagonalization with overlap
     ethr =  4.72E-03,  avg # of iterations =  2.0

     total cpu time spent up to now is      215.3 secs

     total energy              =    -234.61064662 Ry
     Harris-Foulkes estimate   =    -234.60509325 Ry
     estimated scf accuracy    <       0.51364213 Ry

     iteration #  6     ecut=    40.00 Ry     beta=0.60
     Davidson diagonalization with overlap
     ethr =  2.05E-03,  avg # of iterations =  1.8

     total cpu time spent up to now is      219.8 secs

     total energy              =    -234.54815851 Ry
     Harris-Foulkes estimate   =    -234.62373347 Ry
     estimated scf accuracy    <       0.54963241 Ry

     iteration #  7     ecut=    40.00 Ry     beta=0.60
     Davidson diagonalization with overlap
     ethr =  2.05E-03,  avg # of iterations =  2.3

     total cpu time spent up to now is      224.5 secs

     total energy              =    -234.57160374 Ry
     Harris-Foulkes estimate   =    -234.57087200 Ry
     estimated scf accuracy    <       0.11744629 Ry

     iteration #  8     ecut=    40.00 Ry     beta=0.60
     Davidson diagonalization with overlap
     ethr =  4.70E-04,  avg # of iterations =  3.8

     total cpu time spent up to now is      229.8 secs

     total energy              =    -234.56885650 Ry
     Harris-Foulkes estimate   =    -234.57482878 Ry
     estimated scf accuracy    <       0.11548974 Ry

     iteration #  9     ecut=    40.00 Ry     beta=0.60
     Davidson diagonalization with overlap
     ethr =  4.62E-04,  avg # of iterations =  1.0

     total cpu time spent up to now is      234.0 secs

     total energy              =    -234.55616565 Ry
     Harris-Foulkes estimate   =    -234.56974338 Ry
     estimated scf accuracy    <       0.07549714 Ry

     iteration # 10     ecut=    40.00 Ry     beta=0.60
     Davidson diagonalization with overlap
     ethr =  3.02E-04,  avg # of iterations =  2.2

     total cpu time spent up to now is      238.7 secs

     total energy              =    -234.55841955 Ry
     Harris-Foulkes estimate   =    -234.56074311 Ry
     estimated scf accuracy    <       0.00637722 Ry

     iteration # 11     ecut=    40.00 Ry     beta=0.60
     Davidson diagonalization with overlap
     ethr =  2.55E-05,  avg # of iterations =  5.0

     total cpu time spent up to now is      246.8 secs

     total energy              =    -234.56050994 Ry
     Harris-Foulkes estimate   =    -234.56246552 Ry
     estimated scf accuracy    <       0.01597576 Ry

     iteration # 12     ecut=    40.00 Ry     beta=0.60
     Davidson diagonalization with overlap
     ethr =  2.55E-05,  avg # of iterations =  1.1

     total cpu time spent up to now is      251.1 secs

     total energy              =    -234.56110234 Ry
     Harris-Foulkes estimate   =    -234.56117677 Ry
     estimated scf accuracy    <       0.00091682 Ry

     iteration # 13     ecut=    40.00 Ry     beta=0.60
     Davidson diagonalization with overlap
     ethr =  3.67E-06,  avg # of iterations =  4.2

     total cpu time spent up to now is      257.8 secs

     total energy              =    -234.56127807 Ry
     Harris-Foulkes estimate   =    -234.56128716 Ry
     estimated scf accuracy    <       0.00009477 Ry

     iteration # 14     ecut=    40.00 Ry     beta=0.60
     Davidson diagonalization with overlap
     ethr =  3.79E-07,  avg # of iterations =  1.3

     total cpu time spent up to now is      262.1 secs

     total energy              =    -234.56134175 Ry
     Harris-Foulkes estimate   =    -234.56128076 Ry
     estimated scf accuracy    <       0.00003870 Ry

     iteration # 15     ecut=    40.00 Ry     beta=0.60
     Davidson diagonalization with overlap
     ethr =  1.55E-07,  avg # of iterations =  4.8

     total cpu time spent up to now is      270.1 secs

     total energy              =    -234.56140251 Ry
     Harris-Foulkes estimate   =    -234.56149074 Ry
     estimated scf accuracy    <       0.00172595 Ry

     iteration # 16     ecut=    40.00 Ry     beta=0.60
     Davidson diagonalization with overlap
     ethr =  1.55E-07,  avg # of iterations =  3.0

     total cpu time spent up to now is      275.2 secs

     total energy              =    -234.56145629 Ry
     Harris-Foulkes estimate   =    -234.56140925 Ry
     estimated scf accuracy    <       0.00121656 Ry

     iteration # 17     ecut=    40.00 Ry     beta=0.60
     Davidson diagonalization with overlap
     ethr =  1.55E-07,  avg # of iterations =  2.0

     total cpu time spent up to now is      279.8 secs

     total energy              =    -234.56140203 Ry
     Harris-Foulkes estimate   =    -234.56145847 Ry
     estimated scf accuracy    <       0.00148301 Ry

     iteration # 18     ecut=    40.00 Ry     beta=0.60
     Davidson diagonalization with overlap
     ethr =  1.55E-07,  avg # of iterations =  2.5

     total cpu time spent up to now is      284.5 secs

     total energy              =    -234.56132846 Ry
     Harris-Foulkes estimate   =    -234.56140527 Ry
     estimated scf accuracy    <       0.00121801 Ry

     iteration # 19     ecut=    40.00 Ry     beta=0.60
     Davidson diagonalization with overlap
     ethr =  1.55E-07,  avg # of iterations =  3.3

     total cpu time spent up to now is      290.1 secs

     total energy              =    -234.56125427 Ry
     Harris-Foulkes estimate   =    -234.56133835 Ry
     estimated scf accuracy    <       0.00065014 Ry

     iteration # 20     ecut=    40.00 Ry     beta=0.60
     Davidson diagonalization with overlap
     ethr =  1.55E-07,  avg # of iterations =  3.8

     total cpu time spent up to now is      296.1 secs

     total energy              =    -234.56127381 Ry
     Harris-Foulkes estimate   =    -234.56127881 Ry
     estimated scf accuracy    <       0.00005396 Ry

     iteration # 21     ecut=    40.00 Ry     beta=0.60
     Davidson diagonalization with overlap
     ethr =  1.55E-07,  avg # of iterations =  1.0

     total cpu time spent up to now is      300.3 secs

     total energy              =    -234.56126981 Ry
     Harris-Foulkes estimate   =    -234.56127470 Ry
     estimated scf accuracy    <       0.00001853 Ry

     iteration # 22     ecut=    40.00 Ry     beta=0.60
     Davidson diagonalization with overlap
     ethr =  7.41E-08,  avg # of iterations =  3.3

     total cpu time spent up to now is      305.7 secs

     total energy              =    -234.56127299 Ry
     Harris-Foulkes estimate   =    -234.56127366 Ry
     estimated scf accuracy    <       0.00000372 Ry

     iteration # 23     ecut=    40.00 Ry     beta=0.60
     Davidson diagonalization with overlap
     ethr =  1.49E-08,  avg # of iterations =  1.3

     total cpu time spent up to now is      310.0 secs

     total energy              =    -234.56127314 Ry
     Harris-Foulkes estimate   =    -234.56127321 Ry
     estimated scf accuracy    <       0.00000040 Ry

     iteration # 24     ecut=    40.00 Ry     beta=0.60
     Davidson diagonalization with overlap
     ethr =  1.61E-09,  avg # of iterations =  3.7

     total cpu time spent up to now is      315.7 secs

     total energy              =    -234.56127325 Ry
     Harris-Foulkes estimate   =    -234.56127325 Ry
     estimated scf accuracy    <          7.2E-09 Ry

     iteration # 25     ecut=    40.00 Ry     beta=0.60
     Davidson diagonalization with overlap
     ethr =  2.88E-11,  avg # of iterations =  2.8

     total cpu time spent up to now is      320.9 secs

     total energy              =    -234.56127325 Ry
     Harris-Foulkes estimate   =    -234.56127325 Ry
     estimated scf accuracy    <          5.6E-09 Ry

     iteration # 26     ecut=    40.00 Ry     beta=0.60
     Davidson diagonalization with overlap
     ethr =  2.25E-11,  avg # of iterations =  2.0

     total cpu time spent up to now is      325.3 secs

     End of self-consistent calculation

     Number of k-points >= 100: set verbosity='high' to print the bands.

     the Fermi energy is    14.9101 ev

!    total energy              =    -234.56127325 Ry
     Harris-Foulkes estimate   =    -234.56127325 Ry
     estimated scf accuracy    <          1.1E-11 Ry

     The total energy is the sum of the following terms:

     one-electron contribution =     -62.51524799 Ry
     hartree contribution      =      40.84169905 Ry
     xc contribution           =     -32.85918990 Ry
     ewald contribution        =    -180.02754121 Ry
     smearing contrib. (-TS)   =      -0.00099320 Ry

     convergence has been achieved in  26 iterations

     Forces acting on atoms (Ry/au):

     atom    1 type  2   force =     0.00000000   -0.00000000    0.00000000
     atom    2 type  1   force =     0.00000000   -0.00000000    0.00000000

     Total force =     0.000000     Total SCF correction =     0.000000


     entering subroutine stress ...

          total   stress  (Ry/bohr**3)                   (kbar)     P=  -57.18
  -0.00044141   0.00000000   0.00000000        -64.93      0.00      0.00
   0.00000000  -0.00044141   0.00000000          0.00    -64.93      0.00
  -0.00000000  -0.00000000  -0.00028322         -0.00     -0.00    -41.66


     number of scf cycles    =   2
     number of bfgs steps    =   1

     enthalpy old            =    -234.5503746368 Ry
     enthalpy new            =    -234.5612732468 Ry

     CASE: enthalpy_new < enthalpy_old

     new trust radius        =       0.0617175388 bohr
     new conv_thr            =            1.0E-12 Ry

     new unit-cell volume =    239.75457 a.u.^3 (    35.52796 Ang^3 )

CELL_PARAMETERS (alat=  1.88972599)
   1.458988933  -2.527043150  -0.000000000
  -2.917977867  -0.000000000   0.000000000
  -0.000000000  -0.000000000  -4.818099234

ATOMIC_POSITIONS (angstrom)
Ti      -1.458988933  -2.527043150  -4.818099234
Nb       0.000001459  -1.684696276  -2.409049617


     NEW-OLD atomic charge density approx. for the potential

     Check: negative/imaginary core charge=   -0.000001    0.000000
     extrapolated charge   23.72683, renormalised to   25.00000

     total cpu time spent up to now is      329.8 secs

     per-process dynamical memory:   123.4 Mb

     Self-consistent Calculation

     iteration #  1     ecut=    40.00 Ry     beta=0.60
     Davidson diagonalization with overlap
     c_bands:  1 eigenvalues not converged
     c_bands:  1 eigenvalues not converged
     c_bands:  1 eigenvalues not converged
     c_bands:  1 eigenvalues not converged
     ethr =  1.00E-06,  avg # of iterations = 10.7

     total cpu time spent up to now is      345.3 secs

     total energy              =    -233.51604762 Ry
     Harris-Foulkes estimate   =    -236.76372348 Ry
     estimated scf accuracy    <       1.07145426 Ry

     iteration #  2     ecut=    40.00 Ry     beta=0.60
     Davidson diagonalization with overlap
     ethr =  4.29E-03,  avg # of iterations =  5.0

     total cpu time spent up to now is      354.4 secs

     total energy              =    -234.29752058 Ry
     Harris-Foulkes estimate   =    -236.54165000 Ry
     estimated scf accuracy    <       8.68933297 Ry

     iteration #  3     ecut=    40.00 Ry     beta=0.60
     Davidson diagonalization with overlap
     ethr =  4.29E-03,  avg # of iterations =  3.6

     total cpu time spent up to now is      360.6 secs

     total energy              =    -234.59577234 Ry
     Harris-Foulkes estimate   =    -234.79712147 Ry
     estimated scf accuracy    <       1.07848699 Ry

     iteration #  4     ecut=    40.00 Ry     beta=0.60
     Davidson diagonalization with overlap
     ethr =  4.29E-03,  avg # of iterations =  1.2

     total cpu time spent up to now is      364.8 secs

     total energy              =    -234.63346256 Ry
     Harris-Foulkes estimate   =    -234.62185286 Ry
     estimated scf accuracy    <       0.54002487 Ry

     iteration #  5     ecut=    40.00 Ry     beta=0.60
     Davidson diagonalization with overlap
     ethr =  2.16E-03,  avg # of iterations =  1.0

     total cpu time spent up to now is      369.0 secs

     total energy              =    -234.61224039 Ry
     Harris-Foulkes estimate   =    -234.63858217 Ry
     estimated scf accuracy    <       0.59411028 Ry

     iteration #  6     ecut=    40.00 Ry     beta=0.60
     Davidson diagonalization with overlap
     ethr =  2.16E-03,  avg # of iterations =  1.0

     total cpu time spent up to now is      373.1 secs

     total energy              =    -234.61121642 Ry
     Harris-Foulkes estimate   =    -234.61613412 Ry
     estimated scf accuracy    <       0.42819095 Ry

     iteration #  7     ecut=    40.00 Ry     beta=0.60
     Davidson diagonalization with overlap
     ethr =  1.71E-03,  avg # of iterations =  1.0

     total cpu time spent up to now is      377.3 secs

     total energy              =    -234.57974839 Ry
     Harris-Foulkes estimate   =    -234.61338132 Ry
     estimated scf accuracy    <       0.38064469 Ry

     iteration #  8     ecut=    40.00 Ry     beta=0.60
     Davidson diagonalization with overlap
     ethr =  1.52E-03,  avg # of iterations =  1.1

     total cpu time spent up to now is      381.5 secs

     total energy              =    -234.56034605 Ry
     Harris-Foulkes estimate   =    -234.58416155 Ry
     estimated scf accuracy    <       0.20280935 Ry

     iteration #  9     ecut=    40.00 Ry     beta=0.60
     Davidson diagonalization with overlap
     ethr =  8.11E-04,  avg # of iterations =  3.2

     total cpu time spent up to now is      386.6 secs

     total energy              =    -234.56734838 Ry
     Harris-Foulkes estimate   =    -234.56925972 Ry
     estimated scf accuracy    <       0.05411197 Ry

     iteration # 10     ecut=    40.00 Ry     beta=0.60
     Davidson diagonalization with overlap
     ethr =  2.16E-04,  avg # of iterations =  3.4

     total cpu time spent up to now is      391.7 secs

     total energy              =    -234.56619013 Ry
     Harris-Foulkes estimate   =    -234.56867410 Ry
     estimated scf accuracy    <       0.03246433 Ry

     iteration # 11     ecut=    40.00 Ry     beta=0.60
     Davidson diagonalization with overlap
     ethr =  1.30E-04,  avg # of iterations =  2.0

     total cpu time spent up to now is      396.2 secs

     total energy              =    -234.57083794 Ry
     Harris-Foulkes estimate   =    -234.56735217 Ry
     estimated scf accuracy    <       0.02318596 Ry

     iteration # 12     ecut=    40.00 Ry     beta=0.60
     Davidson diagonalization with overlap
     ethr =  9.27E-05,  avg # of iterations =  1.0

     total cpu time spent up to now is      400.4 secs

     total energy              =    -234.57154534 Ry
     Harris-Foulkes estimate   =    -234.57115118 Ry
     estimated scf accuracy    <       0.03865886 Ry

     iteration # 13     ecut=    40.00 Ry     beta=0.60
     Davidson diagonalization with overlap
     ethr =  9.27E-05,  avg # of iterations =  1.0

     total cpu time spent up to now is      404.6 secs

     total energy              =    -234.56211569 Ry
     Harris-Foulkes estimate   =    -234.57158931 Ry
     estimated scf accuracy    <       0.03822547 Ry

     iteration # 14     ecut=    40.00 Ry     beta=0.60
     Davidson diagonalization with overlap
     ethr =  9.27E-05,  avg # of iterations =  2.1

     total cpu time spent up to now is      409.5 secs

     total energy              =    -234.56246806 Ry
     Harris-Foulkes estimate   =    -234.56453923 Ry
     estimated scf accuracy    <       0.00795083 Ry

     iteration # 15     ecut=    40.00 Ry     beta=0.60
     Davidson diagonalization with overlap
     ethr =  3.18E-05,  avg # of iterations =  4.3

     total cpu time spent up to now is      415.3 secs

     total energy              =    -234.56374644 Ry
     Harris-Foulkes estimate   =    -234.56451623 Ry
     estimated scf accuracy    <       0.00953433 Ry

     iteration # 16     ecut=    40.00 Ry     beta=0.60
     Davidson diagonalization with overlap
     ethr =  3.18E-05,  avg # of iterations =  1.0

     total cpu time spent up to now is      419.5 secs

     total energy              =    -234.56323737 Ry
     Harris-Foulkes estimate   =    -234.56387922 Ry
     estimated scf accuracy    <       0.00351711 Ry

     iteration # 17     ecut=    40.00 Ry     beta=0.60
     Davidson diagonalization with overlap
     ethr =  1.41E-05,  avg # of iterations =  2.5

     total cpu time spent up to now is      424.2 secs

     total energy              =    -234.56352970 Ry
     Harris-Foulkes estimate   =    -234.56354916 Ry
     estimated scf accuracy    <       0.00006955 Ry

     iteration # 18     ecut=    40.00 Ry     beta=0.60
     Davidson diagonalization with overlap
     ethr =  2.78E-07,  avg # of iterations =  4.5

     total cpu time spent up to now is      431.0 secs

     total energy              =    -234.56355720 Ry
     Harris-Foulkes estimate   =    -234.56355831 Ry
     estimated scf accuracy    <       0.00000758 Ry

     iteration # 19     ecut=    40.00 Ry     beta=0.60
     Davidson diagonalization with overlap
     ethr =  3.03E-08,  avg # of iterations =  1.7

     total cpu time spent up to now is      435.4 secs

     total energy              =    -234.56355641 Ry
     Harris-Foulkes estimate   =    -234.56355747 Ry
     estimated scf accuracy    <       0.00000599 Ry

     iteration # 20     ecut=    40.00 Ry     beta=0.60
     Davidson diagonalization with overlap
     ethr =  2.40E-08,  avg # of iterations =  1.1

     total cpu time spent up to now is      439.6 secs

     total energy              =    -234.56355569 Ry
     Harris-Foulkes estimate   =    -234.56355655 Ry
     estimated scf accuracy    <       0.00000301 Ry

     iteration # 21     ecut=    40.00 Ry     beta=0.60
     Davidson diagonalization with overlap
     ethr =  1.20E-08,  avg # of iterations =  2.5

     total cpu time spent up to now is      444.4 secs

     total energy              =    -234.56355585 Ry
     Harris-Foulkes estimate   =    -234.56355596 Ry
     estimated scf accuracy    <       0.00000035 Ry

     iteration # 22     ecut=    40.00 Ry     beta=0.60
     Davidson diagonalization with overlap
     ethr =  1.38E-09,  avg # of iterations =  3.3

     total cpu time spent up to now is      450.3 secs

     total energy              =    -234.56355592 Ry
     Harris-Foulkes estimate   =    -234.56355592 Ry
     estimated scf accuracy    <          4.7E-09 Ry

     iteration # 23     ecut=    40.00 Ry     beta=0.60
     Davidson diagonalization with overlap
     ethr =  1.88E-11,  avg # of iterations =  3.6

     total cpu time spent up to now is      456.0 secs

     total energy              =    -234.56355592 Ry
     Harris-Foulkes estimate   =    -234.56355592 Ry
     estimated scf accuracy    <          7.8E-10 Ry

     iteration # 24     ecut=    40.00 Ry     beta=0.60
     Davidson diagonalization with overlap
     ethr =  3.13E-12,  avg # of iterations =  3.5

     total cpu time spent up to now is      461.6 secs

     total energy              =    -234.56355592 Ry
     Harris-Foulkes estimate   =    -234.56355592 Ry
     estimated scf accuracy    <          1.6E-10 Ry

     iteration # 25     ecut=    40.00 Ry     beta=0.60
     Davidson diagonalization with overlap
     ethr =  6.21E-13,  avg # of iterations =  1.6

     total cpu time spent up to now is      465.9 secs

     total energy              =    -234.56355592 Ry
     Harris-Foulkes estimate   =    -234.56355592 Ry
     estimated scf accuracy    <          3.2E-11 Ry

     iteration # 26     ecut=    40.00 Ry     beta=0.60
     Davidson diagonalization with overlap
     ethr =  1.29E-13,  avg # of iterations =  3.1

     total cpu time spent up to now is      471.1 secs

     total energy              =    -234.56355592 Ry
     Harris-Foulkes estimate   =    -234.56355592 Ry
     estimated scf accuracy    <          4.5E-12 Ry

     iteration # 27     ecut=    40.00 Ry     beta=0.60
     Davidson diagonalization with overlap
     ethr =  1.00E-13,  avg # of iterations =  1.0

     total cpu time spent up to now is      475.3 secs

     End of self-consistent calculation

     Number of k-points >= 100: set verbosity='high' to print the bands.

     the Fermi energy is    15.8296 ev

!    total energy              =    -234.56355592 Ry
     Harris-Foulkes estimate   =    -234.56355592 Ry
     estimated scf accuracy    <          3.8E-13 Ry

     The total energy is the sum of the following terms:

     one-electron contribution =     -57.97636390 Ry
     hartree contribution      =      39.52188292 Ry
     xc contribution           =     -32.95552281 Ry
     ewald contribution        =    -183.15282131 Ry
     smearing contrib. (-TS)   =      -0.00073083 Ry

     convergence has been achieved in  27 iterations

     Forces acting on atoms (Ry/au):

     atom    1 type  2   force =    -0.00000000   -0.00000000    0.00000000
     atom    2 type  1   force =     0.00000000   -0.00000000    0.00000000

     Total force =     0.000000     Total SCF correction =     0.000000


     entering subroutine stress ...

          total   stress  (Ry/bohr**3)                   (kbar)     P=   11.03
   0.00003068   0.00000000  -0.00000000          4.51      0.00     -0.00
  -0.00000000   0.00003068  -0.00000000         -0.00      4.51     -0.00
   0.00000000   0.00000000   0.00016364          0.00      0.00     24.07


     number of scf cycles    =   3
     number of bfgs steps    =   2

     enthalpy old            =    -234.5612732468 Ry
     enthalpy new            =    -234.5635559220 Ry

     CASE: enthalpy_new < enthalpy_old

     new trust radius        =       0.0120839242 bohr
     new conv_thr            =            1.0E-12 Ry

     new unit-cell volume =    241.42344 a.u.^3 (    35.77526 Ang^3 )

CELL_PARAMETERS (alat=  1.88972599)
   1.461209839  -2.530889871  -0.000000000
  -2.922419679  -0.000000000   0.000000000
  -0.000000000  -0.000000000  -4.836899773

ATOMIC_POSITIONS (angstrom)
Ti      -1.461209839  -2.530889871  -4.836899773
Nb       0.000001462  -1.687260758  -2.418449886


     NEW-OLD atomic charge density approx. for the potential

     Check: negative/imaginary core charge=   -0.000001    0.000000
     extrapolated charge   25.16588, renormalised to   25.00000

     total cpu time spent up to now is      479.8 secs

     per-process dynamical memory:   123.4 Mb

     Self-consistent Calculation

     iteration #  1     ecut=    40.00 Ry     beta=0.60
     Davidson diagonalization with overlap
     ethr =  1.00E-06,  avg # of iterations =  4.9

     total cpu time spent up to now is      489.5 secs

     total energy              =    -234.55664292 Ry
     Harris-Foulkes estimate   =    -234.28749010 Ry
     estimated scf accuracy    <       0.00601520 Ry

     iteration #  2     ecut=    40.00 Ry     beta=0.60
     Davidson diagonalization with overlap
     ethr =  2.41E-05,  avg # of iterations =  4.9

     total cpu time spent up to now is      499.1 secs

     total energy              =    -234.54996272 Ry
     Harris-Foulkes estimate   =    -234.57995294 Ry
     estimated scf accuracy    <       0.24198600 Ry

     iteration #  3     ecut=    40.00 Ry     beta=0.60
     Davidson diagonalization with overlap
     ethr =  2.41E-05,  avg # of iterations =  4.5

     total cpu time spent up to now is      506.5 secs

     total energy              =    -234.56355080 Ry
     Harris-Foulkes estimate   =    -234.56522364 Ry
     estimated scf accuracy    <       0.00466845 Ry

     iteration #  4     ecut=    40.00 Ry     beta=0.60
     Davidson diagonalization with overlap
     ethr =  1.87E-05,  avg # of iterations =  1.2

     total cpu time spent up to now is      510.8 secs

     total energy              =    -234.56371000 Ry
     Harris-Foulkes estimate   =    -234.56402077 Ry
     estimated scf accuracy    <       0.00247647 Ry

     iteration #  5     ecut=    40.00 Ry     beta=0.60
     Davidson diagonalization with overlap
     ethr =  9.91E-06,  avg # of iterations =  1.9

     total cpu time spent up to now is      515.3 secs

     total energy              =    -234.56374315 Ry
     Harris-Foulkes estimate   =    -234.56382327 Ry
     estimated scf accuracy    <       0.00121042 Ry

     iteration #  6     ecut=    40.00 Ry     beta=0.60
     Davidson diagonalization with overlap
     ethr =  4.84E-06,  avg # of iterations =  1.1

     total cpu time spent up to now is      519.5 secs

     total energy              =    -234.56362009 Ry
     Harris-Foulkes estimate   =    -234.56375985 Ry
     estimated scf accuracy    <       0.00075373 Ry

     iteration #  7     ecut=    40.00 Ry     beta=0.60
     Davidson diagonalization with overlap
     ethr =  3.01E-06,  avg # of iterations =  2.0

     total cpu time spent up to now is      524.0 secs

     total energy              =    -234.56365707 Ry
     Harris-Foulkes estimate   =    -234.56367011 Ry
     estimated scf accuracy    <       0.00007877 Ry

     iteration #  8     ecut=    40.00 Ry     beta=0.60
     Davidson diagonalization with overlap
     ethr =  3.15E-07,  avg # of iterations =  3.0

     total cpu time spent up to now is      529.2 secs

     total energy              =    -234.56366976 Ry
     Harris-Foulkes estimate   =    -234.56366990 Ry
     estimated scf accuracy    <       0.00000309 Ry

     iteration #  9     ecut=    40.00 Ry     beta=0.60
     Davidson diagonalization with overlap
     ethr =  1.23E-08,  avg # of iterations =  3.7

     total cpu time spent up to now is      535.0 secs

     total energy              =    -234.56367059 Ry
     Harris-Foulkes estimate   =    -234.56367064 Ry
     estimated scf accuracy    <       0.00000113 Ry

     iteration # 10     ecut=    40.00 Ry     beta=0.60
     Davidson diagonalization with overlap
     ethr =  4.53E-09,  avg # of iterations =  2.0

     total cpu time spent up to now is      539.5 secs

     total energy              =    -234.56367038 Ry
     Harris-Foulkes estimate   =    -234.56367074 Ry
     estimated scf accuracy    <       0.00000062 Ry

     iteration # 11     ecut=    40.00 Ry     beta=0.60
     Davidson diagonalization with overlap
     ethr =  2.46E-09,  avg # of iterations =  3.0

     total cpu time spent up to now is      544.9 secs

     total energy              =    -234.56367053 Ry
     Harris-Foulkes estimate   =    -234.56367054 Ry
     estimated scf accuracy    <       0.00000015 Ry

     iteration # 12     ecut=    40.00 Ry     beta=0.60
     Davidson diagonalization with overlap
     ethr =  6.16E-10,  avg # of iterations =  1.0

     total cpu time spent up to now is      549.0 secs

     total energy              =    -234.56367052 Ry
     Harris-Foulkes estimate   =    -234.56367054 Ry
     estimated scf accuracy    <       0.00000011 Ry

     iteration # 13     ecut=    40.00 Ry     beta=0.60
     Davidson diagonalization with overlap
     ethr =  4.56E-10,  avg # of iterations =  1.2

     total cpu time spent up to now is      553.2 secs

     total energy              =    -234.56367052 Ry
     Harris-Foulkes estimate   =    -234.56367052 Ry
     estimated scf accuracy    <          9.1E-09 Ry

     iteration # 14     ecut=    40.00 Ry     beta=0.60
     Davidson diagonalization with overlap
     ethr =  3.66E-11,  avg # of iterations =  3.9

     total cpu time spent up to now is      559.7 secs

     total energy              =    -234.56367052 Ry
     Harris-Foulkes estimate   =    -234.56367053 Ry
     estimated scf accuracy    <       0.00000002 Ry

     iteration # 15     ecut=    40.00 Ry     beta=0.60
     Davidson diagonalization with overlap
     ethr =  3.66E-11,  avg # of iterations =  1.6

     total cpu time spent up to now is      564.0 secs

     total energy              =    -234.56367052 Ry
     Harris-Foulkes estimate   =    -234.56367052 Ry
     estimated scf accuracy    <          4.5E-09 Ry

     iteration # 16     ecut=    40.00 Ry     beta=0.60
     Davidson diagonalization with overlap
     ethr =  1.81E-11,  avg # of iterations =  2.7

     total cpu time spent up to now is      568.9 secs

     total energy              =    -234.56367052 Ry
     Harris-Foulkes estimate   =    -234.56367052 Ry
     estimated scf accuracy    <          6.0E-10 Ry

     iteration # 17     ecut=    40.00 Ry     beta=0.60
     Davidson diagonalization with overlap
     ethr =  2.41E-12,  avg # of iterations =  2.7

     total cpu time spent up to now is      573.7 secs

     total energy              =    -234.56367052 Ry
     Harris-Foulkes estimate   =    -234.56367052 Ry
     estimated scf accuracy    <          9.0E-11 Ry

     iteration # 18     ecut=    40.00 Ry     beta=0.60
     Davidson diagonalization with overlap
     ethr =  3.59E-13,  avg # of iterations =  3.2

     total cpu time spent up to now is      578.9 secs

     total energy              =    -234.56367052 Ry
     Harris-Foulkes estimate   =    -234.56367052 Ry
     estimated scf accuracy    <          8.1E-12 Ry

     iteration # 19     ecut=    40.00 Ry     beta=0.60
     Davidson diagonalization with overlap
     ethr =  1.00E-13,  avg # of iterations =  1.2

     total cpu time spent up to now is      583.1 secs

     total energy              =    -234.56367052 Ry
     Harris-Foulkes estimate   =    -234.56367052 Ry
     estimated scf accuracy    <          8.8E-12 Ry

     iteration # 20     ecut=    40.00 Ry     beta=0.60
     Davidson diagonalization with overlap
     ethr =  1.00E-13,  avg # of iterations =  1.0

     total cpu time spent up to now is      587.2 secs

     total energy              =    -234.56367052 Ry
     Harris-Foulkes estimate   =    -234.56367052 Ry
     estimated scf accuracy    <          2.5E-12 Ry

     iteration # 21     ecut=    40.00 Ry     beta=0.60
     Davidson diagonalization with overlap
     ethr =  1.00E-13,  avg # of iterations =  1.3

     total cpu time spent up to now is      591.5 secs

     End of self-consistent calculation

     Number of k-points >= 100: set verbosity='high' to print the bands.

     the Fermi energy is    15.7023 ev

!    total energy              =    -234.56367052 Ry
     Harris-Foulkes estimate   =    -234.56367052 Ry
     estimated scf accuracy    <          1.1E-14 Ry

     The total energy is the sum of the following terms:

     one-electron contribution =     -58.59378233 Ry
     hartree contribution      =      39.70140175 Ry
     xc contribution           =     -32.94258088 Ry
     ewald contribution        =    -182.72795887 Ry
     smearing contrib. (-TS)   =      -0.00075021 Ry

     convergence has been achieved in  21 iterations

     Forces acting on atoms (Ry/au):

     atom    1 type  2   force =     0.00000000   -0.00000000    0.00000000
     atom    2 type  1   force =     0.00000000   -0.00000000    0.00000000

     Total force =     0.000000     Total SCF correction =     0.000000


     entering subroutine stress ...

          total   stress  (Ry/bohr**3)                   (kbar)     P=    1.02
  -0.00003038   0.00000000   0.00000000         -4.47      0.00      0.00
   0.00000000  -0.00003038   0.00000000          0.00     -4.47      0.00
  -0.00000000  -0.00000000   0.00008149         -0.00     -0.00     11.99


     number of scf cycles    =   4
     number of bfgs steps    =   3

     enthalpy old            =    -234.5635559220 Ry
     enthalpy new            =    -234.5636705249 Ry

     CASE: enthalpy_new < enthalpy_old

     new trust radius        =       0.0126151342 bohr
     new conv_thr            =            1.0E-12 Ry

     new unit-cell volume =    241.97756 a.u.^3 (    35.85738 Ang^3 )

CELL_PARAMETERS (alat=  1.88972599)
   1.459925520  -2.528665366  -0.000000000
  -2.919851040  -0.000000000   0.000000000
  -0.000000000  -0.000000000  -4.856535151

ATOMIC_POSITIONS (angstrom)
Ti      -1.459925520  -2.528665366  -4.856535151
Nb       0.000001460  -1.685777753  -2.428267575


     NEW-OLD atomic charge density approx. for the potential

     Check: negative/imaginary core charge=   -0.000001    0.000000
     extrapolated charge   25.05495, renormalised to   25.00000

     total cpu time spent up to now is      596.0 secs

     per-process dynamical memory:   123.4 Mb

     Self-consistent Calculation

     iteration #  1     ecut=    40.00 Ry     beta=0.60
     Davidson diagonalization with overlap
     ethr =  1.00E-06,  avg # of iterations =  4.1

     total cpu time spent up to now is      605.4 secs

     total energy              =    -234.56306578 Ry
     Harris-Foulkes estimate   =    -234.47172987 Ry
     estimated scf accuracy    <       0.00055040 Ry

     iteration #  2     ecut=    40.00 Ry     beta=0.60
     Davidson diagonalization with overlap
     ethr =  2.20E-06,  avg # of iterations =  4.9

     total cpu time spent up to now is      615.1 secs

     total energy              =    -234.56287098 Ry
     Harris-Foulkes estimate   =    -234.56486859 Ry
     estimated scf accuracy    <       0.01398516 Ry

     iteration #  3     ecut=    40.00 Ry     beta=0.60
     Davidson diagonalization with overlap
     ethr =  2.20E-06,  avg # of iterations =  4.4

     total cpu time spent up to now is      622.3 secs

     total energy              =    -234.56370638 Ry
     Harris-Foulkes estimate   =    -234.56392532 Ry
     estimated scf accuracy    <       0.00068327 Ry

     iteration #  4     ecut=    40.00 Ry     beta=0.60
     Davidson diagonalization with overlap
     ethr =  2.20E-06,  avg # of iterations =  1.6

     total cpu time spent up to now is      626.7 secs

     total energy              =    -234.56374322 Ry
     Harris-Foulkes estimate   =    -234.56378493 Ry
     estimated scf accuracy    <       0.00028998 Ry

     iteration #  5     ecut=    40.00 Ry     beta=0.60
     Davidson diagonalization with overlap
     ethr =  1.16E-06,  avg # of iterations =  1.8

     total cpu time spent up to now is      631.1 secs

     total energy              =    -234.56373848 Ry
     Harris-Foulkes estimate   =    -234.56375621 Ry
     estimated scf accuracy    <       0.00011585 Ry

     iteration #  6     ecut=    40.00 Ry     beta=0.60
     Davidson diagonalization with overlap
     ethr =  4.63E-07,  avg # of iterations =  1.4

     total cpu time spent up to now is      635.4 secs

     total energy              =    -234.56373627 Ry
     Harris-Foulkes estimate   =    -234.56374335 Ry
     estimated scf accuracy    <       0.00002778 Ry

     iteration #  7     ecut=    40.00 Ry     beta=0.60
     Davidson diagonalization with overlap
     ethr =  1.11E-07,  avg # of iterations =  2.9

     total cpu time spent up to now is      640.6 secs

     total energy              =    -234.56374190 Ry
     Harris-Foulkes estimate   =    -234.56374213 Ry
     estimated scf accuracy    <       0.00000103 Ry

     iteration #  8     ecut=    40.00 Ry     beta=0.60
     Davidson diagonalization with overlap
     ethr =  4.11E-09,  avg # of iterations =  2.9

     total cpu time spent up to now is      645.9 secs

     total energy              =    -234.56374200 Ry
     Harris-Foulkes estimate   =    -234.56374207 Ry
     estimated scf accuracy    <       0.00000054 Ry

     iteration #  9     ecut=    40.00 Ry     beta=0.60
     Davidson diagonalization with overlap
     ethr =  2.14E-09,  avg # of iterations =  1.2

     total cpu time spent up to now is      650.2 secs

     total energy              =    -234.56374184 Ry
     Harris-Foulkes estimate   =    -234.56374201 Ry
     estimated scf accuracy    <       0.00000035 Ry

     iteration # 10     ecut=    40.00 Ry     beta=0.60
     Davidson diagonalization with overlap
     ethr =  1.40E-09,  avg # of iterations =  3.0

     total cpu time spent up to now is      655.5 secs

     total energy              =    -234.56374190 Ry
     Harris-Foulkes estimate   =    -234.56374190 Ry
     estimated scf accuracy    <          3.4E-09 Ry

     iteration # 11     ecut=    40.00 Ry     beta=0.60
     Davidson diagonalization with overlap
     ethr =  1.36E-11,  avg # of iterations =  3.8

     total cpu time spent up to now is      662.4 secs

     total energy              =    -234.56374191 Ry
     Harris-Foulkes estimate   =    -234.56374191 Ry
     estimated scf accuracy    <          5.0E-10 Ry

     iteration # 12     ecut=    40.00 Ry     beta=0.60
     Davidson diagonalization with overlap
     ethr =  1.98E-12,  avg # of iterations =  1.6

     total cpu time spent up to now is      666.8 secs

     total energy              =    -234.56374191 Ry
     Harris-Foulkes estimate   =    -234.56374191 Ry
     estimated scf accuracy    <          4.0E-10 Ry

     iteration # 13     ecut=    40.00 Ry     beta=0.60
     Davidson diagonalization with overlap
     ethr =  1.62E-12,  avg # of iterations =  2.8

     total cpu time spent up to now is      671.8 secs

     total energy              =    -234.56374191 Ry
     Harris-Foulkes estimate   =    -234.56374191 Ry
     estimated scf accuracy    <          1.4E-11 Ry

     iteration # 14     ecut=    40.00 Ry     beta=0.60
     Davidson diagonalization with overlap
     ethr =  1.00E-13,  avg # of iterations =  3.8

     total cpu time spent up to now is      678.2 secs

     total energy              =    -234.56374191 Ry
     Harris-Foulkes estimate   =    -234.56374191 Ry
     estimated scf accuracy    <          1.7E-11 Ry

     iteration # 15     ecut=    40.00 Ry     beta=0.60
     Davidson diagonalization with overlap
     ethr =  1.00E-13,  avg # of iterations =  1.0

     total cpu time spent up to now is      682.4 secs

     total energy              =    -234.56374191 Ry
     Harris-Foulkes estimate   =    -234.56374191 Ry
     estimated scf accuracy    <          1.9E-12 Ry

     iteration # 16     ecut=    40.00 Ry     beta=0.60
     Davidson diagonalization with overlap
     ethr =  1.00E-13,  avg # of iterations =  1.7

     total cpu time spent up to now is      686.8 secs

     End of self-consistent calculation

     Number of k-points >= 100: set verbosity='high' to print the bands.

     the Fermi energy is    15.6586 ev

!    total energy              =    -234.56374191 Ry
     Harris-Foulkes estimate   =    -234.56374191 Ry
     estimated scf accuracy    <          1.5E-13 Ry

     The total energy is the sum of the following terms:

     one-electron contribution =     -58.80692368 Ry
     hartree contribution      =      39.76624002 Ry
     xc contribution           =     -32.93879895 Ry
     ewald contribution        =    -182.58351962 Ry
     smearing contrib. (-TS)   =      -0.00073968 Ry

     convergence has been achieved in  16 iterations

     Forces acting on atoms (Ry/au):

     atom    1 type  2   force =     0.00000000   -0.00000000    0.00000000
     atom    2 type  1   force =     0.00000000   -0.00000000    0.00000000

     Total force =     0.000000     Total SCF correction =     0.000000


     entering subroutine stress ...

          total   stress  (Ry/bohr**3)                   (kbar)     P=   -2.36
  -0.00004078   0.00000000  -0.00000000         -6.00      0.00     -0.00
   0.00000000  -0.00004078  -0.00000000          0.00     -6.00     -0.00
   0.00000000   0.00000000   0.00003349          0.00      0.00      4.93


     number of scf cycles    =   5
     number of bfgs steps    =   4

     enthalpy old            =    -234.5636705249 Ry
     enthalpy new            =    -234.5637419064 Ry

     CASE: enthalpy_new < enthalpy_old

     new trust radius        =       0.0171917314 bohr
     new conv_thr            =            1.0E-12 Ry

     new unit-cell volume =    241.95205 a.u.^3 (    35.85359 Ang^3 )

CELL_PARAMETERS (alat=  1.88972599)
   1.455831725  -2.521574705  -0.000000000
  -2.911663450  -0.000000000   0.000000000
  -0.000000000  -0.000000000  -4.883371820

ATOMIC_POSITIONS (angstrom)
Ti      -1.455831725  -2.521574705  -4.883371820
Nb       0.000001456  -1.681050644  -2.441685910


     NEW-OLD atomic charge density approx. for the potential

     Check: negative/imaginary core charge=   -0.000001    0.000000
     extrapolated charge   24.99747, renormalised to   25.00000

     total cpu time spent up to now is      691.3 secs

     per-process dynamical memory:   123.4 Mb

     Self-consistent Calculation

     iteration #  1     ecut=    40.00 Ry     beta=0.60
     Davidson diagonalization with overlap
     ethr =  1.00E-06,  avg # of iterations =  4.2

     total cpu time spent up to now is      700.9 secs

     total energy              =    -234.56367832 Ry
     Harris-Foulkes estimate   =    -234.56805748 Ry
     estimated scf accuracy    <       0.00017587 Ry

     iteration #  2     ecut=    40.00 Ry     beta=0.60
     Davidson diagonalization with overlap
     ethr =  7.03E-07,  avg # of iterations =  4.6

     total cpu time spent up to now is      708.6 secs

     total energy              =    -234.56325245 Ry
     Harris-Foulkes estimate   =    -234.56440437 Ry
     estimated scf accuracy    <       0.00872744 Ry

     iteration #  3     ecut=    40.00 Ry     beta=0.60
     Davidson diagonalization with overlap
     ethr =  7.03E-07,  avg # of iterations =  4.4

     total cpu time spent up to now is      715.7 secs

     total energy              =    -234.56379974 Ry
     Harris-Foulkes estimate   =    -234.56380051 Ry
     estimated scf accuracy    <       0.00000195 Ry

     iteration #  4     ecut=    40.00 Ry     beta=0.60
     Davidson diagonalization with overlap
     ethr =  7.79E-09,  avg # of iterations =  3.2

     total cpu time spent up to now is      722.0 secs

     total energy              =    -234.56380049 Ry
     Harris-Foulkes estimate   =    -234.56380053 Ry
     estimated scf accuracy    <       0.00000022 Ry

     iteration #  5     ecut=    40.00 Ry     beta=0.60
     Davidson diagonalization with overlap
     ethr =  8.91E-10,  avg # of iterations =  2.3

     total cpu time spent up to now is      726.9 secs

     total energy              =    -234.56380052 Ry
     Harris-Foulkes estimate   =    -234.56380052 Ry
     estimated scf accuracy    <       0.00000002 Ry

     iteration #  6     ecut=    40.00 Ry     beta=0.60
     Davidson diagonalization with overlap
     ethr =  8.19E-11,  avg # of iterations =  2.6

     total cpu time spent up to now is      732.3 secs

     total energy              =    -234.56380053 Ry
     Harris-Foulkes estimate   =    -234.56380053 Ry
     estimated scf accuracy    <          6.0E-10 Ry

     iteration #  7     ecut=    40.00 Ry     beta=0.60
     Davidson diagonalization with overlap
     ethr =  2.41E-12,  avg # of iterations =  3.9

     total cpu time spent up to now is      738.6 secs

     total energy              =    -234.56380053 Ry
     Harris-Foulkes estimate   =    -234.56380053 Ry
     estimated scf accuracy    <          6.0E-11 Ry

     iteration #  8     ecut=    40.00 Ry     beta=0.60
     Davidson diagonalization with overlap
     ethr =  2.39E-13,  avg # of iterations =  3.1

     total cpu time spent up to now is      744.6 secs

     total energy              =    -234.56380053 Ry
     Harris-Foulkes estimate   =    -234.56380053 Ry
     estimated scf accuracy    <          3.8E-12 Ry

     iteration #  9     ecut=    40.00 Ry     beta=0.60
     Davidson diagonalization with overlap
     ethr =  1.00E-13,  avg # of iterations =  1.1

     total cpu time spent up to now is      748.8 secs

     End of self-consistent calculation

     Number of k-points >= 100: set verbosity='high' to print the bands.

     the Fermi energy is    15.6566 ev

!    total energy              =    -234.56380053 Ry
     Harris-Foulkes estimate   =    -234.56380053 Ry
     estimated scf accuracy    <          3.0E-14 Ry

     The total energy is the sum of the following terms:

     one-electron contribution =     -58.82162744 Ry
     hartree contribution      =      39.77734559 Ry
     xc contribution           =     -32.94010165 Ry
     ewald contribution        =    -182.57870552 Ry
     smearing contrib. (-TS)   =      -0.00071151 Ry

     convergence has been achieved in   9 iterations

     Forces acting on atoms (Ry/au):

     atom    1 type  2   force =     0.00000000   -0.00000000    0.00000000
     atom    2 type  1   force =    -0.00000000    0.00000000    0.00000000

     Total force =     0.000000     Total SCF correction =     0.000000


     entering subroutine stress ...

          total   stress  (Ry/bohr**3)                   (kbar)     P=   -2.40
  -0.00002045  -0.00000000   0.00000000         -3.01     -0.00      0.00
  -0.00000000  -0.00002045   0.00000000         -0.00     -3.01      0.00
  -0.00000000  -0.00000000  -0.00000796         -0.00     -0.00     -1.17


     number of scf cycles    =   6
     number of bfgs steps    =   5

     enthalpy old            =    -234.5637419064 Ry
     enthalpy new            =    -234.5638005264 Ry

     CASE: enthalpy_new < enthalpy_old

     new trust radius        =       0.0031057796 bohr
     new conv_thr            =            1.0E-12 Ry

     new unit-cell volume =    241.64816 a.u.^3 (    35.80856 Ang^3 )

CELL_PARAMETERS (alat=  1.88972599)
   1.454378318  -2.519057331  -0.000000000
  -2.908756637  -0.000000000   0.000000000
  -0.000000000  -0.000000000  -4.886990985

ATOMIC_POSITIONS (angstrom)
Ti      -1.454378318  -2.519057331  -4.886990985
Nb       0.000001455  -1.679372394  -2.443495492


     NEW-OLD atomic charge density approx. for the potential

     Check: negative/imaginary core charge=   -0.000001    0.000000
     extrapolated charge   24.96982, renormalised to   25.00000

     total cpu time spent up to now is      753.3 secs

     per-process dynamical memory:   123.4 Mb

     Self-consistent Calculation

     iteration #  1     ecut=    40.00 Ry     beta=0.60
     Davidson diagonalization with overlap
     ethr =  1.00E-06,  avg # of iterations =  3.1

     total cpu time spent up to now is      761.0 secs

     total energy              =    -234.56349826 Ry
     Harris-Foulkes estimate   =    -234.61438283 Ry
     estimated scf accuracy    <       0.00028784 Ry

     iteration #  2     ecut=    40.00 Ry     beta=0.60
     Davidson diagonalization with overlap
     ethr =  1.15E-06,  avg # of iterations =  4.9

     total cpu time spent up to now is      770.6 secs

     total energy              =    -234.56316082 Ry
     Harris-Foulkes estimate   =    -234.56466418 Ry
     estimated scf accuracy    <       0.01137790 Ry

     iteration #  3     ecut=    40.00 Ry     beta=0.60
     Davidson diagonalization with overlap
     ethr =  1.15E-06,  avg # of iterations =  4.4

     total cpu time spent up to now is      777.8 secs

     total energy              =    -234.56380680 Ry
     Harris-Foulkes estimate   =    -234.56386020 Ry
     estimated scf accuracy    <       0.00015294 Ry

     iteration #  4     ecut=    40.00 Ry     beta=0.60
     Davidson diagonalization with overlap
     ethr =  6.12E-07,  avg # of iterations =  1.1

     total cpu time spent up to now is      782.0 secs

     total energy              =    -234.56380237 Ry
     Harris-Foulkes estimate   =    -234.56381861 Ry
     estimated scf accuracy    <       0.00010586 Ry

     iteration #  5     ecut=    40.00 Ry     beta=0.60
     Davidson diagonalization with overlap
     ethr =  4.23E-07,  avg # of iterations =  2.0

     total cpu time spent up to now is      786.6 secs

     total energy              =    -234.56380524 Ry
     Harris-Foulkes estimate   =    -234.56380868 Ry
     estimated scf accuracy    <       0.00003075 Ry

     iteration #  6     ecut=    40.00 Ry     beta=0.60
     Davidson diagonalization with overlap
     ethr =  1.23E-07,  avg # of iterations =  1.2

     total cpu time spent up to now is      790.9 secs

     total energy              =    -234.56380354 Ry
     Harris-Foulkes estimate   =    -234.56380608 Ry
     estimated scf accuracy    <       0.00001062 Ry

     iteration #  7     ecut=    40.00 Ry     beta=0.60
     Davidson diagonalization with overlap
     ethr =  4.25E-08,  avg # of iterations =  2.9

     total cpu time spent up to now is      796.1 secs

     total energy              =    -234.56380548 Ry
     Harris-Foulkes estimate   =    -234.56380543 Ry
     estimated scf accuracy    <       0.00000032 Ry

     iteration #  8     ecut=    40.00 Ry     beta=0.60
     Davidson diagonalization with overlap
     ethr =  1.29E-09,  avg # of iterations =  3.2

     total cpu time spent up to now is      801.6 secs

     total energy              =    -234.56380545 Ry
     Harris-Foulkes estimate   =    -234.56380554 Ry
     estimated scf accuracy    <       0.00000076 Ry

     iteration #  9     ecut=    40.00 Ry     beta=0.60
     Davidson diagonalization with overlap
     ethr =  1.29E-09,  avg # of iterations =  1.0

     total cpu time spent up to now is      805.8 secs

     total energy              =    -234.56380538 Ry
     Harris-Foulkes estimate   =    -234.56380546 Ry
     estimated scf accuracy    <       0.00000035 Ry

     iteration # 10     ecut=    40.00 Ry     beta=0.60
     Davidson diagonalization with overlap
     ethr =  1.29E-09,  avg # of iterations =  2.6

     total cpu time spent up to now is      810.5 secs

     total energy              =    -234.56380541 Ry
     Harris-Foulkes estimate   =    -234.56380541 Ry
     estimated scf accuracy    <       0.00000002 Ry

     iteration # 11     ecut=    40.00 Ry     beta=0.60
     Davidson diagonalization with overlap
     ethr =  7.36E-11,  avg # of iterations =  3.7

     total cpu time spent up to now is      816.6 secs

     total energy              =    -234.56380541 Ry
     Harris-Foulkes estimate   =    -234.56380541 Ry
     estimated scf accuracy    <          8.5E-10 Ry

     iteration # 12     ecut=    40.00 Ry     beta=0.60
     Davidson diagonalization with overlap
     ethr =  3.41E-12,  avg # of iterations =  2.9

     total cpu time spent up to now is      821.7 secs

     total energy              =    -234.56380541 Ry
     Harris-Foulkes estimate   =    -234.56380541 Ry
     estimated scf accuracy    <          7.3E-10 Ry

     iteration # 13     ecut=    40.00 Ry     beta=0.60
     Davidson diagonalization with overlap
     ethr =  2.92E-12,  avg # of iterations =  1.6

     total cpu time spent up to now is      826.0 secs

     total energy              =    -234.56380541 Ry
     Harris-Foulkes estimate   =    -234.56380541 Ry
     estimated scf accuracy    <          1.4E-09 Ry

     iteration # 14     ecut=    40.00 Ry     beta=0.60
     Davidson diagonalization with overlap
     ethr =  2.92E-12,  avg # of iterations =  1.5

     total cpu time spent up to now is      830.3 secs

     total energy              =    -234.56380541 Ry
     Harris-Foulkes estimate   =    -234.56380541 Ry
     estimated scf accuracy    <          4.3E-10 Ry

     iteration # 15     ecut=    40.00 Ry     beta=0.60
     Davidson diagonalization with overlap
     ethr =  1.70E-12,  avg # of iterations =  2.5

     total cpu time spent up to now is      835.1 secs

     total energy              =    -234.56380541 Ry
     Harris-Foulkes estimate   =    -234.56380541 Ry
     estimated scf accuracy    <          8.8E-12 Ry

     iteration # 16     ecut=    40.00 Ry     beta=0.60
     Davidson diagonalization with overlap
     ethr =  1.00E-13,  avg # of iterations =  2.9

     total cpu time spent up to now is      840.1 secs

     total energy              =    -234.56380541 Ry
     Harris-Foulkes estimate   =    -234.56380541 Ry
     estimated scf accuracy    <          1.4E-11 Ry

     iteration # 17     ecut=    40.00 Ry     beta=0.60
     Davidson diagonalization with overlap
     ethr =  1.00E-13,  avg # of iterations =  1.2

     total cpu time spent up to now is      844.6 secs

     total energy              =    -234.56380541 Ry
     Harris-Foulkes estimate   =    -234.56380541 Ry
     estimated scf accuracy    <          1.3E-12 Ry

     iteration # 18     ecut=    40.00 Ry     beta=0.60
     Davidson diagonalization with overlap
     ethr =  1.00E-13,  avg # of iterations =  1.0

     total cpu time spent up to now is      849.1 secs

     End of self-consistent calculation

     Number of k-points >= 100: set verbosity='high' to print the bands.

     the Fermi energy is    15.6786 ev

!    total energy              =    -234.56380541 Ry
     Harris-Foulkes estimate   =    -234.56380541 Ry
     estimated scf accuracy    <          5.9E-14 Ry

     The total energy is the sum of the following terms:

     one-electron contribution =     -58.71664109 Ry
     hartree contribution      =      39.74864149 Ry
     xc contribution           =     -32.94273533 Ry
     ewald contribution        =    -182.65236940 Ry
     smearing contrib. (-TS)   =      -0.00070108 Ry

     convergence has been achieved in  18 iterations

     Forces acting on atoms (Ry/au):

     atom    1 type  2   force =     0.00000000   -0.00000000    0.00000000
     atom    2 type  1   force =     0.00000000   -0.00000000    0.00000000

     Total force =     0.000000     Total SCF correction =     0.000000


     entering subroutine stress ...

          total   stress  (Ry/bohr**3)                   (kbar)     P=   -0.66
  -0.00000440   0.00000000  -0.00000000         -0.65      0.00     -0.00
  -0.00000000  -0.00000440  -0.00000000         -0.00     -0.65     -0.00
   0.00000000   0.00000000  -0.00000462          0.00      0.00     -0.68


     number of scf cycles    =   7
     number of bfgs steps    =   6

     enthalpy old            =    -234.5638005264 Ry
     enthalpy new            =    -234.5638054120 Ry

     CASE: enthalpy_new < enthalpy_old

     new trust radius        =       0.0004809130 bohr
     new conv_thr            =            1.0E-12 Ry

     new unit-cell volume =    241.54424 a.u.^3 (    35.79316 Ang^3 )

CELL_PARAMETERS (alat=  1.88972599)
   1.454153350  -2.518667674  -0.000000000
  -2.908306699  -0.000000000   0.000000000
  -0.000000000  -0.000000000  -4.886401121

ATOMIC_POSITIONS (angstrom)
Ti      -1.454153350  -2.518667674  -4.886401121
Nb       0.000001455  -1.679112622  -2.443200561


     NEW-OLD atomic charge density approx. for the potential

     Check: negative/imaginary core charge=   -0.000001    0.000000
     extrapolated charge   24.98968, renormalised to   25.00000

     total cpu time spent up to now is      853.7 secs

     per-process dynamical memory:   123.4 Mb

     Self-consistent Calculation

     iteration #  1     ecut=    40.00 Ry     beta=0.60
     Davidson diagonalization with overlap
     ethr =  1.00E-06,  avg # of iterations =  2.0

     total cpu time spent up to now is      860.1 secs

     total energy              =    -234.56377658 Ry
     Harris-Foulkes estimate   =    -234.58108817 Ry
     estimated scf accuracy    <       0.00002542 Ry

     iteration #  2     ecut=    40.00 Ry     beta=0.60
     Davidson diagonalization with overlap
     ethr =  1.02E-07,  avg # of iterations =  4.4

     total cpu time spent up to now is      868.8 secs

     total energy              =    -234.56375525 Ry
     Harris-Foulkes estimate   =    -234.56387208 Ry
     estimated scf accuracy    <       0.00086536 Ry

     iteration #  3     ecut=    40.00 Ry     beta=0.60
     Davidson diagonalization with overlap
     ethr =  1.02E-07,  avg # of iterations =  3.8

     total cpu time spent up to now is      874.9 secs

     total energy              =    -234.56380537 Ry
     Harris-Foulkes estimate   =    -234.56381184 Ry
     estimated scf accuracy    <       0.00001787 Ry

     iteration #  4     ecut=    40.00 Ry     beta=0.60
     Davidson diagonalization with overlap
     ethr =  7.15E-08,  avg # of iterations =  1.3

     total cpu time spent up to now is      879.4 secs

     total energy              =    -234.56380579 Ry
     Harris-Foulkes estimate   =    -234.56380714 Ry
     estimated scf accuracy    <       0.00001090 Ry

     iteration #  5     ecut=    40.00 Ry     beta=0.60
     Davidson diagonalization with overlap
     ethr =  4.36E-08,  avg # of iterations =  1.9

     total cpu time spent up to now is      883.9 secs

     total energy              =    -234.56380579 Ry
     Harris-Foulkes estimate   =    -234.56380626 Ry
     estimated scf accuracy    <       0.00000495 Ry

     iteration #  6     ecut=    40.00 Ry     beta=0.60
     Davidson diagonalization with overlap
     ethr =  1.98E-08,  avg # of iterations =  1.1

     total cpu time spent up to now is      888.1 secs

     total energy              =    -234.56380549 Ry
     Harris-Foulkes estimate   =    -234.56380590 Ry
     estimated scf accuracy    <       0.00000243 Ry

     iteration #  7     ecut=    40.00 Ry     beta=0.60
     Davidson diagonalization with overlap
     ethr =  9.71E-09,  avg # of iterations =  2.1

     total cpu time spent up to now is      893.3 secs

     total energy              =    -234.56380564 Ry
     Harris-Foulkes estimate   =    -234.56380567 Ry
     estimated scf accuracy    <       0.00000026 Ry

     iteration #  8     ecut=    40.00 Ry     beta=0.60
     Davidson diagonalization with overlap
     ethr =  1.06E-09,  avg # of iterations =  2.3

     total cpu time spent up to now is      898.1 secs

     total energy              =    -234.56380565 Ry
     Harris-Foulkes estimate   =    -234.56380566 Ry
     estimated scf accuracy    <       0.00000005 Ry

     iteration #  9     ecut=    40.00 Ry     beta=0.60
     Davidson diagonalization with overlap
     ethr =  1.98E-10,  avg # of iterations =  3.3

     total cpu time spent up to now is      904.2 secs

     total energy              =    -234.56380566 Ry
     Harris-Foulkes estimate   =    -234.56380566 Ry
     estimated scf accuracy    <          3.5E-09 Ry

     iteration # 10     ecut=    40.00 Ry     beta=0.60
     Davidson diagonalization with overlap
     ethr =  1.41E-11,  avg # of iterations =  3.1

     total cpu time spent up to now is      910.1 secs

     total energy              =    -234.56380566 Ry
     Harris-Foulkes estimate   =    -234.56380566 Ry
     estimated scf accuracy    <          1.3E-10 Ry

     iteration # 11     ecut=    40.00 Ry     beta=0.60
     Davidson diagonalization with overlap
     ethr =  5.00E-13,  avg # of iterations =  3.4

     total cpu time spent up to now is      916.7 secs

     total energy              =    -234.56380566 Ry
     Harris-Foulkes estimate   =    -234.56380566 Ry
     estimated scf accuracy    <          2.4E-10 Ry

     iteration # 12     ecut=    40.00 Ry     beta=0.60
     Davidson diagonalization with overlap
     ethr =  5.00E-13,  avg # of iterations =  1.2

     total cpu time spent up to now is      920.9 secs

[...]
     ethr =  2.13E-13,  avg # of iterations =  1.0

     total cpu time spent up to now is     1049.0 secs

     total energy              =    -234.56380567 Ry
     Harris-Foulkes estimate   =    -234.56380567 Ry
     estimated scf accuracy    <          5.5E-11 Ry

     iteration #  2     ecut=    40.00 Ry     beta=0.60
     Davidson diagonalization with overlap
     ethr =  2.20E-13,  avg # of iterations =  4.0

     total cpu time spent up to now is     1058.3 secs

     total energy              =    -234.56380567 Ry
     Harris-Foulkes estimate   =    -234.56380567 Ry
     estimated scf accuracy    <          2.9E-09 Ry

     iteration #  3     ecut=    40.00 Ry     beta=0.60
     Davidson diagonalization with overlap
     ethr =  2.20E-13,  avg # of iterations =  4.1

     total cpu time spent up to now is     1066.7 secs

     End of self-consistent calculation

     Number of k-points >= 100: set verbosity='high' to print the bands.

     the Fermi energy is    15.6871 ev

!    total energy              =    -234.56380567 Ry
     Harris-Foulkes estimate   =    -234.56380567 Ry
     estimated scf accuracy    <          5.4E-13 Ry

     The total energy is the sum of the following terms:

     one-electron contribution =     -58.67503362 Ry
     hartree contribution      =      39.73659032 Ry
     xc contribution           =     -32.94362216 Ry
     ewald contribution        =    -182.68104117 Ry
     smearing contrib. (-TS)   =      -0.00069905 Ry

     convergence has been achieved in   3 iterations

     Forces acting on atoms (Ry/au):

     atom    1 type  2   force =     0.00000000   -0.00000000    0.00000000
     atom    2 type  1   force =     0.00000000   -0.00000000    0.00000000

     Total force =     0.000000     Total SCF correction =     0.000000


     entering subroutine stress ...

          total   stress  (Ry/bohr**3)                   (kbar)     P=    0.01
   0.00000006   0.00000000  -0.00000000          0.01      0.00     -0.00
  -0.00000000   0.00000006  -0.00000000         -0.00      0.01     -0.00
  -0.00000000  -0.00000000   0.00000003         -0.00     -0.00      0.00


     bfgs converged in  11 scf cycles and   9 bfgs steps
     (criteria: energy <  1.0E-10, force <  1.0E-05, cell <  1.0E-03)

     End of BFGS Geometry Optimization

     Final enthalpy =    -234.5638056666 Ry
Begin final coordinates
     new unit-cell volume =    241.53452 a.u.^3 (    35.79172 Ang^3 )

CELL_PARAMETERS (alat=  1.88972599)
   1.454159472  -2.518678278  -0.000000000
  -2.908318944  -0.000000000   0.000000000
  -0.000000000  -0.000000000  -4.886163231

ATOMIC_POSITIONS (angstrom)
Ti      -1.454159472  -2.518678278  -4.886163231
Nb       0.000001455  -1.679119692  -2.443081615
End final coordinates



     A final scf calculation at the relaxed structure.
     The G-vectors are recalculated for the final unit cell
     Results may differ from those at the preceding step.

   Info: using nr1, nr2, nr3 values from input

   Info: using nr1, nr2, nr3 values from input

     Parallelization info
     --------------------
     sticks:   dense  smooth     PW     G-vecs:    dense   smooth      PW
     Min         211      83     27                 8181     2050     373
     Max         212      85     28                 8184     2053     378
     Sum         847     337    109                32729     8209    1497



     bravais-lattice index     =            0
     lattice parameter (alat)  =       1.8897  a.u.
     unit-cell volume          =     241.5345 (a.u.)^3
     number of atoms/cell      =            2
     number of atomic types    =            2
     number of electrons       =        25.00
     number of Kohn-Sham states=           17
     kinetic-energy cutoff     =      40.0000  Ry
     charge density cutoff     =     400.0000  Ry
     convergence threshold     =      1.0E-12
     mixing beta               =       0.6000
     number of iterations used =            8  plain     mixing
     Exchange-correlation      = SLA  PW   PBE  PBE ( 1  4  3  4 0 0)

     celldm(1)=   1.889726  celldm(2)=   0.000000  celldm(3)=   0.000000
     celldm(4)=   0.000000  celldm(5)=   0.000000  celldm(6)=   0.000000

     crystal axes: (cart. coord. in units of alat)
               a(1) = (   1.454159  -2.518678  -0.000000 )  
               a(2) = (  -2.908319  -0.000000   0.000000 )  
               a(3) = (  -0.000000  -0.000000  -4.886163 )  

     reciprocal axes: (cart. coord. in units 2 pi/alat)
               b(1) = (  0.000000 -0.397034  0.000000 )  
               b(2) = ( -0.343841 -0.198517  0.000000 )  
               b(3) = ( -0.000000 -0.000000 -0.204660 )  


     PseudoPot. # 1 for Nb read from file:
     ./Nb.pbe-nsp-van.UPF
     MD5 check sum: 0a22fc7fb0ba19a08ca5db297a5d2854
     Pseudo is Ultrasoft + core correction, Zval = 13.0
     Generated by new atomic code, or converted to UPF format
     Using radial grid of  887 points,  6 beta functions with: 
                l(1) =   0
                l(2) =   0
                l(3) =   1
                l(4) =   1
                l(5) =   2
                l(6) =   2
     Q(r) pseudized with  6 coefficients,  rinner =    1.000   1.000   1.000
                                                       1.000   1.000

     PseudoPot. # 2 for Ti read from file:
     ./Ti.pbe-sp-van_ak.UPF
     MD5 check sum: f98fea3e8887528921fefa5636a534ca
     Pseudo is Ultrasoft, Zval = 12.0
     Generated by new atomic code, or converted to UPF format
     Using radial grid of  851 points,  6 beta functions with: 
                l(1) =   0
                l(2) =   0
                l(3) =   1
                l(4) =   1
                l(5) =   2
                l(6) =   2
     Q(r) pseudized with  8 coefficients,  rinner =    1.000   1.000   1.000
                                                       1.000   1.000

     atomic species   valence    mass     pseudopotential
        Nb            13.00    92.90638     Nb( 1.00)
        Ti            12.00    47.86700     Ti( 1.00)

     12 Sym. Ops. (no inversion) found



   Cartesian axes

     site n.     atom                  positions (alat units)
         1           Ti  tau(   1) = (  -1.4541596  -2.5186785  -4.8861636  )
         2           Nb  tau(   2) = (   0.0000015  -1.6791198  -2.4430818  )

     number of k points=   280  Marzari-Vanderbilt smearing, width (Ry)=  0.0200

     Number of k-points >= 100: set verbosity='high' to print them.

     Dense  grid:    32729 G-vectors     FFT dimensions: (  40,  40,  60)

     Smooth grid:     8209 G-vectors     FFT dimensions: (  24,  24,  40)

     Estimated max dynamical RAM per process >      24.64Mb

     Estimated total allocated dynamical RAM >      98.55Mb

     Initial potential from superposition of free atoms

     starting charge   23.99722, renormalised to   25.00000
     Starting wfc are   23 randomized atomic wfcs

     total cpu time spent up to now is     1073.3 secs

     per-process dynamical memory:   121.4 Mb

     Self-consistent Calculation

     iteration #  1     ecut=    40.00 Ry     beta=0.60
     Davidson diagonalization with overlap
     c_bands:  1 eigenvalues not converged
     c_bands:  1 eigenvalues not converged
     ethr =  1.00E-06,  avg # of iterations = 10.3

     total cpu time spent up to now is     1089.5 secs

     total energy              =    -228.31283433 Ry
     Harris-Foulkes estimate   =    -235.65817699 Ry
     estimated scf accuracy    <       9.23198870 Ry

     iteration #  2     ecut=    40.00 Ry     beta=0.60
     Davidson diagonalization with overlap
     ethr =  1.00E-02,  avg # of iterations =  5.3

     total cpu time spent up to now is     1101.7 secs

     total energy              =    -231.54074044 Ry
     Harris-Foulkes estimate   =    -244.87896467 Ry
     estimated scf accuracy    <      39.84921524 Ry

     iteration #  3     ecut=    40.00 Ry     beta=0.60
     Davidson diagonalization with overlap
     ethr =  1.00E-02,  avg # of iterations =  4.1

     total cpu time spent up to now is     1112.4 secs

     total energy              =    -234.96650074 Ry
     Harris-Foulkes estimate   =    -235.43504558 Ry
     estimated scf accuracy    <       5.38770093 Ry

     iteration #  4     ecut=    40.00 Ry     beta=0.60
     Davidson diagonalization with overlap
     ethr =  1.00E-02,  avg # of iterations =  1.1

     total cpu time spent up to now is     1118.0 secs

     total energy              =    -234.68678305 Ry
     Harris-Foulkes estimate   =    -234.99524653 Ry
     estimated scf accuracy    <       3.73590558 Ry

     iteration #  5     ecut=    40.00 Ry     beta=0.60
     Davidson diagonalization with overlap
     ethr =  1.00E-02,  avg # of iterations =  1.1

     total cpu time spent up to now is     1122.0 secs

     total energy              =    -234.52824198 Ry
     Harris-Foulkes estimate   =    -234.72413894 Ry
     estimated scf accuracy    <       1.96179502 Ry

     iteration #  6     ecut=    40.00 Ry     beta=0.60
     Davidson diagonalization with overlap
     ethr =  7.85E-03,  avg # of iterations =  1.2

     total cpu time spent up to now is     1126.2 secs

     total energy              =    -234.43409841 Ry
     Harris-Foulkes estimate   =    -234.57325753 Ry
     estimated scf accuracy    <       0.74588586 Ry

     iteration #  7     ecut=    40.00 Ry     beta=0.60
     Davidson diagonalization with overlap
     ethr =  2.98E-03,  avg # of iterations =  4.1

     total cpu time spent up to now is     1137.2 secs

     total energy              =    -234.58334740 Ry
     Harris-Foulkes estimate   =    -234.58577737 Ry
     estimated scf accuracy    <       0.35848047 Ry

     iteration #  8     ecut=    40.00 Ry     beta=0.60
     Davidson diagonalization with overlap
     ethr =  1.43E-03,  avg # of iterations =  1.8

     total cpu time spent up to now is     1142.4 secs

     total energy              =    -234.54041159 Ry
     Harris-Foulkes estimate   =    -234.58452772 Ry
     estimated scf accuracy    <       0.33264292 Ry

     iteration #  9     ecut=    40.00 Ry     beta=0.60
     Davidson diagonalization with overlap
     ethr =  1.33E-03,  avg # of iterations =  1.0

     total cpu time spent up to now is     1146.8 secs

     total energy              =    -234.56260114 Ry
     Harris-Foulkes estimate   =    -234.56197723 Ry
     estimated scf accuracy    <       0.00669830 Ry

     iteration # 10     ecut=    40.00 Ry     beta=0.60
     Davidson diagonalization with overlap
     ethr =  2.68E-05,  avg # of iterations =  4.3

     total cpu time spent up to now is     1153.4 secs

     total energy              =    -234.57135061 Ry
     Harris-Foulkes estimate   =    -234.59031871 Ry
     estimated scf accuracy    <       0.45927645 Ry

     iteration # 11     ecut=    40.00 Ry     beta=0.60
     Davidson diagonalization with overlap
     ethr =  2.68E-05,  avg # of iterations =  2.8

     total cpu time spent up to now is     1159.3 secs

     total energy              =    -234.54729780 Ry
     Harris-Foulkes estimate   =    -234.57460367 Ry
     estimated scf accuracy    <       0.19494109 Ry

     iteration # 12     ecut=    40.00 Ry     beta=0.60
     Davidson diagonalization with overlap
     ethr =  2.68E-05,  avg # of iterations =  4.7

     total cpu time spent up to now is     1167.1 secs

     total energy              =    -234.56459269 Ry
     Harris-Foulkes estimate   =    -234.56390215 Ry
     estimated scf accuracy    <       0.00672828 Ry

     iteration # 13     ecut=    40.00 Ry     beta=0.60
     Davidson diagonalization with overlap
     ethr =  2.68E-05,  avg # of iterations =  1.0

     total cpu time spent up to now is     1171.3 secs

     total energy              =    -234.56463060 Ry
     Harris-Foulkes estimate   =    -234.56480045 Ry
     estimated scf accuracy    <       0.01632778 Ry

     iteration # 14     ecut=    40.00 Ry     beta=0.60
     Davidson diagonalization with overlap
     ethr =  2.68E-05,  avg # of iterations =  1.0

     total cpu time spent up to now is     1176.9 secs

     total energy              =    -234.56101092 Ry
     Harris-Foulkes estimate   =    -234.56466087 Ry
     estimated scf accuracy    <       0.01798675 Ry

     iteration # 15     ecut=    40.00 Ry     beta=0.60
     Davidson diagonalization with overlap
     ethr =  2.68E-05,  avg # of iterations =  2.9

     total cpu time spent up to now is     1184.2 secs

     total energy              =    -234.56254003 Ry
     Harris-Foulkes estimate   =    -234.56254024 Ry
     estimated scf accuracy    <       0.00001137 Ry

     iteration # 16     ecut=    40.00 Ry     beta=0.60
     Davidson diagonalization with overlap
     ethr =  4.55E-08,  avg # of iterations =  5.0

     total cpu time spent up to now is     1193.8 secs

     total energy              =    -234.56261564 Ry
     Harris-Foulkes estimate   =    -234.56263117 Ry
     estimated scf accuracy    <       0.00023635 Ry

     iteration # 17     ecut=    40.00 Ry     beta=0.60
     Davidson diagonalization with overlap
     ethr =  4.55E-08,  avg # of iterations =  3.0

     total cpu time spent up to now is     1198.7 secs

     total energy              =    -234.56260683 Ry
     Harris-Foulkes estimate   =    -234.56261813 Ry
     estimated scf accuracy    <       0.00009405 Ry

     iteration # 18     ecut=    40.00 Ry     beta=0.60
     Davidson diagonalization with overlap
     ethr =  4.55E-08,  avg # of iterations =  3.3

     total cpu time spent up to now is     1203.9 secs

     total energy              =    -234.56261065 Ry
     Harris-Foulkes estimate   =    -234.56261126 Ry
     estimated scf accuracy    <       0.00000358 Ry

     iteration # 19     ecut=    40.00 Ry     beta=0.60
     Davidson diagonalization with overlap
     ethr =  1.43E-08,  avg # of iterations =  1.1

     total cpu time spent up to now is     1208.0 secs

     total energy              =    -234.56261096 Ry
     Harris-Foulkes estimate   =    -234.56261098 Ry
     estimated scf accuracy    <       0.00000003 Ry

     iteration # 20     ecut=    40.00 Ry     beta=0.60
     Davidson diagonalization with overlap
     ethr =  1.33E-10,  avg # of iterations =  4.4

     total cpu time spent up to now is     1215.2 secs

     total energy              =    -234.56261103 Ry
     Harris-Foulkes estimate   =    -234.56261105 Ry
     estimated scf accuracy    <       0.00000008 Ry

     iteration # 21     ecut=    40.00 Ry     beta=0.60
     Davidson diagonalization with overlap
     ethr =  1.33E-10,  avg # of iterations =  3.1

     total cpu time spent up to now is     1220.0 secs

     total energy              =    -234.56261104 Ry
     Harris-Foulkes estimate   =    -234.56261104 Ry
     estimated scf accuracy    <          1.1E-09 Ry

     iteration # 22     ecut=    40.00 Ry     beta=0.60
     Davidson diagonalization with overlap
     ethr =  4.21E-12,  avg # of iterations =  3.7

     total cpu time spent up to now is     1226.4 secs

     total energy              =    -234.56261104 Ry
     Harris-Foulkes estimate   =    -234.56261104 Ry
     estimated scf accuracy    <          1.6E-10 Ry

     iteration # 23     ecut=    40.00 Ry     beta=0.60
     Davidson diagonalization with overlap
     ethr =  6.43E-13,  avg # of iterations =  2.7

     total cpu time spent up to now is     1231.0 secs

     total energy              =    -234.56261104 Ry
     Harris-Foulkes estimate   =    -234.56261104 Ry
     estimated scf accuracy    <          2.9E-11 Ry

     iteration # 24     ecut=    40.00 Ry     beta=0.60
     Davidson diagonalization with overlap
     ethr =  1.16E-13,  avg # of iterations =  2.4

     total cpu time spent up to now is     1235.5 secs

     total energy              =    -234.56261104 Ry
     Harris-Foulkes estimate   =    -234.56261104 Ry
     estimated scf accuracy    <          5.3E-12 Ry

     iteration # 25     ecut=    40.00 Ry     beta=0.60
     Davidson diagonalization with overlap
     ethr =  1.00E-13,  avg # of iterations =  1.0

     total cpu time spent up to now is     1239.5 secs

     End of self-consistent calculation

     Number of k-points >= 100: set verbosity='high' to print the bands.

     the Fermi energy is    15.6880 ev

!    total energy              =    -234.56261104 Ry
     Harris-Foulkes estimate   =    -234.56261104 Ry
     estimated scf accuracy    <          6.6E-13 Ry

     The total energy is the sum of the following terms:

     one-electron contribution =     -58.67271855 Ry
     hartree contribution      =      39.73452178 Ry
     xc contribution           =     -32.94267654 Ry
     ewald contribution        =    -182.68104117 Ry
     smearing contrib. (-TS)   =      -0.00069655 Ry

     convergence has been achieved in  25 iterations

     Forces acting on atoms (Ry/au):

     atom    1 type  2   force =     0.00000000   -0.00000000    0.00000000
     atom    2 type  1   force =     0.00000000   -0.00000000    0.00000000

     Total force =     0.000000     Total SCF correction =     0.000000


     entering subroutine stress ...

          total   stress  (Ry/bohr**3)                   (kbar)     P=   -2.85
  -0.00002156  -0.00000000   0.00000000         -3.17     -0.00      0.00
  -0.00000000  -0.00002156   0.00000000         -0.00     -3.17      0.00
   0.00000000   0.00000000  -0.00001497          0.00      0.00     -2.20


     init_run     :      5.37s CPU      5.92s WALL (       2 calls)
     electrons    :   1112.26s CPU   1183.70s WALL (      12 calls)
     update_pot   :      9.22s CPU      9.40s WALL (      10 calls)
     forces       :     12.12s CPU     12.38s WALL (      12 calls)
     stress       :     28.39s CPU     28.97s WALL (      12 calls)

     Called by init_run:
     wfcinit      :      3.69s CPU      4.00s WALL (       2 calls)
     potinit      :      0.39s CPU      0.40s WALL (       2 calls)

     Called by electrons:
     c_bands      :    946.40s CPU   1006.04s WALL (     211 calls)
     sum_band     :    141.58s CPU    152.05s WALL (     211 calls)
     v_of_rho     :      4.61s CPU      4.76s WALL (     220 calls)
     newd         :     19.06s CPU     19.95s WALL (     220 calls)
     mix_rho      :      1.37s CPU      1.67s WALL (     211 calls)

     Called by c_bands:
     init_us_2    :     19.24s CPU     20.43s WALL (  125440 calls)
     cegterg      :    904.90s CPU    962.57s WALL (   59080 calls)

     Called by sum_band:
     sum_band:bec :      1.48s CPU      1.63s WALL (   59080 calls)
     addusdens    :     20.92s CPU     21.70s WALL (     211 calls)

     Called by *egterg:
     h_psi        :    555.79s CPU    591.82s WALL (  215450 calls)
     s_psi        :     41.07s CPU     44.23s WALL (  215450 calls)
     g_psi        :      3.13s CPU      3.36s WALL (  155810 calls)
     cdiaghg      :    127.57s CPU    134.76s WALL (  211250 calls)

     Called by h_psi:
     h_psi:pot    :    551.19s CPU    586.90s WALL (  215450 calls)
     h_psi:calbec :     50.04s CPU     53.93s WALL (  215450 calls)
     vloc_psi     :    459.03s CPU    487.58s WALL (  215450 calls)
     add_vuspsi   :     41.42s CPU     44.69s WALL (  215450 calls)

     General routines
     calbec       :     72.70s CPU     78.29s WALL (  291330 calls)
     fft          :      3.68s CPU      3.84s WALL (    3794 calls)
     ffts         :      0.07s CPU      0.08s WALL (     431 calls)
     fftw         :    466.24s CPU    496.84s WALL ( 5973878 calls)
     interpolate  :      0.53s CPU      0.56s WALL (     431 calls)

     Parallel routines
     fft_scatter  :    148.37s CPU    159.25s WALL ( 5978103 calls)

     PWSCF        : 19m28.65s CPU    20m41.85s WALL


   This run was terminated on:  16:55:38  25Apr2018            

=------------------------------------------------------------------------------=
   JOB DONE.
=------------------------------------------------------------------------------=
