
     Program PWSCF v.6.3MaX starts on  5Feb2020 at 16:56:16 

     This program is part of the open-source Quantum ESPRESSO suite
     for quantum simulation of materials; please cite
         "P. Giannozzi et al., J. Phys.:Condens. Matter 21 395502 (2009);
         "P. Giannozzi et al., J. Phys.:Condens. Matter 29 465901 (2017);
          URL http://www.quantum-espresso.org", 
     in publications or presentations arising from this work. More details at
     http://www.quantum-espresso.org/quote

     Parallel version (MPI), running on     4 processors

     MPI processes distributed on     1 nodes
     R & G space division:  proc/nbgrp/npool/nimage =       4
     Waiting for input...
     Reading input from standard input

     Current dimensions of program PWSCF are:
     Max number of different atomic species (ntypx) = 10
     Max number of k-points (npk) =  40000
     Max angular momentum in pseudopotentials (lmaxx) =  3
     Message from routine iosys:
     minimal I/O required, wf_collect reset to FALSE

     Subspace diagonalization in iterative solution of the eigenvalue problem:
     a serial algorithm will be used

 
     Parallelization info
     --------------------
     sticks:   dense  smooth     PW     G-vecs:    dense   smooth      PW
     Min         933     372    112                48481    12255    2009
     Max         934     373    113                48484    12257    2012
     Sum        3735    1489    451               193933    49025    8043
 


     bravais-lattice index     =            0
     lattice parameter (alat)  =       1.8897  a.u.
     unit-cell volume          =    1026.6786 (a.u.)^3
     number of atoms/cell      =            7
     number of atomic types    =            2
     number of electrons       =        88.00
     number of Kohn-Sham states=           53
     kinetic-energy cutoff     =      50.0000  Ry
     charge density cutoff     =     500.0000  Ry
     convergence threshold     =      1.0E-10
     mixing beta               =       0.6000
     number of iterations used =            8  plain     mixing
     Exchange-correlation      = SLA PW PBE PBE ( 1  4  3  4 0 0)
     nstep                     =           50


     celldm(1)=   1.889726  celldm(2)=   0.000000  celldm(3)=   0.000000
     celldm(4)=   0.000000  celldm(5)=   0.000000  celldm(6)=   0.000000

     crystal axes: (cart. coord. in units of alat)
               a(1) = (   5.274095  -1.758031  -1.758031 )  
               a(2) = (   1.758031  -5.274095  -1.758031 )  
               a(3) = (  -1.758031   1.758031  -5.274095 )  

     reciprocal axes: (cart. coord. in units 2 pi/alat)
               b(1) = (  0.203149  0.081260 -0.040630 )  
               b(2) = ( -0.081260 -0.203149 -0.040630 )  
               b(3) = ( -0.040630  0.040630 -0.162519 )  


     PseudoPot. # 1 for Nb read from file:
     ./Nb.pbe-nsp-van.UPF
     MD5 check sum: 0a22fc7fb0ba19a08ca5db297a5d2854
     Pseudo is Ultrasoft + core correction, Zval = 13.0
     Generated by new atomic code, or converted to UPF format
     Using radial grid of  887 points,  6 beta functions with: 
                l(1) =   0
                l(2) =   0
                l(3) =   1
                l(4) =   1
                l(5) =   2
                l(6) =   2
     Q(r) pseudized with  6 coefficients,  rinner =    1.000   1.000   1.000
                                                       1.000   1.000

     PseudoPot. # 2 for Ti read from file:
     ./Ti.pbe-sp-van_ak.UPF
     MD5 check sum: f98fea3e8887528921fefa5636a534ca
     Pseudo is Ultrasoft, Zval = 12.0
     Generated by new atomic code, or converted to UPF format
     Using radial grid of  851 points,  6 beta functions with: 
                l(1) =   0
                l(2) =   0
                l(3) =   1
                l(4) =   1
                l(5) =   2
                l(6) =   2
     Q(r) pseudized with  8 coefficients,  rinner =    1.000   1.000   1.000
                                                       1.000   1.000

     atomic species   valence    mass     pseudopotential
        Nb            13.00    92.90638     Nb( 1.00)
        Ti            12.00    47.86700     Ti( 1.00)

      2 Sym. Ops. (no inversion) found



   Cartesian axes

     site n.     atom                  positions (alat units)
         1           Ti  tau(   1) = (   0.0000000   0.0000000  -3.5160633  )
         2           Ti  tau(   2) = (   5.2740949  -5.2740949  -5.2740949  )
         3           Nb  tau(   3) = (   3.5160633  -3.5160633  -3.5160633  )
         4           Ti  tau(   4) = (   1.7580316  -1.7580316  -1.7580316  )
         5           Nb  tau(   5) = (   5.2740949  -5.2740949  -8.7901582  )
         6           Nb  tau(   6) = (   3.5160633  -3.5160633  -7.0321265  )
         7           Nb  tau(   7) = (   1.7580316  -1.7580316  -5.2740949  )

     number of k points=   366  Marzari-Vanderbilt smearing, width (Ry)=  0.0200

     Number of k-points >= 100: set verbosity='high' to print them.

     Dense  grid:   193933 G-vectors     FFT dimensions: (  80,  80,  80)

     Smooth grid:    49025 G-vectors     FFT dimensions: (  50,  50,  50)

     Estimated max dynamical RAM per process >     642.02 MB

     Estimated total dynamical RAM >       2.51 GB

     Initial potential from superposition of free atoms

     starting charge   84.98893, renormalised to   88.00000
     Starting wfcs are   82 randomized atomic wfcs

     total cpu time spent up to now is       39.9 secs

     Self-consistent Calculation

     iteration #  1     ecut=    50.00 Ry     beta= 0.60
     Davidson diagonalization with overlap
     ethr =  1.00E-02,  avg # of iterations =  3.0

     total cpu time spent up to now is      125.2 secs

     total energy              =    -793.52591305 Ry
     Harris-Foulkes estimate   =    -825.30734629 Ry
     estimated scf accuracy    <      39.91113987 Ry

     iteration #  2     ecut=    50.00 Ry     beta= 0.60
     Davidson diagonalization with overlap
     ethr =  1.00E-02,  avg # of iterations =  6.5

     total cpu time spent up to now is      285.1 secs

     total energy              =    -793.09004294 Ry
     Harris-Foulkes estimate   =    -866.71844242 Ry
     estimated scf accuracy    <     246.48739023 Ry

     iteration #  3     ecut=    50.00 Ry     beta= 0.60
     Davidson diagonalization with overlap
     ethr =  1.00E-02,  avg # of iterations =  4.2

     total cpu time spent up to now is      399.8 secs

     total energy              =    -822.94805818 Ry
     Harris-Foulkes estimate   =    -824.99858528 Ry
     estimated scf accuracy    <      15.94324592 Ry

     iteration #  4     ecut=    50.00 Ry     beta= 0.60
     Davidson diagonalization with overlap
     ethr =  1.00E-02,  avg # of iterations =  1.0

     total cpu time spent up to now is      464.1 secs

     total energy              =    -822.74942803 Ry
     Harris-Foulkes estimate   =    -823.36477851 Ry
     estimated scf accuracy    <      12.91842609 Ry

     iteration #  5     ecut=    50.00 Ry     beta= 0.60
     Davidson diagonalization with overlap
     ethr =  1.00E-02,  avg # of iterations =  1.0

     total cpu time spent up to now is      528.4 secs

     total energy              =    -822.53304669 Ry
     Harris-Foulkes estimate   =    -822.89315673 Ry
     estimated scf accuracy    <       9.69284348 Ry

     iteration #  6     ecut=    50.00 Ry     beta= 0.60
     Davidson diagonalization with overlap
     ethr =  1.00E-02,  avg # of iterations =  1.0

     total cpu time spent up to now is      592.6 secs

     total energy              =    -822.14330664 Ry
     Harris-Foulkes estimate   =    -822.57040755 Ry
     estimated scf accuracy    <       8.41687851 Ry

     iteration #  7     ecut=    50.00 Ry     beta= 0.60
     Davidson diagonalization with overlap
     ethr =  9.56E-03,  avg # of iterations =  1.0

     total cpu time spent up to now is      656.9 secs

     total energy              =    -820.93129219 Ry
     Harris-Foulkes estimate   =    -822.19997390 Ry
     estimated scf accuracy    <       6.93921360 Ry

     iteration #  8     ecut=    50.00 Ry     beta= 0.60
     Davidson diagonalization with overlap
     ethr =  7.89E-03,  avg # of iterations =  3.4

     total cpu time spent up to now is      730.3 secs

     total energy              =    -820.80928715 Ry
     Harris-Foulkes estimate   =    -821.24338707 Ry
     estimated scf accuracy    <       1.58307304 Ry

     iteration #  9     ecut=    50.00 Ry     beta= 0.60
     Davidson diagonalization with overlap
     ethr =  1.80E-03,  avg # of iterations =  5.0

     total cpu time spent up to now is      848.6 secs

     total energy              =    -822.35708228 Ry
     Harris-Foulkes estimate   =    -822.33453357 Ry
     estimated scf accuracy    <      16.95439344 Ry

     iteration # 10     ecut=    50.00 Ry     beta= 0.60
     Davidson diagonalization with overlap
     ethr =  1.80E-03,  avg # of iterations =  1.0

     total cpu time spent up to now is      912.0 secs

     total energy              =    -821.12605168 Ry
     Harris-Foulkes estimate   =    -822.38828171 Ry
     estimated scf accuracy    <      17.03360325 Ry

     iteration # 11     ecut=    50.00 Ry     beta= 0.60
     Davidson diagonalization with overlap
     ethr =  1.80E-03,  avg # of iterations =  3.9

     total cpu time spent up to now is      996.7 secs

     total energy              =    -821.64159576 Ry
     Harris-Foulkes estimate   =    -821.60203302 Ry
     estimated scf accuracy    <       2.52780466 Ry

     iteration # 12     ecut=    50.00 Ry     beta= 0.60
     Davidson diagonalization with overlap
     ethr =  1.80E-03,  avg # of iterations =  1.0

     total cpu time spent up to now is     1059.9 secs

     total energy              =    -821.33477851 Ry
     Harris-Foulkes estimate   =    -821.66049189 Ry
     estimated scf accuracy    <       3.39369620 Ry

     iteration # 13     ecut=    50.00 Ry     beta= 0.60
     Davidson diagonalization with overlap
     ethr =  1.80E-03,  avg # of iterations =  1.1

     total cpu time spent up to now is     1123.0 secs

     total energy              =    -821.48934204 Ry
     Harris-Foulkes estimate   =    -821.50341131 Ry
     estimated scf accuracy    <       0.24172759 Ry

     iteration # 14     ecut=    50.00 Ry     beta= 0.60
     Davidson diagonalization with overlap
     ethr =  2.75E-04,  avg # of iterations =  6.2

     total cpu time spent up to now is     1232.8 secs

     total energy              =    -821.51943595 Ry
     Harris-Foulkes estimate   =    -821.52375272 Ry
     estimated scf accuracy    <       0.12012599 Ry

     iteration # 15     ecut=    50.00 Ry     beta= 0.60
     Davidson diagonalization with overlap
     ethr =  1.37E-04,  avg # of iterations =  1.1

     total cpu time spent up to now is     1295.8 secs

     total energy              =    -821.49759062 Ry
     Harris-Foulkes estimate   =    -821.52599305 Ry
     estimated scf accuracy    <       0.13951977 Ry

     iteration # 16     ecut=    50.00 Ry     beta= 0.60
     Davidson diagonalization with overlap
     ethr =  1.37E-04,  avg # of iterations =  3.8

     total cpu time spent up to now is     1377.0 secs

     total energy              =    -821.51189915 Ry
     Harris-Foulkes estimate   =    -821.51700066 Ry
     estimated scf accuracy    <       0.04459373 Ry

     iteration # 17     ecut=    50.00 Ry     beta= 0.60
     Davidson diagonalization with overlap
     ethr =  5.07E-05,  avg # of iterations =  2.0

     total cpu time spent up to now is     1444.0 secs

     total energy              =    -821.51361824 Ry
     Harris-Foulkes estimate   =    -821.51458187 Ry
     estimated scf accuracy    <       0.00970301 Ry

     iteration # 18     ecut=    50.00 Ry     beta= 0.60
     Davidson diagonalization with overlap
     ethr =  1.10E-05,  avg # of iterations =  6.7

     total cpu time spent up to now is     1536.7 secs

     total energy              =    -821.51426949 Ry
     Harris-Foulkes estimate   =    -821.51447947 Ry
     estimated scf accuracy    <       0.00227532 Ry

     iteration # 19     ecut=    50.00 Ry     beta= 0.60
     Davidson diagonalization with overlap
     c_bands:  1 eigenvalues not converged
     c_bands:  1 eigenvalues not converged
     c_bands:  1 eigenvalues not converged
     c_bands:  1 eigenvalues not converged
     c_bands:  1 eigenvalues not converged
     ethr =  2.59E-06,  avg # of iterations =  8.8

     total cpu time spent up to now is     1644.7 secs

     total energy              =    -821.51433745 Ry
     Harris-Foulkes estimate   =    -821.51449910 Ry
     estimated scf accuracy    <       0.00079273 Ry

     iteration # 20     ecut=    50.00 Ry     beta= 0.60
     Davidson diagonalization with overlap
     c_bands:  1 eigenvalues not converged
     ethr =  9.01E-07,  avg # of iterations =  3.5

     total cpu time spent up to now is     1730.3 secs

     total energy              =    -821.51437347 Ry
     Harris-Foulkes estimate   =    -821.51447163 Ry
     estimated scf accuracy    <       0.00053623 Ry

     iteration # 21     ecut=    50.00 Ry     beta= 0.60
     Davidson diagonalization with overlap
     ethr =  6.09E-07,  avg # of iterations =  3.8

     total cpu time spent up to now is     1811.0 secs

     total energy              =    -821.51438041 Ry
     Harris-Foulkes estimate   =    -821.51448357 Ry
     estimated scf accuracy    <       0.00092406 Ry

     iteration # 22     ecut=    50.00 Ry     beta= 0.60
     Davidson diagonalization with overlap
     ethr =  6.09E-07,  avg # of iterations =  1.0

     total cpu time spent up to now is     1873.9 secs

     total energy              =    -821.51442350 Ry
     Harris-Foulkes estimate   =    -821.51442878 Ry
     estimated scf accuracy    <       0.00002712 Ry

     iteration # 23     ecut=    50.00 Ry     beta= 0.60
     Davidson diagonalization with overlap
     ethr =  3.08E-08,  avg # of iterations =  5.3

     total cpu time spent up to now is     1979.4 secs

     total energy              =    -821.51443742 Ry
     Harris-Foulkes estimate   =    -821.51444258 Ry
     estimated scf accuracy    <       0.00004872 Ry

     iteration # 24     ecut=    50.00 Ry     beta= 0.60
     Davidson diagonalization with overlap
     ethr =  3.08E-08,  avg # of iterations =  1.3

     total cpu time spent up to now is     2042.7 secs

     total energy              =    -821.51443719 Ry
     Harris-Foulkes estimate   =    -821.51443978 Ry
     estimated scf accuracy    <       0.00002248 Ry

     iteration # 25     ecut=    50.00 Ry     beta= 0.60
     Davidson diagonalization with overlap
     ethr =  2.56E-08,  avg # of iterations =  3.2

     total cpu time spent up to now is     2118.6 secs

     total energy              =    -821.51443736 Ry
     Harris-Foulkes estimate   =    -821.51444079 Ry
     estimated scf accuracy    <       0.00002838 Ry

     iteration # 26     ecut=    50.00 Ry     beta= 0.60
     Davidson diagonalization with overlap
     ethr =  2.56E-08,  avg # of iterations =  1.0

     total cpu time spent up to now is     2182.4 secs

     total energy              =    -821.51443858 Ry
     Harris-Foulkes estimate   =    -821.51443905 Ry
     estimated scf accuracy    <       0.00000248 Ry

     iteration # 27     ecut=    50.00 Ry     beta= 0.60
     Davidson diagonalization with overlap
     ethr =  2.82E-09,  avg # of iterations =  4.2

     total cpu time spent up to now is     2284.3 secs

     total energy              =    -821.51443928 Ry
     Harris-Foulkes estimate   =    -821.51443961 Ry
     estimated scf accuracy    <       0.00000432 Ry

     iteration # 28     ecut=    50.00 Ry     beta= 0.60
     Davidson diagonalization with overlap
     ethr =  2.82E-09,  avg # of iterations =  2.0

     total cpu time spent up to now is     2351.7 secs

     total energy              =    -821.51443916 Ry
     Harris-Foulkes estimate   =    -821.51443948 Ry
     estimated scf accuracy    <       0.00000295 Ry

     iteration # 29     ecut=    50.00 Ry     beta= 0.60
     Davidson diagonalization with overlap
     ethr =  2.82E-09,  avg # of iterations =  2.3

     total cpu time spent up to now is     2421.0 secs

     total energy              =    -821.51443929 Ry
     Harris-Foulkes estimate   =    -821.51443932 Ry
     estimated scf accuracy    <       0.00000017 Ry

     iteration # 30     ecut=    50.00 Ry     beta= 0.60
     Davidson diagonalization with overlap
     ethr =  1.97E-10,  avg # of iterations =  4.3

     total cpu time spent up to now is     2520.9 secs

     total energy              =    -821.51443932 Ry
     Harris-Foulkes estimate   =    -821.51443936 Ry
     estimated scf accuracy    <       0.00000025 Ry

     iteration # 31     ecut=    50.00 Ry     beta= 0.60
     Davidson diagonalization with overlap
     ethr =  1.97E-10,  avg # of iterations =  2.3

     total cpu time spent up to now is     2590.3 secs

     total energy              =    -821.51443933 Ry
     Harris-Foulkes estimate   =    -821.51443934 Ry
     estimated scf accuracy    <       0.00000003 Ry

     iteration # 32     ecut=    50.00 Ry     beta= 0.60
     Davidson diagonalization with overlap
     ethr =  3.79E-11,  avg # of iterations =  4.0

     total cpu time spent up to now is     2681.6 secs

     total energy              =    -821.51443934 Ry
     Harris-Foulkes estimate   =    -821.51443934 Ry
     estimated scf accuracy    <       0.00000002 Ry

     iteration # 33     ecut=    50.00 Ry     beta= 0.60
     Davidson diagonalization with overlap
     ethr =  2.32E-11,  avg # of iterations =  2.3

     total cpu time spent up to now is     2750.2 secs

     total energy              =    -821.51443934 Ry
     Harris-Foulkes estimate   =    -821.51443934 Ry
     estimated scf accuracy    <       0.00000001 Ry

     iteration # 34     ecut=    50.00 Ry     beta= 0.60
     Davidson diagonalization with overlap
     ethr =  1.34E-11,  avg # of iterations =  1.5

     total cpu time spent up to now is     2815.8 secs

     total energy              =    -821.51443934 Ry
     Harris-Foulkes estimate   =    -821.51443934 Ry
     estimated scf accuracy    <          1.9E-09 Ry

     iteration # 35     ecut=    50.00 Ry     beta= 0.60
     Davidson diagonalization with overlap
     ethr =  2.10E-12,  avg # of iterations =  4.4

     total cpu time spent up to now is     2911.6 secs

     total energy              =    -821.51443934 Ry
     Harris-Foulkes estimate   =    -821.51443934 Ry
     estimated scf accuracy    <          4.1E-09 Ry

     iteration # 36     ecut=    50.00 Ry     beta= 0.60
     Davidson diagonalization with overlap
     ethr =  2.10E-12,  avg # of iterations =  1.0

     total cpu time spent up to now is     2974.9 secs

     total energy              =    -821.51443934 Ry
     Harris-Foulkes estimate   =    -821.51443934 Ry
     estimated scf accuracy    <          4.1E-10 Ry

     iteration # 37     ecut=    50.00 Ry     beta= 0.60
     Davidson diagonalization with overlap
     ethr =  4.65E-13,  avg # of iterations =  4.1

     total cpu time spent up to now is     3069.8 secs

     total energy              =    -821.51443934 Ry
     Harris-Foulkes estimate   =    -821.51443934 Ry
     estimated scf accuracy    <          3.1E-10 Ry

     iteration # 38     ecut=    50.00 Ry     beta= 0.60
     Davidson diagonalization with overlap
     ethr =  3.50E-13,  avg # of iterations =  1.0

     total cpu time spent up to now is     3137.6 secs

     End of self-consistent calculation

     Number of k-points >= 100: set verbosity='high' to print the bands.

     the Fermi energy is    12.4889 ev

!    total energy              =    -821.51443934 Ry
     Harris-Foulkes estimate   =    -821.51443934 Ry
     estimated scf accuracy    <          7.5E-11 Ry

     The total energy is the sum of the following terms:

     one-electron contribution =    -250.66842269 Ry
     hartree contribution      =     151.60329519 Ry
     xc contribution           =    -116.11467091 Ry
     ewald contribution        =    -606.33395099 Ry
     smearing contrib. (-TS)   =      -0.00068994 Ry

     convergence has been achieved in  38 iterations

     Forces acting on atoms (cartesian axes, Ry/au):

     atom    1 type  2   force =    -0.00023271    0.00023271   -0.01440747
     atom    2 type  2   force =    -0.00574196    0.00574196   -0.00154920
     atom    3 type  1   force =     0.00048821   -0.00048821    0.01139361
     atom    4 type  2   force =     0.00626356   -0.00626356    0.01458483
     atom    5 type  1   force =    -0.00838575    0.00838575    0.00797721
     atom    6 type  1   force =    -0.00576947    0.00576947   -0.00874419
     atom    7 type  1   force =     0.01337812   -0.01337812   -0.00925479

     Total force =     0.038580     Total SCF correction =     0.000024


     Computing stress (Cartesian axis) and pressure

          total   stress  (Ry/bohr**3)                   (kbar)     P= -203.50
  -0.00137967   0.00001505  -0.00000063       -202.96      2.21     -0.09
   0.00001505  -0.00137967   0.00000063          2.21   -202.96      0.09
  -0.00000063   0.00000063  -0.00139071         -0.09      0.09   -204.58


     BFGS Geometry Optimization

     number of scf cycles    =   1
     number of bfgs steps    =   0

     enthalpy new            =    -821.5144393396 Ry

     new trust radius        =       0.2228051933 bohr
     new conv_thr            =            1.0E-10 Ry

     new unit-cell volume =    923.80056 a.u.^3 (   136.89312 Ang^3 )
     density =      6.24979 g/cm^3

CELL_PARAMETERS (alat=  1.88972599)
   5.091548225  -1.695437070  -1.697019864
   1.695437070  -5.091548225  -1.697019864
  -1.696648883   1.696648883  -5.090669832

ATOMIC_POSITIONS (angstrom)
Ti      -0.000063049   0.000063049  -3.401176037
Ti       5.087348176  -5.087348176  -5.091683755
Nb       3.393769733  -3.393769733  -3.388108761
Ti       1.699959085  -1.699959085  -1.689514664
Nb       5.086053528  -5.086053528  -8.480634829
Nb       3.390629622  -3.390629622  -6.792211629
Nb       1.703648552  -1.703648552  -5.095508569


     NEW-OLD atomic charge density approx. for the potential
     extrapolated charge   78.53530, renormalised to   88.00000

     total cpu time spent up to now is     3174.5 secs

     Self-consistent Calculation

     iteration #  1     ecut=    50.00 Ry     beta= 0.60
     Davidson diagonalization with overlap
     c_bands:  1 eigenvalues not converged
     c_bands:  1 eigenvalues not converged
     c_bands:  1 eigenvalues not converged
     c_bands:  1 eigenvalues not converged
     c_bands:  1 eigenvalues not converged
     c_bands:  1 eigenvalues not converged
     c_bands:  1 eigenvalues not converged
     c_bands:  1 eigenvalues not converged
     c_bands:  1 eigenvalues not converged
     c_bands:  1 eigenvalues not converged
     c_bands:  1 eigenvalues not converged
     c_bands:  1 eigenvalues not converged
     c_bands:  1 eigenvalues not converged
     c_bands:  1 eigenvalues not converged
     c_bands:  1 eigenvalues not converged
     c_bands:  1 eigenvalues not converged
     c_bands:  1 eigenvalues not converged
     c_bands:  1 eigenvalues not converged
     c_bands:  1 eigenvalues not converged
     c_bands:  1 eigenvalues not converged
     c_bands:  1 eigenvalues not converged
     c_bands:  1 eigenvalues not converged
     c_bands:  1 eigenvalues not converged
     c_bands:  1 eigenvalues not converged
     c_bands:  1 eigenvalues not converged
     c_bands:  1 eigenvalues not converged
     c_bands:  1 eigenvalues not converged
     c_bands:  1 eigenvalues not converged
     c_bands:  1 eigenvalues not converged
     c_bands:  1 eigenvalues not converged
     c_bands:  1 eigenvalues not converged
     c_bands:  1 eigenvalues not converged
     c_bands:  1 eigenvalues not converged
     c_bands:  1 eigenvalues not converged
     c_bands:  1 eigenvalues not converged
     c_bands:  1 eigenvalues not converged
     c_bands:  1 eigenvalues not converged
     c_bands:  1 eigenvalues not converged
     c_bands:  1 eigenvalues not converged
     c_bands:  1 eigenvalues not converged
     c_bands:  1 eigenvalues not converged
     c_bands:  1 eigenvalues not converged
     c_bands:  1 eigenvalues not converged
     c_bands:  1 eigenvalues not converged
     c_bands:  1 eigenvalues not converged
     c_bands:  1 eigenvalues not converged
     c_bands:  1 eigenvalues not converged
     c_bands:  1 eigenvalues not converged
     c_bands:  1 eigenvalues not converged
     c_bands:  1 eigenvalues not converged
     c_bands:  1 eigenvalues not converged
     c_bands:  1 eigenvalues not converged
     c_bands:  1 eigenvalues not converged
     c_bands:  1 eigenvalues not converged
     c_bands:  1 eigenvalues not converged
     c_bands:  1 eigenvalues not converged
     c_bands:  1 eigenvalues not converged
     c_bands:  1 eigenvalues not converged
     c_bands:  1 eigenvalues not converged
     c_bands:  1 eigenvalues not converged
     c_bands:  1 eigenvalues not converged
     c_bands:  1 eigenvalues not converged
     c_bands:  1 eigenvalues not converged
     c_bands:  1 eigenvalues not converged
     c_bands:  1 eigenvalues not converged
     c_bands:  1 eigenvalues not converged
     c_bands:  1 eigenvalues not converged
     c_bands:  1 eigenvalues not converged
     c_bands:  1 eigenvalues not converged
     c_bands:  1 eigenvalues not converged
     c_bands:  1 eigenvalues not converged
     c_bands:  1 eigenvalues not converged
     c_bands:  1 eigenvalues not converged
     c_bands:  1 eigenvalues not converged
     c_bands:  1 eigenvalues not converged
     c_bands:  1 eigenvalues not converged
     c_bands:  1 eigenvalues not converged
     c_bands:  1 eigenvalues not converged
     c_bands:  1 eigenvalues not converged
     c_bands:  1 eigenvalues not converged
     c_bands:  1 eigenvalues not converged
     c_bands:  1 eigenvalues not converged
     c_bands:  1 eigenvalues not converged
     c_bands:  1 eigenvalues not converged
     c_bands:  1 eigenvalues not converged
     c_bands:  1 eigenvalues not converged
     c_bands:  1 eigenvalues not converged
     c_bands:  1 eigenvalues not converged
     c_bands:  1 eigenvalues not converged
     c_bands:  1 eigenvalues not converged
     c_bands:  1 eigenvalues not converged
     ethr =  1.00E-06,  avg # of iterations = 18.0

     total cpu time spent up to now is     3486.2 secs

     total energy              =    -765.88382701 Ry
     Harris-Foulkes estimate   =    -840.70208391 Ry
     estimated scf accuracy    <      63.32124397 Ry

     iteration #  2     ecut=    50.00 Ry     beta= 0.60
     Davidson diagonalization with overlap
     ethr =  1.00E-02,  avg # of iterations =  6.0

     total cpu time spent up to now is     3625.2 secs

     total energy              =    -797.34539187 Ry
     Harris-Foulkes estimate   =    -906.31319294 Ry
     estimated scf accuracy    <     358.97921785 Ry

     iteration #  3     ecut=    50.00 Ry     beta= 0.60
     Davidson diagonalization with overlap
     ethr =  1.00E-02,  avg # of iterations =  5.0

     total cpu time spent up to now is     3758.3 secs

     total energy              =    -825.88419611 Ry
     Harris-Foulkes estimate   =    -831.08678302 Ry
     estimated scf accuracy    <      25.70025506 Ry

     iteration #  4     ecut=    50.00 Ry     beta= 0.60
     Davidson diagonalization with overlap
     ethr =  1.00E-02,  avg # of iterations =  1.3

     total cpu time spent up to now is     3822.4 secs

     total energy              =    -824.89659713 Ry
     Harris-Foulkes estimate   =    -827.09904678 Ry
     estimated scf accuracy    <      23.94210295 Ry

     iteration #  5     ecut=    50.00 Ry     beta= 0.60
     Davidson diagonalization with overlap
     ethr =  1.00E-02,  avg # of iterations =  1.0

     total cpu time spent up to now is     3885.9 secs

     total energy              =    -824.08968818 Ry
     Harris-Foulkes estimate   =    -825.45971193 Ry
     estimated scf accuracy    <      14.75949895 Ry

     iteration #  6     ecut=    50.00 Ry     beta= 0.60
     Davidson diagonalization with overlap
     ethr =  1.00E-02,  avg # of iterations =  1.0

     total cpu time spent up to now is     3949.5 secs

     total energy              =    -822.37421027 Ry
     Harris-Foulkes estimate   =    -824.21402054 Ry
     estimated scf accuracy    <      11.67556925 Ry

     iteration #  7     ecut=    50.00 Ry     beta= 0.60
     Davidson diagonalization with overlap
     ethr =  1.00E-02,  avg # of iterations =  1.7

     total cpu time spent up to now is     4014.6 secs

     total energy              =    -822.33627638 Ry
     Harris-Foulkes estimate   =    -822.60796050 Ry
     estimated scf accuracy    <       6.17637245 Ry

     iteration #  8     ecut=    50.00 Ry     beta= 0.60
     Davidson diagonalization with overlap
     ethr =  7.02E-03,  avg # of iterations =  1.0

     total cpu time spent up to now is     4077.5 secs

     total energy              =    -821.90940560 Ry
     Harris-Foulkes estimate   =    -822.39670226 Ry
     estimated scf accuracy    <       5.42671807 Ry

     iteration #  9     ecut=    50.00 Ry     beta= 0.60
     Davidson diagonalization with overlap
     ethr =  6.17E-03,  avg # of iterations =  1.2

     total cpu time spent up to now is     4140.9 secs

     total energy              =    -821.76301609 Ry
     Harris-Foulkes estimate   =    -821.99107343 Ry
     estimated scf accuracy    <       3.53462134 Ry

     iteration # 10     ecut=    50.00 Ry     beta= 0.60
     Davidson diagonalization with overlap
     ethr =  4.02E-03,  avg # of iterations =  1.3

     total cpu time spent up to now is     4205.4 secs

     total energy              =    -820.69622043 Ry
     Harris-Foulkes estimate   =    -821.81531564 Ry
     estimated scf accuracy    <       2.50613072 Ry

     iteration # 11     ecut=    50.00 Ry     beta= 0.60
     Davidson diagonalization with overlap
     ethr =  2.85E-03,  avg # of iterations =  4.0

     total cpu time spent up to now is     4320.5 secs

     total energy              =    -822.02549467 Ry
     Harris-Foulkes estimate   =    -822.76734796 Ry
     estimated scf accuracy    <      20.97367759 Ry

     iteration # 12     ecut=    50.00 Ry     beta= 0.60
     Davidson diagonalization with overlap
     ethr =  2.85E-03,  avg # of iterations =  1.0

     total cpu time spent up to now is     4385.6 secs

     total energy              =    -822.73796104 Ry
     Harris-Foulkes estimate   =    -822.11724919 Ry
     estimated scf accuracy    <      11.95775786 Ry

     iteration # 13     ecut=    50.00 Ry     beta= 0.60
     Davidson diagonalization with overlap
     ethr =  2.85E-03,  avg # of iterations =  1.0

     total cpu time spent up to now is     4450.6 secs

     total energy              =    -821.80951531 Ry
     Harris-Foulkes estimate   =    -822.83671824 Ry
     estimated scf accuracy    <      20.92805893 Ry

     iteration # 14     ecut=    50.00 Ry     beta= 0.60
     Davidson diagonalization with overlap
     ethr =  2.85E-03,  avg # of iterations =  1.0

     total cpu time spent up to now is     4515.4 secs

     total energy              =    -821.54450148 Ry
     Harris-Foulkes estimate   =    -821.98235730 Ry
     estimated scf accuracy    <       9.71675882 Ry

     iteration # 15     ecut=    50.00 Ry     beta= 0.60
     Davidson diagonalization with overlap
     ethr =  2.85E-03,  avg # of iterations =  2.4

     total cpu time spent up to now is     4590.4 secs

     total energy              =    -821.74295012 Ry
     Harris-Foulkes estimate   =    -821.73343598 Ry
     estimated scf accuracy    <       2.61688774 Ry

     iteration # 16     ecut=    50.00 Ry     beta= 0.60
     Davidson diagonalization with overlap
     ethr =  2.85E-03,  avg # of iterations =  1.0

     total cpu time spent up to now is     4655.4 secs

     total energy              =    -821.81687753 Ry
     Harris-Foulkes estimate   =    -821.75816868 Ry
     estimated scf accuracy    <       2.69704567 Ry

     iteration # 17     ecut=    50.00 Ry     beta= 0.60
     Davidson diagonalization with overlap
     ethr =  2.85E-03,  avg # of iterations =  1.0

     total cpu time spent up to now is     4720.5 secs

     total energy              =    -821.65654008 Ry
     Harris-Foulkes estimate   =    -821.83368899 Ry
     estimated scf accuracy    <       3.48434223 Ry

     iteration # 18     ecut=    50.00 Ry     beta= 0.60
     Davidson diagonalization with overlap
     ethr =  2.85E-03,  avg # of iterations =  1.0

     total cpu time spent up to now is     4785.4 secs

     total energy              =    -821.69142791 Ry
     Harris-Foulkes estimate   =    -821.70047221 Ry
     estimated scf accuracy    <       1.53594077 Ry

     iteration # 19     ecut=    50.00 Ry     beta= 0.60
     Davidson diagonalization with overlap
     ethr =  1.75E-03,  avg # of iterations =  1.0

     total cpu time spent up to now is     4850.3 secs

     total energy              =    -821.86560091 Ry
     Harris-Foulkes estimate   =    -821.70357029 Ry
     estimated scf accuracy    <       1.36557140 Ry

     iteration # 20     ecut=    50.00 Ry     beta= 0.60
     Davidson diagonalization with overlap
     ethr =  1.55E-03,  avg # of iterations =  1.0

     total cpu time spent up to now is     4915.2 secs

     total energy              =    -822.12079041 Ry
     Harris-Foulkes estimate   =    -821.92352831 Ry
     estimated scf accuracy    <       3.81211974 Ry

     iteration # 21     ecut=    50.00 Ry     beta= 0.60
     Davidson diagonalization with overlap
     ethr =  1.55E-03,  avg # of iterations =  2.1

     total cpu time spent up to now is     4986.4 secs

     total energy              =    -821.50419425 Ry
     Harris-Foulkes estimate   =    -822.24899445 Ry
     estimated scf accuracy    <       8.82725318 Ry

     iteration # 22     ecut=    50.00 Ry     beta= 0.60
     Davidson diagonalization with overlap
     ethr =  1.55E-03,  avg # of iterations =  2.2

     total cpu time spent up to now is     5058.0 secs

     total energy              =    -821.53616683 Ry
     Harris-Foulkes estimate   =    -821.70587994 Ry
     estimated scf accuracy    <       1.77066718 Ry

     iteration # 23     ecut=    50.00 Ry     beta= 0.60
     Davidson diagonalization with overlap
     ethr =  1.55E-03,  avg # of iterations =  2.8

     total cpu time spent up to now is     5147.0 secs

     total energy              =    -821.55003931 Ry
     Harris-Foulkes estimate   =    -821.61080407 Ry
     estimated scf accuracy    <       0.28064163 Ry

     iteration # 24     ecut=    50.00 Ry     beta= 0.60
     Davidson diagonalization with overlap
     ethr =  3.19E-04,  avg # of iterations =  5.2

     total cpu time spent up to now is     5297.0 secs

     total energy              =    -821.63556426 Ry
     Harris-Foulkes estimate   =    -821.65100647 Ry
     estimated scf accuracy    <       0.21895916 Ry

     iteration # 25     ecut=    50.00 Ry     beta= 0.60
     Davidson diagonalization with overlap
     ethr =  2.49E-04,  avg # of iterations =  1.0

     total cpu time spent up to now is     5361.9 secs

     total energy              =    -821.62618240 Ry
     Harris-Foulkes estimate   =    -821.64341558 Ry
     estimated scf accuracy    <       0.15313317 Ry

     iteration # 26     ecut=    50.00 Ry     beta= 0.60
     Davidson diagonalization with overlap
     ethr =  1.74E-04,  avg # of iterations =  1.0

     total cpu time spent up to now is     5426.7 secs

     total energy              =    -821.62898536 Ry
     Harris-Foulkes estimate   =    -821.63262693 Ry
     estimated scf accuracy    <       0.04226948 Ry

     iteration # 27     ecut=    50.00 Ry     beta= 0.60
     Davidson diagonalization with overlap
     ethr =  4.80E-05,  avg # of iterations =  3.9

     total cpu time spent up to now is     5508.8 secs

     total energy              =    -821.63176946 Ry
     Harris-Foulkes estimate   =    -821.63226375 Ry
     estimated scf accuracy    <       0.00380490 Ry

     iteration # 28     ecut=    50.00 Ry     beta= 0.60
     Davidson diagonalization with overlap
     ethr =  4.32E-06,  avg # of iterations =  7.7

     total cpu time spent up to now is     5634.6 secs

     total energy              =    -821.63254148 Ry
     Harris-Foulkes estimate   =    -821.63268481 Ry
     estimated scf accuracy    <       0.00066673 Ry

     iteration # 29     ecut=    50.00 Ry     beta= 0.60
     Davidson diagonalization with overlap
     ethr =  7.58E-07,  avg # of iterations =  2.9

     total cpu time spent up to now is     5716.8 secs

     total energy              =    -821.63260656 Ry
     Harris-Foulkes estimate   =    -821.63264051 Ry
     estimated scf accuracy    <       0.00015531 Ry

     iteration # 30     ecut=    50.00 Ry     beta= 0.60
     Davidson diagonalization with overlap
     ethr =  1.76E-07,  avg # of iterations =  2.2

     total cpu time spent up to now is     5801.5 secs

     total energy              =    -821.63262495 Ry
     Harris-Foulkes estimate   =    -821.63262871 Ry
     estimated scf accuracy    <       0.00001483 Ry

     iteration # 31     ecut=    50.00 Ry     beta= 0.60
     Davidson diagonalization with overlap
     ethr =  1.69E-08,  avg # of iterations =  4.1

     total cpu time spent up to now is     5894.7 secs

     total energy              =    -821.63262580 Ry
     Harris-Foulkes estimate   =    -821.63263083 Ry
     estimated scf accuracy    <       0.00003569 Ry

     iteration # 32     ecut=    50.00 Ry     beta= 0.60
     Davidson diagonalization with overlap
     ethr =  1.69E-08,  avg # of iterations =  4.0

     total cpu time spent up to now is     5996.3 secs

     total energy              =    -821.63262742 Ry
     Harris-Foulkes estimate   =    -821.63262980 Ry
     estimated scf accuracy    <       0.00001480 Ry

     iteration # 33     ecut=    50.00 Ry     beta= 0.60
     Davidson diagonalization with overlap
     ethr =  1.68E-08,  avg # of iterations =  1.1

     total cpu time spent up to now is     6066.1 secs

     total energy              =    -821.63262824 Ry
     Harris-Foulkes estimate   =    -821.63262855 Ry
     estimated scf accuracy    <       0.00000187 Ry

     iteration # 34     ecut=    50.00 Ry     beta= 0.60
     Davidson diagonalization with overlap
     ethr =  2.12E-09,  avg # of iterations =  4.2

     total cpu time spent up to now is     6169.5 secs

     total energy              =    -821.63262856 Ry
     Harris-Foulkes estimate   =    -821.63262893 Ry
     estimated scf accuracy    <       0.00000221 Ry

     iteration # 35     ecut=    50.00 Ry     beta= 0.60
     Davidson diagonalization with overlap
     ethr =  2.12E-09,  avg # of iterations =  3.0

     total cpu time spent up to now is     6262.5 secs

     total energy              =    -821.63262863 Ry
     Harris-Foulkes estimate   =    -821.63262885 Ry
     estimated scf accuracy    <       0.00000139 Ry

     iteration # 36     ecut=    50.00 Ry     beta= 0.60
     Davidson diagonalization with overlap
     ethr =  1.58E-09,  avg # of iterations =  1.5

     total cpu time spent up to now is     6329.5 secs

     total energy              =    -821.63262868 Ry
     Harris-Foulkes estimate   =    -821.63262874 Ry
     estimated scf accuracy    <       0.00000040 Ry

     iteration # 37     ecut=    50.00 Ry     beta= 0.60
     Davidson diagonalization with overlap
     ethr =  4.52E-10,  avg # of iterations =  3.8

     total cpu time spent up to now is     6420.6 secs

     total energy              =    -821.63262869 Ry
     Harris-Foulkes estimate   =    -821.63262878 Ry
     estimated scf accuracy    <       0.00000064 Ry

     iteration # 38     ecut=    50.00 Ry     beta= 0.60
     Davidson diagonalization with overlap
     ethr =  4.52E-10,  avg # of iterations =  1.2

     total cpu time spent up to now is     6486.7 secs

     total energy              =    -821.63262872 Ry
     Harris-Foulkes estimate   =    -821.63262873 Ry
     estimated scf accuracy    <       0.00000005 Ry

     iteration # 39     ecut=    50.00 Ry     beta= 0.60
     Davidson diagonalization with overlap
     ethr =  5.98E-11,  avg # of iterations =  4.1

     total cpu time spent up to now is     6584.6 secs

     total energy              =    -821.63262874 Ry
     Harris-Foulkes estimate   =    -821.63262875 Ry
     estimated scf accuracy    <       0.00000008 Ry

     iteration # 40     ecut=    50.00 Ry     beta= 0.60
     Davidson diagonalization with overlap
     ethr =  5.98E-11,  avg # of iterations =  2.2

     total cpu time spent up to now is     6656.2 secs

     total energy              =    -821.63262874 Ry
     Harris-Foulkes estimate   =    -821.63262874 Ry
     estimated scf accuracy    <       0.00000002 Ry

     iteration # 41     ecut=    50.00 Ry     beta= 0.60
     Davidson diagonalization with overlap
     ethr =  2.24E-11,  avg # of iterations =  2.9

     total cpu time spent up to now is     6733.3 secs

     total energy              =    -821.63262874 Ry
     Harris-Foulkes estimate   =    -821.63262874 Ry
     estimated scf accuracy    <          4.1E-09 Ry

     iteration # 42     ecut=    50.00 Ry     beta= 0.60
     Davidson diagonalization with overlap
     ethr =  4.67E-12,  avg # of iterations =  3.6

     total cpu time spent up to now is     6815.2 secs

     total energy              =    -821.63262874 Ry
     Harris-Foulkes estimate   =    -821.63262874 Ry
     estimated scf accuracy    <          3.0E-10 Ry

     iteration # 43     ecut=    50.00 Ry     beta= 0.60
     Davidson diagonalization with overlap
     ethr =  3.44E-13,  avg # of iterations =  4.3

     total cpu time spent up to now is     6910.0 secs

     total energy              =    -821.63262874 Ry
     Harris-Foulkes estimate   =    -821.63262874 Ry
     estimated scf accuracy    <          2.1E-10 Ry

     iteration # 44     ecut=    50.00 Ry     beta= 0.60
     Davidson diagonalization with overlap
     ethr =  2.41E-13,  avg # of iterations =  3.2

     total cpu time spent up to now is     6988.9 secs

     total energy              =    -821.63262874 Ry
     Harris-Foulkes estimate   =    -821.63262874 Ry
     estimated scf accuracy    <          1.8E-10 Ry

     iteration # 45     ecut=    50.00 Ry     beta= 0.60
     Davidson diagonalization with overlap
     ethr =  2.06E-13,  avg # of iterations =  1.7

     total cpu time spent up to now is     7057.0 secs

     End of self-consistent calculation

     Number of k-points >= 100: set verbosity='high' to print the bands.

     the Fermi energy is    14.2001 ev

!    total energy              =    -821.63262874 Ry
     Harris-Foulkes estimate   =    -821.63262874 Ry
     estimated scf accuracy    <          2.8E-11 Ry

     The total energy is the sum of the following terms:

     one-electron contribution =    -218.86244614 Ry
     hartree contribution      =     141.95494350 Ry
     xc contribution           =    -116.71861057 Ry
     ewald contribution        =    -628.00539110 Ry
     smearing contrib. (-TS)   =      -0.00112442 Ry

     convergence has been achieved in  45 iterations

     Forces acting on atoms (cartesian axes, Ry/au):

     atom    1 type  2   force =     0.00097187   -0.00097187   -0.01407866
     atom    2 type  2   force =    -0.00596575    0.00596575   -0.00036485
     atom    3 type  1   force =     0.00071227   -0.00071227    0.00826383
     atom    4 type  2   force =     0.00513495   -0.00513495    0.01267556
     atom    5 type  1   force =    -0.00843022    0.00843022    0.00703409
     atom    6 type  1   force =    -0.00406258    0.00406258   -0.00951014
     atom    7 type  1   force =     0.01163946   -0.01163946   -0.00401983

     Total force =     0.034004     Total SCF correction =     0.000013


     Computing stress (Cartesian axis) and pressure

          total   stress  (Ry/bohr**3)                   (kbar)     P= -122.57
  -0.00082821   0.00002072  -0.00000135       -121.83      3.05     -0.20
   0.00002072  -0.00082821   0.00000135          3.05   -121.83      0.20
  -0.00000135   0.00000135  -0.00084325         -0.20      0.20   -124.05


     number of scf cycles    =   2
     number of bfgs steps    =   1

     enthalpy old            =    -821.5144393396 Ry
     enthalpy new            =    -821.6326287400 Ry

     CASE: enthalpy_new < enthalpy_old

     new trust radius        =       0.2851873387 bohr
     new conv_thr            =            1.0E-10 Ry

     new unit-cell volume =    801.22802 a.u.^3 (   118.72974 Ang^3 )
     density =      7.20589 g/cm^3

CELL_PARAMETERS (alat=  1.88972599)
   4.855178312  -1.611449012  -1.617923633
   1.611449012  -4.855178312  -1.617923633
  -1.616109736   1.616109736  -4.851582457

ATOMIC_POSITIONS (angstrom)
Ti       0.001248536  -0.001248536  -3.256829159
Ti       4.840966816  -4.840966816  -4.853982652
Nb       3.234474867  -3.234474867  -3.220735048
Ti       1.625330874  -1.625330874  -1.596806725
Nb       4.837328783  -4.837328783  -8.075937840
Nb       3.226583439  -3.226583439  -6.484351460
Nb       1.636137037  -1.636137037  -4.861076011


     NEW-OLD atomic charge density approx. for the potential
     extrapolated charge   74.99832, renormalised to   88.00000

     total cpu time spent up to now is     7095.6 secs

     Self-consistent Calculation

     iteration #  1     ecut=    50.00 Ry     beta= 0.60
     Davidson diagonalization with overlap
     c_bands:  1 eigenvalues not converged
     c_bands:  1 eigenvalues not converged
     c_bands:  1 eigenvalues not converged
     c_bands:  1 eigenvalues not converged
     c_bands:  1 eigenvalues not converged
     c_bands:  1 eigenvalues not converged
     c_bands:  1 eigenvalues not converged
     c_bands:  1 eigenvalues not converged
     c_bands:  1 eigenvalues not converged
     c_bands:  1 eigenvalues not converged
     c_bands:  1 eigenvalues not converged
     c_bands:  1 eigenvalues not converged
     c_bands:  1 eigenvalues not converged
     c_bands:  1 eigenvalues not converged
     c_bands:  1 eigenvalues not converged
     c_bands:  1 eigenvalues not converged
     c_bands:  1 eigenvalues not converged
     c_bands:  2 eigenvalues not converged
     c_bands:  1 eigenvalues not converged
     c_bands:  1 eigenvalues not converged
     c_bands:  1 eigenvalues not converged
     c_bands:  1 eigenvalues not converged
     c_bands:  1 eigenvalues not converged
     c_bands:  1 eigenvalues not converged
     c_bands:  1 eigenvalues not converged
     c_bands:  1 eigenvalues not converged
     c_bands:  1 eigenvalues not converged
     c_bands:  1 eigenvalues not converged
     c_bands:  1 eigenvalues not converged
     c_bands:  1 eigenvalues not converged
     c_bands:  1 eigenvalues not converged
     c_bands:  1 eigenvalues not converged
     c_bands:  1 eigenvalues not converged
     c_bands:  1 eigenvalues not converged
     c_bands:  1 eigenvalues not converged
     c_bands:  1 eigenvalues not converged
     c_bands:  1 eigenvalues not converged
     c_bands:  1 eigenvalues not converged
     c_bands:  1 eigenvalues not converged
     c_bands:  1 eigenvalues not converged
     c_bands:  1 eigenvalues not converged
     c_bands:  1 eigenvalues not converged
     c_bands:  1 eigenvalues not converged
     c_bands:  1 eigenvalues not converged
     c_bands:  1 eigenvalues not converged
     c_bands:  1 eigenvalues not converged
     c_bands:  1 eigenvalues not converged
     c_bands:  1 eigenvalues not converged
     c_bands:  2 eigenvalues not converged
     c_bands:  1 eigenvalues not converged
     c_bands:  1 eigenvalues not converged
     c_bands:  1 eigenvalues not converged
     c_bands:  1 eigenvalues not converged
     c_bands:  1 eigenvalues not converged
     c_bands:  1 eigenvalues not converged
     c_bands:  1 eigenvalues not converged
     ethr =  1.00E-06,  avg # of iterations = 16.5

     total cpu time spent up to now is     7403.1 secs

     total energy              =    -745.48724303 Ry
     Harris-Foulkes estimate   =    -844.55736248 Ry
     estimated scf accuracy    <      85.86626584 Ry

     iteration #  2     ecut=    50.00 Ry     beta= 0.60
     Davidson diagonalization with overlap
     ethr =  1.00E-02,  avg # of iterations =  6.3

     total cpu time spent up to now is     7545.6 secs

     total energy              =    -796.67126214 Ry
     Harris-Foulkes estimate   =    -930.57023219 Ry
     estimated scf accuracy    <     421.42940528 Ry

     iteration #  3     ecut=    50.00 Ry     beta= 0.60
     Davidson diagonalization with overlap
     ethr =  1.00E-02,  avg # of iterations =  5.0

     total cpu time spent up to now is     7679.4 secs

     total energy              =    -827.03692340 Ry
     Harris-Foulkes estimate   =    -834.07491205 Ry
     estimated scf accuracy    <      32.91951529 Ry

     iteration #  4     ecut=    50.00 Ry     beta= 0.60
     Davidson diagonalization with overlap
     ethr =  1.00E-02,  avg # of iterations =  2.0

     total cpu time spent up to now is     7748.9 secs

     total energy              =    -825.82936384 Ry
     Harris-Foulkes estimate   =    -828.56330514 Ry
     estimated scf accuracy    <      26.92278457 Ry

     iteration #  5     ecut=    50.00 Ry     beta= 0.60
     Davidson diagonalization with overlap
     ethr =  1.00E-02,  avg # of iterations =  1.0

     total cpu time spent up to now is     7811.9 secs

     total energy              =    -824.30537057 Ry
     Harris-Foulkes estimate   =    -826.42957491 Ry
     estimated scf accuracy    <      17.16036992 Ry

     iteration #  6     ecut=    50.00 Ry     beta= 0.60
     Davidson diagonalization with overlap
     ethr =  1.00E-02,  avg # of iterations =  1.0

     total cpu time spent up to now is     7875.6 secs

     total energy              =    -822.68129169 Ry
     Harris-Foulkes estimate   =    -824.49991746 Ry
     estimated scf accuracy    <      12.29189483 Ry

     iteration #  7     ecut=    50.00 Ry     beta= 0.60
     Davidson diagonalization with overlap
     ethr =  1.00E-02,  avg # of iterations =  1.3

     total cpu time spent up to now is     7938.6 secs

     total energy              =    -822.50109221 Ry
     Harris-Foulkes estimate   =    -822.90587312 Ry
     estimated scf accuracy    <       7.02635682 Ry

     iteration #  8     ecut=    50.00 Ry     beta= 0.60
     Davidson diagonalization with overlap
     ethr =  7.98E-03,  avg # of iterations =  1.0

     total cpu time spent up to now is     8000.8 secs

     total energy              =    -822.22022725 Ry
     Harris-Foulkes estimate   =    -822.57333877 Ry
     estimated scf accuracy    <       5.82393753 Ry

     iteration #  9     ecut=    50.00 Ry     beta= 0.60
     Davidson diagonalization with overlap
     ethr =  6.62E-03,  avg # of iterations =  1.0

     total cpu time spent up to now is     8063.0 secs

     total energy              =    -821.89815467 Ry
     Harris-Foulkes estimate   =    -822.28605328 Ry
     estimated scf accuracy    <       4.44512962 Ry

     iteration # 10     ecut=    50.00 Ry     beta= 0.60
     Davidson diagonalization with overlap
     ethr =  5.05E-03,  avg # of iterations =  1.5

     total cpu time spent up to now is     8127.4 secs

     total energy              =    -820.55108647 Ry
     Harris-Foulkes estimate   =    -821.96918480 Ry
     estimated scf accuracy    <       2.94874923 Ry

     iteration # 11     ecut=    50.00 Ry     beta= 0.60
     Davidson diagonalization with overlap
     ethr =  3.35E-03,  avg # of iterations =  4.0

     total cpu time spent up to now is     8239.0 secs

     total energy              =    -822.13698073 Ry
     Harris-Foulkes estimate   =    -822.82060917 Ry
     estimated scf accuracy    <      18.05393192 Ry

     iteration # 12     ecut=    50.00 Ry     beta= 0.60
     Davidson diagonalization with overlap
     ethr =  3.35E-03,  avg # of iterations =  1.0

     total cpu time spent up to now is     8302.1 secs

     total energy              =    -822.79317394 Ry
     Harris-Foulkes estimate   =    -822.21463802 Ry
     estimated scf accuracy    <      10.73080382 Ry

     iteration # 13     ecut=    50.00 Ry     beta= 0.60
     Davidson diagonalization with overlap
     ethr =  3.35E-03,  avg # of iterations =  1.0

     total cpu time spent up to now is     8365.0 secs

     total energy              =    -822.03195588 Ry
     Harris-Foulkes estimate   =    -822.87707769 Ry
     estimated scf accuracy    <      17.89720865 Ry

     iteration # 14     ecut=    50.00 Ry     beta= 0.60
     Davidson diagonalization with overlap
     ethr =  3.35E-03,  avg # of iterations =  1.0

     total cpu time spent up to now is     8427.9 secs

     total energy              =    -821.13606161 Ry
     Harris-Foulkes estimate   =    -822.15811561 Ry
     estimated scf accuracy    <       9.96861389 Ry

     iteration # 15     ecut=    50.00 Ry     beta= 0.60
     Davidson diagonalization with overlap
     ethr =  3.35E-03,  avg # of iterations =  3.8

     total cpu time spent up to now is     8510.8 secs

     total energy              =    -821.69970326 Ry
     Harris-Foulkes estimate   =    -821.67786200 Ry
     estimated scf accuracy    <       0.24304285 Ry

     iteration # 16     ecut=    50.00 Ry     beta= 0.60
     Davidson diagonalization with overlap
     ethr =  2.76E-04,  avg # of iterations =  4.4

     total cpu time spent up to now is     8607.4 secs

     total energy              =    -821.69343134 Ry
     Harris-Foulkes estimate   =    -821.75120248 Ry
     estimated scf accuracy    <       1.07550982 Ry

     iteration # 17     ecut=    50.00 Ry     beta= 0.60
     Davidson diagonalization with overlap
     ethr =  2.76E-04,  avg # of iterations =  1.0

     total cpu time spent up to now is     8670.4 secs

     total energy              =    -821.66447831 Ry
     Harris-Foulkes estimate   =    -821.70346915 Ry
     estimated scf accuracy    <       0.56108912 Ry

     iteration # 18     ecut=    50.00 Ry     beta= 0.60
     Davidson diagonalization with overlap
     ethr =  2.76E-04,  avg # of iterations =  2.1

     total cpu time spent up to now is     8740.9 secs

     total energy              =    -821.66598471 Ry
     Harris-Foulkes estimate   =    -821.67781907 Ry
     estimated scf accuracy    <       0.16126540 Ry

     iteration # 19     ecut=    50.00 Ry     beta= 0.60
     Davidson diagonalization with overlap
     ethr =  1.83E-04,  avg # of iterations =  1.5

     total cpu time spent up to now is     8811.6 secs

     total energy              =    -821.66609148 Ry
     Harris-Foulkes estimate   =    -821.66966436 Ry
     estimated scf accuracy    <       0.06051575 Ry

     iteration # 20     ecut=    50.00 Ry     beta= 0.60
     Davidson diagonalization with overlap
     ethr =  6.88E-05,  avg # of iterations =  6.2

     total cpu time spent up to now is     8902.8 secs

     total energy              =    -821.66783730 Ry
     Harris-Foulkes estimate   =    -821.66979085 Ry
     estimated scf accuracy    <       0.01276909 Ry

     iteration # 21     ecut=    50.00 Ry     beta= 0.60
     Davidson diagonalization with overlap
     ethr =  1.45E-05,  avg # of iterations =  5.2

     total cpu time spent up to now is     8995.4 secs

     total energy              =    -821.66918501 Ry
     Harris-Foulkes estimate   =    -821.66959606 Ry
     estimated scf accuracy    <       0.00195116 Ry

     iteration # 22     ecut=    50.00 Ry     beta= 0.60
     Davidson diagonalization with overlap
     ethr =  2.22E-06,  avg # of iterations =  5.4

     total cpu time spent up to now is     9099.3 secs

     total energy              =    -821.66947421 Ry
     Harris-Foulkes estimate   =    -821.66955587 Ry
     estimated scf accuracy    <       0.00086966 Ry

     iteration # 23     ecut=    50.00 Ry     beta= 0.60
     Davidson diagonalization with overlap
     ethr =  9.88E-07,  avg # of iterations =  1.5

     total cpu time spent up to now is     9164.3 secs

     total energy              =    -821.66941559 Ry
     Harris-Foulkes estimate   =    -821.66952339 Ry
     estimated scf accuracy    <       0.00059088 Ry

     iteration # 24     ecut=    50.00 Ry     beta= 0.60
     Davidson diagonalization with overlap
     ethr =  6.71E-07,  avg # of iterations =  2.5

     total cpu time spent up to now is     9238.0 secs

     total energy              =    -821.66945919 Ry
     Harris-Foulkes estimate   =    -821.66947690 Ry
     estimated scf accuracy    <       0.00006633 Ry

     iteration # 25     ecut=    50.00 Ry     beta= 0.60
     Davidson diagonalization with overlap
     ethr =  7.54E-08,  avg # of iterations =  3.3

     total cpu time spent up to now is     9321.4 secs

     total energy              =    -821.66946966 Ry
     Harris-Foulkes estimate   =    -821.66947714 Ry
     estimated scf accuracy    <       0.00003657 Ry

     iteration # 26     ecut=    50.00 Ry     beta= 0.60
     Davidson diagonalization with overlap
     ethr =  4.16E-08,  avg # of iterations =  2.0

     total cpu time spent up to now is     9396.1 secs

     total energy              =    -821.66947372 Ry
     Harris-Foulkes estimate   =    -821.66947482 Ry
     estimated scf accuracy    <       0.00000533 Ry

     iteration # 27     ecut=    50.00 Ry     beta= 0.60
     Davidson diagonalization with overlap
     ethr =  6.06E-09,  avg # of iterations =  2.6

     total cpu time spent up to now is     9472.8 secs

     total energy              =    -821.66947434 Ry
     Harris-Foulkes estimate   =    -821.66947449 Ry
     estimated scf accuracy    <       0.00000080 Ry

     iteration # 28     ecut=    50.00 Ry     beta= 0.60
     Davidson diagonalization with overlap
     ethr =  9.11E-10,  avg # of iterations =  3.1

     total cpu time spent up to now is     9550.5 secs

     total energy              =    -821.66947442 Ry
     Harris-Foulkes estimate   =    -821.66947447 Ry
     estimated scf accuracy    <       0.00000031 Ry

     iteration # 29     ecut=    50.00 Ry     beta= 0.60
     Davidson diagonalization with overlap
     ethr =  3.47E-10,  avg # of iterations =  2.9

     total cpu time spent up to now is     9627.7 secs

     total energy              =    -821.66947444 Ry
     Harris-Foulkes estimate   =    -821.66947446 Ry
     estimated scf accuracy    <       0.00000010 Ry

     iteration # 30     ecut=    50.00 Ry     beta= 0.60
     Davidson diagonalization with overlap
     ethr =  1.15E-10,  avg # of iterations =  2.9

     total cpu time spent up to now is     9709.6 secs

     total energy              =    -821.66947445 Ry
     Harris-Foulkes estimate   =    -821.66947445 Ry
     estimated scf accuracy    <          6.3E-09 Ry

     iteration # 31     ecut=    50.00 Ry     beta= 0.60
     Davidson diagonalization with overlap
     ethr =  7.14E-12,  avg # of iterations =  4.2

     total cpu time spent up to now is     9811.4 secs

     total energy              =    -821.66947445 Ry
     Harris-Foulkes estimate   =    -821.66947445 Ry
     estimated scf accuracy    <       0.00000003 Ry

     iteration # 32     ecut=    50.00 Ry     beta= 0.60
     Davidson diagonalization with overlap
     ethr =  7.14E-12,  avg # of iterations =  4.0

     total cpu time spent up to now is     9906.7 secs

     total energy              =    -821.66947445 Ry
     Harris-Foulkes estimate   =    -821.66947445 Ry
     estimated scf accuracy    <       0.00000001 Ry

     iteration # 33     ecut=    50.00 Ry     beta= 0.60
     Davidson diagonalization with overlap
     ethr =  7.14E-12,  avg # of iterations =  3.1

     total cpu time spent up to now is     9988.6 secs

     total energy              =    -821.66947445 Ry
     Harris-Foulkes estimate   =    -821.66947445 Ry
     estimated scf accuracy    <          3.1E-09 Ry

     iteration # 34     ecut=    50.00 Ry     beta= 0.60
     Davidson diagonalization with overlap
     ethr =  3.53E-12,  avg # of iterations =  3.1

     total cpu time spent up to now is    10064.8 secs

     total energy              =    -821.66947445 Ry
     Harris-Foulkes estimate   =    -821.66947445 Ry
     estimated scf accuracy    <          5.4E-10 Ry

     iteration # 35     ecut=    50.00 Ry     beta= 0.60
     Davidson diagonalization with overlap
     ethr =  6.11E-13,  avg # of iterations =  3.0

     total cpu time spent up to now is    10146.7 secs

     total energy              =    -821.66947445 Ry
     Harris-Foulkes estimate   =    -821.66947445 Ry
     estimated scf accuracy    <          5.0E-10 Ry

     iteration # 36     ecut=    50.00 Ry     beta= 0.60
     Davidson diagonalization with overlap
     ethr =  5.72E-13,  avg # of iterations =  1.8

     total cpu time spent up to now is    10214.4 secs

     End of self-consistent calculation

     Number of k-points >= 100: set verbosity='high' to print the bands.

     the Fermi energy is    16.7883 ev

!    total energy              =    -821.66947445 Ry
     Harris-Foulkes estimate   =    -821.66947445 Ry
     estimated scf accuracy    <          3.3E-11 Ry

     The total energy is the sum of the following terms:

     one-electron contribution =    -174.96121891 Ry
     hartree contribution      =     129.36519060 Ry
     xc contribution           =    -117.67006791 Ry
     ewald contribution        =    -658.40170617 Ry
     smearing contrib. (-TS)   =      -0.00167206 Ry

     convergence has been achieved in  36 iterations

     Forces acting on atoms (cartesian axes, Ry/au):

     atom    1 type  2   force =     0.00369889   -0.00369889   -0.00990486
     atom    2 type  2   force =    -0.00576362    0.00576362    0.00077044
     atom    3 type  1   force =     0.00029486   -0.00029486    0.00002118
     atom    4 type  2   force =     0.00189079   -0.00189079    0.00673390
     atom    5 type  1   force =    -0.00758637    0.00758637    0.00258260
     atom    6 type  1   force =    -0.00003314    0.00003314   -0.00811663
     atom    7 type  1   force =     0.00749859   -0.00749859    0.00791338

     Total force =     0.024656     Total SCF correction =     0.000018


     Computing stress (Cartesian axis) and pressure

          total   stress  (Ry/bohr**3)                   (kbar)     P=   59.36
   0.00040967   0.00002609  -0.00000214         60.26      3.84     -0.31
   0.00002609   0.00040967   0.00000214          3.84     60.26      0.31
  -0.00000214   0.00000214   0.00039130         -0.31      0.31     57.56


     number of scf cycles    =   3
     number of bfgs steps    =   2

     enthalpy old            =    -821.6326287400 Ry
     enthalpy new            =    -821.6694744526 Ry

     CASE: enthalpy_new < enthalpy_old

     new trust radius        =       0.0815628072 bohr
     new conv_thr            =            1.0E-10 Ry

     new unit-cell volume =    836.25098 a.u.^3 (   123.91961 Ang^3 )
     density =      6.90410 g/cm^3

CELL_PARAMETERS (alat=  1.88972599)
   4.924847788  -1.633771664  -1.641152103
   1.633771664  -4.924847788  -1.641152103
  -1.638987638   1.638987638  -4.920787282

ATOMIC_POSITIONS (angstrom)
Ti       0.002341513  -0.002341513  -3.304004527
Ti       4.909094442  -4.909094442  -4.923167720
Nb       3.280487086  -3.280487086  -3.268303997
Ti       1.648163519  -1.648163519  -1.619759560
Nb       4.905322108  -4.905322108  -8.191854365
Nb       3.273288604  -3.273288604  -6.577972400
Nb       1.659829984  -1.659829984  -4.927303379


     NEW-OLD atomic charge density approx. for the potential
     extrapolated charge   91.55941, renormalised to   88.00000

     total cpu time spent up to now is    10252.2 secs

     Self-consistent Calculation

     iteration #  1     ecut=    50.00 Ry     beta= 0.60
     Davidson diagonalization with overlap
     c_bands:  1 eigenvalues not converged
     ethr =  1.00E-06,  avg # of iterations = 13.1

     total cpu time spent up to now is    10496.2 secs

     total energy              =    -821.03395195 Ry
     Harris-Foulkes estimate   =    -816.33463068 Ry
     estimated scf accuracy    <       0.51063838 Ry

     iteration #  2     ecut=    50.00 Ry     beta= 0.60
     Davidson diagonalization with overlap
     ethr =  5.80E-04,  avg # of iterations =  6.8

     total cpu time spent up to now is    10646.5 secs

     total energy              =    -820.57402774 Ry
     Harris-Foulkes estimate   =    -822.89339436 Ry
     estimated scf accuracy    <      18.07757245 Ry

     iteration #  3     ecut=    50.00 Ry     beta= 0.60
     Davidson diagonalization with overlap
     ethr =  5.80E-04,  avg # of iterations =  5.0

     total cpu time spent up to now is    10785.0 secs

     total energy              =    -821.60083020 Ry
     Harris-Foulkes estimate   =    -821.84670402 Ry
     estimated scf accuracy    <       0.88738319 Ry

     iteration #  4     ecut=    50.00 Ry     beta= 0.60
     Davidson diagonalization with overlap
     ethr =  5.80E-04,  avg # of iterations =  4.1

     total cpu time spent up to now is    10872.4 secs

     total energy              =    -821.67130602 Ry
     Harris-Foulkes estimate   =    -821.73928520 Ry
     estimated scf accuracy    <       0.52609643 Ry

     iteration #  5     ecut=    50.00 Ry     beta= 0.60
     Davidson diagonalization with overlap
     ethr =  5.80E-04,  avg # of iterations =  1.0

     total cpu time spent up to now is    10934.8 secs

     total energy              =    -821.69159243 Ry
     Harris-Foulkes estimate   =    -821.70056517 Ry
     estimated scf accuracy    <       0.16120453 Ry

     iteration #  6     ecut=    50.00 Ry     beta= 0.60
     Davidson diagonalization with overlap
     ethr =  1.83E-04,  avg # of iterations =  2.0

     total cpu time spent up to now is    11000.6 secs

     total energy              =    -821.68835101 Ry
     Harris-Foulkes estimate   =    -821.69810846 Ry
     estimated scf accuracy    <       0.13760084 Ry

     iteration #  7     ecut=    50.00 Ry     beta= 0.60
     Davidson diagonalization with overlap
     ethr =  1.56E-04,  avg # of iterations =  1.0

     total cpu time spent up to now is    11062.1 secs

     total energy              =    -821.68610898 Ry
     Harris-Foulkes estimate   =    -821.69063636 Ry
     estimated scf accuracy    <       0.09468435 Ry

     iteration #  8     ecut=    50.00 Ry     beta= 0.60
     Davidson diagonalization with overlap
     ethr =  1.08E-04,  avg # of iterations =  1.0

     total cpu time spent up to now is    11124.3 secs

     total energy              =    -821.68320706 Ry
     Harris-Foulkes estimate   =    -821.68716477 Ry
     estimated scf accuracy    <       0.07589574 Ry

     iteration #  9     ecut=    50.00 Ry     beta= 0.60
     Davidson diagonalization with overlap
     ethr =  8.62E-05,  avg # of iterations =  1.0

     total cpu time spent up to now is    11186.5 secs

     total energy              =    -821.67658403 Ry
     Harris-Foulkes estimate   =    -821.68393771 Ry
     estimated scf accuracy    <       0.05863755 Ry

     iteration # 10     ecut=    50.00 Ry     beta= 0.60
     Davidson diagonalization with overlap
     ethr =  6.66E-05,  avg # of iterations =  2.0

     total cpu time spent up to now is    11252.1 secs

     total energy              =    -821.67288740 Ry
     Harris-Foulkes estimate   =    -821.67819250 Ry
     estimated scf accuracy    <       0.02409825 Ry

     iteration # 11     ecut=    50.00 Ry     beta= 0.60
     Davidson diagonalization with overlap
     ethr =  2.74E-05,  avg # of iterations =  4.0

     total cpu time spent up to now is    11333.9 secs

     total energy              =    -821.67534505 Ry
     Harris-Foulkes estimate   =    -821.67557359 Ry
     estimated scf accuracy    <       0.00095238 Ry

     iteration # 12     ecut=    50.00 Ry     beta= 0.60
     Davidson diagonalization with overlap
     ethr =  1.08E-06,  avg # of iterations =  6.4

     total cpu time spent up to now is    11461.0 secs

     total energy              =    -821.67573497 Ry
     Harris-Foulkes estimate   =    -821.67581795 Ry
     estimated scf accuracy    <       0.00063774 Ry

     iteration # 13     ecut=    50.00 Ry     beta= 0.60
     Davidson diagonalization with overlap
     ethr =  7.25E-07,  avg # of iterations =  1.0

     total cpu time spent up to now is    11523.4 secs

     total energy              =    -821.67574499 Ry
     Harris-Foulkes estimate   =    -821.67576501 Ry
     estimated scf accuracy    <       0.00019970 Ry

     iteration # 14     ecut=    50.00 Ry     beta= 0.60
     Davidson diagonalization with overlap
     ethr =  2.27E-07,  avg # of iterations =  3.0

     total cpu time spent up to now is    11598.7 secs

     total energy              =    -821.67575698 Ry
     Harris-Foulkes estimate   =    -821.67576492 Ry
     estimated scf accuracy    <       0.00004767 Ry

     iteration # 15     ecut=    50.00 Ry     beta= 0.60
     Davidson diagonalization with overlap
     ethr =  5.42E-08,  avg # of iterations =  3.3

     total cpu time spent up to now is    11672.9 secs

     total energy              =    -821.67575960 Ry
     Harris-Foulkes estimate   =    -821.67576128 Ry
     estimated scf accuracy    <       0.00000859 Ry

     iteration # 16     ecut=    50.00 Ry     beta= 0.60
     Davidson diagonalization with overlap
     ethr =  9.76E-09,  avg # of iterations =  4.1

     total cpu time spent up to now is    11764.7 secs

     total energy              =    -821.67575831 Ry
     Harris-Foulkes estimate   =    -821.67576430 Ry
     estimated scf accuracy    <       0.00004661 Ry

     iteration # 17     ecut=    50.00 Ry     beta= 0.60
     Davidson diagonalization with overlap
     ethr =  9.76E-09,  avg # of iterations =  3.9

     total cpu time spent up to now is    11851.0 secs

     total energy              =    -821.67576090 Ry
     Harris-Foulkes estimate   =    -821.67576118 Ry
     estimated scf accuracy    <       0.00000099 Ry

     iteration # 18     ecut=    50.00 Ry     beta= 0.60
     Davidson diagonalization with overlap
     ethr =  1.13E-09,  avg # of iterations =  4.0

     total cpu time spent up to now is    11942.4 secs

     total energy              =    -821.67576090 Ry
     Harris-Foulkes estimate   =    -821.67576127 Ry
     estimated scf accuracy    <       0.00000194 Ry

     iteration # 19     ecut=    50.00 Ry     beta= 0.60
     Davidson diagonalization with overlap
     ethr =  1.13E-09,  avg # of iterations =  4.0

     total cpu time spent up to now is    12025.9 secs

     total energy              =    -821.67576098 Ry
     Harris-Foulkes estimate   =    -821.67576117 Ry
     estimated scf accuracy    <       0.00000099 Ry

     iteration # 20     ecut=    50.00 Ry     beta= 0.60
     Davidson diagonalization with overlap
     ethr =  1.13E-09,  avg # of iterations =  2.6

     total cpu time spent up to now is    12094.1 secs

     total energy              =    -821.67576106 Ry
     Harris-Foulkes estimate   =    -821.67576111 Ry
     estimated scf accuracy    <       0.00000024 Ry

     iteration # 21     ecut=    50.00 Ry     beta= 0.60
     Davidson diagonalization with overlap
     ethr =  2.74E-10,  avg # of iterations =  3.4

     total cpu time spent up to now is    12175.6 secs

     total energy              =    -821.67576110 Ry
     Harris-Foulkes estimate   =    -821.67576111 Ry
     estimated scf accuracy    <       0.00000005 Ry

     iteration # 22     ecut=    50.00 Ry     beta= 0.60
     Davidson diagonalization with overlap
     ethr =  5.46E-11,  avg # of iterations =  2.5

     total cpu time spent up to now is    12248.9 secs

     total energy              =    -821.67576110 Ry
     Harris-Foulkes estimate   =    -821.67576110 Ry
     estimated scf accuracy    <          5.8E-09 Ry

     iteration # 23     ecut=    50.00 Ry     beta= 0.60
     Davidson diagonalization with overlap
     ethr =  6.61E-12,  avg # of iterations =  3.9

     total cpu time spent up to now is    12337.3 secs

     total energy              =    -821.67576110 Ry
     Harris-Foulkes estimate   =    -821.67576110 Ry
     estimated scf accuracy    <          5.8E-09 Ry

     iteration # 24     ecut=    50.00 Ry     beta= 0.60
     Davidson diagonalization with overlap
     ethr =  6.61E-12,  avg # of iterations =  1.1

     total cpu time spent up to now is    12400.9 secs

     total energy              =    -821.67576110 Ry
     Harris-Foulkes estimate   =    -821.67576110 Ry
     estimated scf accuracy    <          4.4E-10 Ry

     iteration # 25     ecut=    50.00 Ry     beta= 0.60
     Davidson diagonalization with overlap
     ethr =  5.00E-13,  avg # of iterations =  4.2

     total cpu time spent up to now is    12497.0 secs

     total energy              =    -821.67576110 Ry
     Harris-Foulkes estimate   =    -821.67576110 Ry
     estimated scf accuracy    <          2.5E-10 Ry

     iteration # 26     ecut=    50.00 Ry     beta= 0.60
     Davidson diagonalization with overlap
     ethr =  2.90E-13,  avg # of iterations =  3.9

     total cpu time spent up to now is    12585.2 secs

     total energy              =    -821.67576110 Ry
     Harris-Foulkes estimate   =    -821.67576110 Ry
     estimated scf accuracy    <          7.6E-10 Ry

     iteration # 27     ecut=    50.00 Ry     beta= 0.60
     Davidson diagonalization with overlap
     ethr =  2.90E-13,  avg # of iterations =  3.3

     total cpu time spent up to now is    12659.0 secs

     End of self-consistent calculation

     Number of k-points >= 100: set verbosity='high' to print the bands.

     the Fermi energy is    15.9725 ev

!    total energy              =    -821.67576110 Ry
     Harris-Foulkes estimate   =    -821.67576110 Ry
     estimated scf accuracy    <          2.2E-11 Ry

     The total energy is the sum of the following terms:

     one-electron contribution =    -188.33777968 Ry
     hartree contribution      =     133.12387701 Ry
     xc contribution           =    -117.36833547 Ry
     ewald contribution        =    -649.09223207 Ry
     smearing contrib. (-TS)   =      -0.00129088 Ry

     convergence has been achieved in  27 iterations

     Forces acting on atoms (cartesian axes, Ry/au):

     atom    1 type  2   force =     0.00238833   -0.00238833   -0.01060753
     atom    2 type  2   force =    -0.00536640    0.00536640    0.00045653
     atom    3 type  1   force =     0.00040067   -0.00040067    0.00274742
     atom    4 type  2   force =     0.00283058   -0.00283058    0.00817906
     atom    5 type  1   force =    -0.00706660    0.00706660    0.00426687
     atom    6 type  1   force =    -0.00156132    0.00156132   -0.00848259
     atom    7 type  1   force =     0.00837474   -0.00837474    0.00344023

     Total force =     0.024891     Total SCF correction =     0.000017


     Computing stress (Cartesian axis) and pressure

          total   stress  (Ry/bohr**3)                   (kbar)     P=   -5.50
  -0.00003217   0.00002318  -0.00000199         -4.73      3.41     -0.29
   0.00002318  -0.00003217   0.00000199          3.41     -4.73      0.29
  -0.00000199   0.00000199  -0.00004780         -0.29      0.29     -7.03


     number of scf cycles    =   4
     number of bfgs steps    =   3

     enthalpy old            =    -821.6694744526 Ry
     enthalpy new            =    -821.6757611028 Ry

     CASE: enthalpy_new < enthalpy_old

     new trust radius        =       0.0111109125 bohr
     new conv_thr            =            1.0E-10 Ry

     new unit-cell volume =    833.46483 a.u.^3 (   123.50674 Ang^3 )
     density =      6.92718 g/cm^3

CELL_PARAMETERS (alat=  1.88972599)
   4.919158469  -1.629485253  -1.639225690
   1.629485253  -4.919158469  -1.639225690
  -1.636221605   1.636221605  -4.913919568

ATOMIC_POSITIONS (angstrom)
Ti       0.003633178  -0.003633178  -3.304558694
Ti       4.899188733  -4.899188733  -4.916711768
Nb       3.275765945  -3.275765945  -3.262828347
Ti       1.647048364  -1.647048364  -1.613794692
Nb       4.894755810  -4.894755810  -8.179124462
Nb       3.267802774  -3.267802774  -6.573327414
Nb       1.661493664  -1.661493664  -4.919138412


     NEW-OLD atomic charge density approx. for the potential
     extrapolated charge   87.71589, renormalised to   88.00000

     total cpu time spent up to now is    12697.1 secs

     Self-consistent Calculation

     iteration #  1     ecut=    50.00 Ry     beta= 0.60
     Davidson diagonalization with overlap
     ethr =  1.00E-06,  avg # of iterations =  4.7

     total cpu time spent up to now is    12841.7 secs

     total energy              =    -821.67051221 Ry
     Harris-Foulkes estimate   =    -822.10948523 Ry
     estimated scf accuracy    <       0.00533337 Ry

     iteration #  2     ecut=    50.00 Ry     beta= 0.60
     Davidson diagonalization with overlap
     c_bands:  1 eigenvalues not converged
     c_bands:  1 eigenvalues not converged
     c_bands:  1 eigenvalues not converged
     c_bands:  1 eigenvalues not converged
     ethr =  6.06E-06,  avg # of iterations =  5.7

     total cpu time spent up to now is    12975.8 secs

     total energy              =    -821.66863023 Ry
     Harris-Foulkes estimate   =    -821.68727743 Ry
     estimated scf accuracy    <       0.11254367 Ry

     iteration #  3     ecut=    50.00 Ry     beta= 0.60
     Davidson diagonalization with overlap
     ethr =  6.06E-06,  avg # of iterations =  5.1

     total cpu time spent up to now is    13091.8 secs

     total energy              =    -821.67579295 Ry
     Harris-Foulkes estimate   =    -821.67772315 Ry
     estimated scf accuracy    <       0.00629138 Ry

     iteration #  4     ecut=    50.00 Ry     beta= 0.60
     Davidson diagonalization with overlap
     c_bands:  1 eigenvalues not converged
     ethr =  6.06E-06,  avg # of iterations =  5.5

     total cpu time spent up to now is    13183.4 secs

     total energy              =    -821.67613994 Ry
     Harris-Foulkes estimate   =    -821.67726883 Ry
     estimated scf accuracy    <       0.01002296 Ry

     iteration #  5     ecut=    50.00 Ry     beta= 0.60
     Davidson diagonalization with overlap
     ethr =  6.06E-06,  avg # of iterations =  1.0

     total cpu time spent up to now is    13246.9 secs

     total energy              =    -821.67651401 Ry
     Harris-Foulkes estimate   =    -821.67657408 Ry
     estimated scf accuracy    <       0.00193950 Ry

     iteration #  6     ecut=    50.00 Ry     beta= 0.60
     Davidson diagonalization with overlap
     ethr =  2.20E-06,  avg # of iterations =  3.8

     total cpu time spent up to now is    13321.6 secs

     total energy              =    -821.67645127 Ry
     Harris-Foulkes estimate   =    -821.67658506 Ry
     estimated scf accuracy    <       0.00141744 Ry

     iteration #  7     ecut=    50.00 Ry     beta= 0.60
     Davidson diagonalization with overlap
     ethr =  1.61E-06,  avg # of iterations =  1.8

     total cpu time spent up to now is    13386.9 secs

     total energy              =    -821.67638445 Ry
     Harris-Foulkes estimate   =    -821.67648668 Ry
     estimated scf accuracy    <       0.00093322 Ry

     iteration #  8     ecut=    50.00 Ry     beta= 0.60
     Davidson diagonalization with overlap
     ethr =  1.06E-06,  avg # of iterations =  2.6

     total cpu time spent up to now is    13456.3 secs

     total energy              =    -821.67636703 Ry
     Harris-Foulkes estimate   =    -821.67642698 Ry
     estimated scf accuracy    <       0.00039444 Ry

     iteration #  9     ecut=    50.00 Ry     beta= 0.60
[...]
     c_bands:  1 eigenvalues not converged
     c_bands:  2 eigenvalues not converged
     c_bands:  2 eigenvalues not converged
     c_bands:  2 eigenvalues not converged
     c_bands:  2 eigenvalues not converged
     c_bands:  1 eigenvalues not converged
     c_bands:  2 eigenvalues not converged
     c_bands:  1 eigenvalues not converged
     c_bands:  1 eigenvalues not converged
     c_bands:  2 eigenvalues not converged
     c_bands:  1 eigenvalues not converged
     c_bands:  1 eigenvalues not converged
     c_bands:  1 eigenvalues not converged
     c_bands:  1 eigenvalues not converged
     c_bands:  1 eigenvalues not converged
     c_bands:  1 eigenvalues not converged
     c_bands:  1 eigenvalues not converged
     c_bands:  2 eigenvalues not converged
     c_bands:  1 eigenvalues not converged
     c_bands:  2 eigenvalues not converged
     c_bands:  1 eigenvalues not converged
     c_bands:  1 eigenvalues not converged
     c_bands:  1 eigenvalues not converged
     c_bands:  1 eigenvalues not converged
     c_bands:  1 eigenvalues not converged
     c_bands:  1 eigenvalues not converged
     c_bands:  1 eigenvalues not converged
     c_bands:  1 eigenvalues not converged
     c_bands:  1 eigenvalues not converged
     c_bands:  1 eigenvalues not converged
     c_bands:  3 eigenvalues not converged
     c_bands:  2 eigenvalues not converged
     c_bands:  2 eigenvalues not converged
     c_bands:  1 eigenvalues not converged
     c_bands:  1 eigenvalues not converged
     c_bands:  1 eigenvalues not converged
     c_bands:  2 eigenvalues not converged
     c_bands:  1 eigenvalues not converged
     c_bands:  2 eigenvalues not converged
     c_bands:  2 eigenvalues not converged
     c_bands:  1 eigenvalues not converged
     c_bands:  1 eigenvalues not converged
     c_bands:  1 eigenvalues not converged
     c_bands:  1 eigenvalues not converged
     c_bands:  2 eigenvalues not converged
     c_bands:  2 eigenvalues not converged
     c_bands:  2 eigenvalues not converged
     c_bands:  3 eigenvalues not converged
     c_bands:  1 eigenvalues not converged
     c_bands:  1 eigenvalues not converged
     c_bands:  1 eigenvalues not converged
     c_bands:  1 eigenvalues not converged
     c_bands:  1 eigenvalues not converged
     c_bands:  1 eigenvalues not converged
     c_bands:  1 eigenvalues not converged
     c_bands:  1 eigenvalues not converged
     c_bands:  1 eigenvalues not converged
     c_bands:  1 eigenvalues not converged
     c_bands:  1 eigenvalues not converged
     c_bands:  1 eigenvalues not converged
     c_bands:  1 eigenvalues not converged
     c_bands:  1 eigenvalues not converged
     c_bands:  1 eigenvalues not converged
     c_bands:  1 eigenvalues not converged
     c_bands:  1 eigenvalues not converged
     c_bands:  1 eigenvalues not converged
     c_bands:  2 eigenvalues not converged
     c_bands:  1 eigenvalues not converged
     c_bands:  1 eigenvalues not converged
     c_bands:  1 eigenvalues not converged
     c_bands:  1 eigenvalues not converged
     c_bands:  1 eigenvalues not converged
     c_bands:  1 eigenvalues not converged
     c_bands:  1 eigenvalues not converged
     c_bands:  1 eigenvalues not converged
     c_bands:  1 eigenvalues not converged
     c_bands:  1 eigenvalues not converged
     ethr =  1.00E-06,  avg # of iterations = 16.8

     total cpu time spent up to now is    46697.5 secs

     total energy              =    -802.21983397 Ry
     Harris-Foulkes estimate   =    -824.66832155 Ry
     estimated scf accuracy    <      28.29554168 Ry

     iteration #  2     ecut=    50.00 Ry     beta= 0.60
     Davidson diagonalization with overlap
     ethr =  1.00E-02,  avg # of iterations =  5.2

     total cpu time spent up to now is    46807.6 secs

     total energy              =    -811.55875956 Ry
     Harris-Foulkes estimate   =    -851.10384495 Ry
     estimated scf accuracy    <     118.02291779 Ry

     iteration #  3     ecut=    50.00 Ry     beta= 0.60
     Davidson diagonalization with overlap
     ethr =  1.00E-02,  avg # of iterations =  3.5

     total cpu time spent up to now is    46887.6 secs

     total energy              =    -822.44150085 Ry
     Harris-Foulkes estimate   =    -825.74194126 Ry
     estimated scf accuracy    <      21.70614062 Ry

     iteration #  4     ecut=    50.00 Ry     beta= 0.60
     Davidson diagonalization with overlap
     ethr =  1.00E-02,  avg # of iterations =  2.0

     total cpu time spent up to now is    46941.0 secs

     total energy              =    -822.55469377 Ry
     Harris-Foulkes estimate   =    -823.35688325 Ry
     estimated scf accuracy    <      10.44509975 Ry

     iteration #  5     ecut=    50.00 Ry     beta= 0.60
     Davidson diagonalization with overlap
     ethr =  1.00E-02,  avg # of iterations =  1.0

     total cpu time spent up to now is    46990.5 secs

     total energy              =    -822.34620249 Ry
     Harris-Foulkes estimate   =    -822.65874861 Ry
     estimated scf accuracy    <       7.92995337 Ry

     iteration #  6     ecut=    50.00 Ry     beta= 0.60
     Davidson diagonalization with overlap
     ethr =  9.01E-03,  avg # of iterations =  1.0

     total cpu time spent up to now is    47039.9 secs

     total energy              =    -821.71690947 Ry
     Harris-Foulkes estimate   =    -822.39304776 Ry
     estimated scf accuracy    <       6.67303588 Ry

     iteration #  7     ecut=    50.00 Ry     beta= 0.60
     Davidson diagonalization with overlap
     ethr =  7.58E-03,  avg # of iterations =  1.4

     total cpu time spent up to now is    47091.2 secs

     total energy              =    -820.80490628 Ry
     Harris-Foulkes estimate   =    -821.83482939 Ry
     estimated scf accuracy    <       3.84049428 Ry

     iteration #  8     ecut=    50.00 Ry     beta= 0.60
     Davidson diagonalization with overlap
     ethr =  4.36E-03,  avg # of iterations =  4.1

     total cpu time spent up to now is    47173.1 secs

     total energy              =    -821.94116144 Ry
     Harris-Foulkes estimate   =    -821.99161701 Ry
     estimated scf accuracy    <       5.27374423 Ry

     iteration #  9     ecut=    50.00 Ry     beta= 0.60
     Davidson diagonalization with overlap
     ethr =  4.36E-03,  avg # of iterations =  1.0

     total cpu time spent up to now is    47222.7 secs

     total energy              =    -821.77221537 Ry
     Harris-Foulkes estimate   =    -821.99765933 Ry
     estimated scf accuracy    <       4.68913656 Ry

     iteration # 10     ecut=    50.00 Ry     beta= 0.60
     Davidson diagonalization with overlap
     ethr =  4.36E-03,  avg # of iterations =  1.0

     total cpu time spent up to now is    47272.2 secs

     total energy              =    -821.63894311 Ry
     Harris-Foulkes estimate   =    -821.83520912 Ry
     estimated scf accuracy    <       3.14573150 Ry

     iteration # 11     ecut=    50.00 Ry     beta= 0.60
     Davidson diagonalization with overlap
     ethr =  3.57E-03,  avg # of iterations =  1.0

     total cpu time spent up to now is    47321.8 secs

     total energy              =    -821.63889032 Ry
     Harris-Foulkes estimate   =    -821.70396019 Ry
     estimated scf accuracy    <       1.30151252 Ry

     iteration # 12     ecut=    50.00 Ry     beta= 0.60
     Davidson diagonalization with overlap
     ethr =  1.48E-03,  avg # of iterations =  1.1

     total cpu time spent up to now is    47371.6 secs

     total energy              =    -821.61549513 Ry
     Harris-Foulkes estimate   =    -821.66514907 Ry
     estimated scf accuracy    <       0.52186757 Ry

     iteration # 13     ecut=    50.00 Ry     beta= 0.60
     Davidson diagonalization with overlap
     ethr =  5.93E-04,  avg # of iterations =  4.8

     total cpu time spent up to now is    47442.3 secs

     total energy              =    -821.67540902 Ry
     Harris-Foulkes estimate   =    -821.67728853 Ry
     estimated scf accuracy    <       0.01321639 Ry

     iteration # 14     ecut=    50.00 Ry     beta= 0.60
     Davidson diagonalization with overlap
     ethr =  1.50E-05,  avg # of iterations =  6.7

     total cpu time spent up to now is    47545.0 secs

     total energy              =    -821.67516969 Ry
     Harris-Foulkes estimate   =    -821.68160100 Ry
     estimated scf accuracy    <       0.03810554 Ry

     iteration # 15     ecut=    50.00 Ry     beta= 0.60
     Davidson diagonalization with overlap
     ethr =  1.50E-05,  avg # of iterations =  3.9

     total cpu time spent up to now is    47613.9 secs

     total energy              =    -821.67791811 Ry
     Harris-Foulkes estimate   =    -821.67839986 Ry
     estimated scf accuracy    <       0.00293259 Ry

     iteration # 16     ecut=    50.00 Ry     beta= 0.60
     Davidson diagonalization with overlap
     ethr =  3.33E-06,  avg # of iterations =  4.5

     total cpu time spent up to now is    47681.9 secs

     total energy              =    -821.67808790 Ry
     Harris-Foulkes estimate   =    -821.67825614 Ry
     estimated scf accuracy    <       0.00079208 Ry

     iteration # 17     ecut=    50.00 Ry     beta= 0.60
     Davidson diagonalization with overlap
     ethr =  9.00E-07,  avg # of iterations =  3.2

     total cpu time spent up to now is    47746.2 secs

     total energy              =    -821.67813495 Ry
     Harris-Foulkes estimate   =    -821.67824098 Ry
     estimated scf accuracy    <       0.00039418 Ry

     iteration # 18     ecut=    50.00 Ry     beta= 0.60
     Davidson diagonalization with overlap
     ethr =  4.48E-07,  avg # of iterations =  3.3

     total cpu time spent up to now is    47813.0 secs

     total energy              =    -821.67816049 Ry
     Harris-Foulkes estimate   =    -821.67823836 Ry
     estimated scf accuracy    <       0.00038881 Ry

     iteration # 19     ecut=    50.00 Ry     beta= 0.60
     Davidson diagonalization with overlap
     ethr =  4.42E-07,  avg # of iterations =  2.3

     total cpu time spent up to now is    47867.3 secs

     total energy              =    -821.67819768 Ry
     Harris-Foulkes estimate   =    -821.67820052 Ry
     estimated scf accuracy    <       0.00002027 Ry

     iteration # 20     ecut=    50.00 Ry     beta= 0.60
     Davidson diagonalization with overlap
     ethr =  2.30E-08,  avg # of iterations =  4.2

     total cpu time spent up to now is    47945.3 secs

     total energy              =    -821.67820375 Ry
     Harris-Foulkes estimate   =    -821.67820848 Ry
     estimated scf accuracy    <       0.00006164 Ry

     iteration # 21     ecut=    50.00 Ry     beta= 0.60
     Davidson diagonalization with overlap
     ethr =  2.30E-08,  avg # of iterations =  1.0

     total cpu time spent up to now is    47995.0 secs

     total energy              =    -821.67819860 Ry
     Harris-Foulkes estimate   =    -821.67820512 Ry
     estimated scf accuracy    <       0.00002917 Ry

     iteration # 22     ecut=    50.00 Ry     beta= 0.60
     Davidson diagonalization with overlap
     ethr =  2.30E-08,  avg # of iterations =  3.9

     total cpu time spent up to now is    48065.2 secs

     total energy              =    -821.67820285 Ry
     Harris-Foulkes estimate   =    -821.67820476 Ry
     estimated scf accuracy    <       0.00001316 Ry

     iteration # 23     ecut=    50.00 Ry     beta= 0.60
     Davidson diagonalization with overlap
     ethr =  1.50E-08,  avg # of iterations =  1.0

     total cpu time spent up to now is    48114.6 secs

     total energy              =    -821.67820310 Ry
     Harris-Foulkes estimate   =    -821.67820349 Ry
     estimated scf accuracy    <       0.00000240 Ry

     iteration # 24     ecut=    50.00 Ry     beta= 0.60
     Davidson diagonalization with overlap
     ethr =  2.73E-09,  avg # of iterations =  3.9

     total cpu time spent up to now is    48187.2 secs

     total energy              =    -821.67820358 Ry
     Harris-Foulkes estimate   =    -821.67820367 Ry
     estimated scf accuracy    <       0.00000059 Ry

     iteration # 25     ecut=    50.00 Ry     beta= 0.60
     Davidson diagonalization with overlap
     ethr =  6.67E-10,  avg # of iterations =  1.3

     total cpu time spent up to now is    48237.5 secs

     total energy              =    -821.67820360 Ry
     Harris-Foulkes estimate   =    -821.67820361 Ry
     estimated scf accuracy    <       0.00000018 Ry

     iteration # 26     ecut=    50.00 Ry     beta= 0.60
     Davidson diagonalization with overlap
     ethr =  2.00E-10,  avg # of iterations =  3.2

     total cpu time spent up to now is    48299.8 secs

     total energy              =    -821.67820361 Ry
     Harris-Foulkes estimate   =    -821.67820362 Ry
     estimated scf accuracy    <       0.00000005 Ry

     iteration # 27     ecut=    50.00 Ry     beta= 0.60
     Davidson diagonalization with overlap
     ethr =  5.35E-11,  avg # of iterations =  2.6

     total cpu time spent up to now is    48358.4 secs

     total energy              =    -821.67820361 Ry
     Harris-Foulkes estimate   =    -821.67820361 Ry
     estimated scf accuracy    <       0.00000002 Ry

     iteration # 28     ecut=    50.00 Ry     beta= 0.60
     Davidson diagonalization with overlap
     ethr =  1.75E-11,  avg # of iterations =  3.8

     total cpu time spent up to now is    48427.0 secs

     total energy              =    -821.67820361 Ry
     Harris-Foulkes estimate   =    -821.67820361 Ry
     estimated scf accuracy    <          3.7E-09 Ry

     iteration # 29     ecut=    50.00 Ry     beta= 0.60
     Davidson diagonalization with overlap
     ethr =  4.24E-12,  avg # of iterations =  2.0

     total cpu time spent up to now is    48483.2 secs

     total energy              =    -821.67820361 Ry
     Harris-Foulkes estimate   =    -821.67820361 Ry
     estimated scf accuracy    <          4.6E-10 Ry

     iteration # 30     ecut=    50.00 Ry     beta= 0.60
     Davidson diagonalization with overlap
     ethr =  5.25E-13,  avg # of iterations =  3.9

     total cpu time spent up to now is    48552.1 secs

     total energy              =    -821.67820361 Ry
     Harris-Foulkes estimate   =    -821.67820361 Ry
     estimated scf accuracy    <          2.8E-10 Ry

     iteration # 31     ecut=    50.00 Ry     beta= 0.60
     Davidson diagonalization with overlap
     ethr =  3.13E-13,  avg # of iterations =  2.6

     total cpu time spent up to now is    48606.8 secs

     total energy              =    -821.67820361 Ry
     Harris-Foulkes estimate   =    -821.67820361 Ry
     estimated scf accuracy    <          1.0E-10 Ry

     iteration # 32     ecut=    50.00 Ry     beta= 0.60
     Davidson diagonalization with overlap
     ethr =  1.16E-13,  avg # of iterations =  3.5

     total cpu time spent up to now is    48679.1 secs

     total energy              =    -821.67820361 Ry
     Harris-Foulkes estimate   =    -821.67820361 Ry
     estimated scf accuracy    <          1.5E-10 Ry

     iteration # 33     ecut=    50.00 Ry     beta= 0.60
     Davidson diagonalization with overlap
     ethr =  1.16E-13,  avg # of iterations =  2.1

     total cpu time spent up to now is    48741.7 secs

     total energy              =    -821.67820361 Ry
     Harris-Foulkes estimate   =    -821.67820361 Ry
     estimated scf accuracy    <          2.1E-11 Ry

     iteration # 34     ecut=    50.00 Ry     beta= 0.60
     Davidson diagonalization with overlap
     ethr =  1.00E-13,  avg # of iterations =  1.1

     total cpu time spent up to now is    48791.4 secs

     End of self-consistent calculation

     Number of k-points >= 100: set verbosity='high' to print the bands.

     the Fermi energy is    16.0013 ev

!    total energy              =    -821.67820361 Ry
     Harris-Foulkes estimate   =    -821.67820361 Ry
     estimated scf accuracy    <          1.2E-12 Ry

     The total energy is the sum of the following terms:

     one-electron contribution =    -188.60104281 Ry
     hartree contribution      =     133.36004669 Ry
     xc contribution           =    -117.39640136 Ry
     ewald contribution        =    -649.04114739 Ry
     smearing contrib. (-TS)   =       0.00034126 Ry

     convergence has been achieved in  34 iterations

     Forces acting on atoms (cartesian axes, Ry/au):

     atom    1 type  2   force =    -0.00000026    0.00000026   -0.00000835
     atom    2 type  2   force =     0.00000920   -0.00000920   -0.00000197
     atom    3 type  1   force =    -0.00000277    0.00000277    0.00001303
     atom    4 type  2   force =     0.00000129   -0.00000129    0.00004281
     atom    5 type  1   force =    -0.00000196    0.00000196    0.00001014
     atom    6 type  1   force =    -0.00001417    0.00001417   -0.00001632
     atom    7 type  1   force =     0.00000869   -0.00000869   -0.00003934

     Total force =     0.000069     Total SCF correction =     0.000004


     Computing stress (Cartesian axis) and pressure

          total   stress  (Ry/bohr**3)                   (kbar)     P=   -1.00
  -0.00000683  -0.00000015   0.00000004         -1.00     -0.02      0.01
  -0.00000015  -0.00000683  -0.00000004         -0.02     -1.00     -0.01
   0.00000004  -0.00000004  -0.00000666          0.01     -0.01     -0.98

 
     init_run     :     66.69s CPU     67.81s WALL (       2 calls)
     electrons    :  46340.16s CPU  47720.28s WALL (      27 calls)
     update_pot   :     60.50s CPU     60.69s WALL (      25 calls)
     forces       :    229.49s CPU    234.43s WALL (      27 calls)
     stress       :    682.78s CPU    695.98s WALL (      27 calls)

     Called by init_run:
     wfcinit      :     62.67s CPU     63.57s WALL (       2 calls)
     potinit      :      1.24s CPU      1.26s WALL (       2 calls)
     hinit0       :      2.16s CPU      2.18s WALL (       2 calls)

     Called by electrons:
     c_bands      :  39828.29s CPU  40884.46s WALL (     578 calls)
     sum_band     :   6266.64s CPU   6411.66s WALL (     578 calls)
     v_of_rho     :     40.99s CPU     41.20s WALL (     590 calls)
     newd         :    207.29s CPU    290.14s WALL (     590 calls)
     mix_rho      :      5.04s CPU      5.08s WALL (     578 calls)

     Called by c_bands:
     init_us_2    :    521.14s CPU    522.57s WALL (  443592 calls)
     cegterg      :  36305.78s CPU  36694.39s WALL (  211548 calls)

     Called by sum_band:
     sum_band:bec :     13.42s CPU     13.87s WALL (  211548 calls)
     addusdens    :    243.34s CPU    317.83s WALL (     578 calls)

     Called by *egterg:
     h_psi        :  24614.82s CPU  24943.39s WALL (  854947 calls)
     s_psi        :   1408.92s CPU   1413.93s WALL (  854947 calls)
     g_psi        :    209.36s CPU    207.90s WALL (  642667 calls)
     cdiaghg      :   4532.71s CPU   4543.23s WALL (  839575 calls)

     Called by h_psi:
     h_psi:pot    :  24505.64s CPU  24830.17s WALL (  854947 calls)
     h_psi:calbec :   1626.13s CPU   1640.44s WALL (  854947 calls)
     vloc_psi     :  21457.37s CPU  21760.68s WALL (  854947 calls)
     add_vuspsi   :   1418.16s CPU   1423.86s WALL (  854947 calls)

     General routines
     calbec       :   2363.44s CPU   2382.65s WALL ( 1115905 calls)
     fft          :     26.27s CPU     26.72s WALL (    8358 calls)
     ffts         :      0.84s CPU      0.85s WALL (    1168 calls)
     fftw         :  23620.05s CPU  23896.39s WALL (67253342 calls)
     interpolate  :      2.23s CPU      2.24s WALL (     590 calls)
 
     Parallel routines
     fft_scatt_xy :   4517.19s CPU   4578.90s WALL (67262868 calls)
     fft_scatt_yz :   4141.66s CPU   4193.94s WALL (67262868 calls)
 
     PWSCF        :    13h 9m CPU        9h13m WALL

      34h
 
   This run was terminated on:   6:30:17   6Feb2020            

=------------------------------------------------------------------------------=
   JOB DONE.
=------------------------------------------------------------------------------=
