
     Program PWSCF v.6.3MaX starts on 24Jan2020 at  9:32:36 

     This program is part of the open-source Quantum ESPRESSO suite
     for quantum simulation of materials; please cite
         "P. Giannozzi et al., J. Phys.:Condens. Matter 21 395502 (2009);
         "P. Giannozzi et al., J. Phys.:Condens. Matter 29 465901 (2017);
          URL http://www.quantum-espresso.org", 
     in publications or presentations arising from this work. More details at
     http://www.quantum-espresso.org/quote

     Parallel version (MPI), running on     4 processors

     MPI processes distributed on     1 nodes
     R & G space division:  proc/nbgrp/npool/nimage =       4
     Waiting for input...
     Reading input from standard input

     Current dimensions of program PWSCF are:
     Max number of different atomic species (ntypx) = 10
     Max number of k-points (npk) =  40000
     Max angular momentum in pseudopotentials (lmaxx) =  3
     Message from routine iosys:
     minimal I/O required, wf_collect reset to FALSE

     Subspace diagonalization in iterative solution of the eigenvalue problem:
     a serial algorithm will be used

 
     Parallelization info
     --------------------
     sticks:   dense  smooth     PW     G-vecs:    dense   smooth      PW
     Min         228      91     28                27310     6922    1177
     Max         229      92     31                27335     6930    1184
     Sum         913     367    121               109271    27707    4719
 


     bravais-lattice index     =            0
     lattice parameter (alat)  =       1.8897  a.u.
     unit-cell volume          =     808.3427 (a.u.)^3
     number of atoms/cell      =            6
     number of atomic types    =            2
     number of electrons       =        73.00
     number of Kohn-Sham states=           44
     kinetic-energy cutoff     =      40.0000  Ry
     charge density cutoff     =     400.0000  Ry
     convergence threshold     =      1.0E-10
     mixing beta               =       0.6000
     number of iterations used =            8  plain     mixing
     Exchange-correlation      = SLA PW PBE PBE ( 1  4  3  4 0 0)
     nstep                     =           50


     celldm(1)=   1.889726  celldm(2)=   0.000000  celldm(3)=   0.000000
     celldm(4)=   0.000000  celldm(5)=   0.000000  celldm(6)=   0.000000

     crystal axes: (cart. coord. in units of alat)
               a(1) = (  -1.522502  -2.637051   0.000000 )  
               a(2) = (   3.045004   0.000000   0.000000 )  
               a(3) = (   0.000000   0.000000  14.917383 )  

     reciprocal axes: (cart. coord. in units 2 pi/alat)
               b(1) = (  0.000000 -0.379211  0.000000 )  
               b(2) = (  0.328407 -0.189606  0.000000 )  
               b(3) = (  0.000000  0.000000  0.067036 )  


     PseudoPot. # 1 for Nb read from file:
     ./Nb.pbe-nsp-van.UPF
     MD5 check sum: 0a22fc7fb0ba19a08ca5db297a5d2854
     Pseudo is Ultrasoft + core correction, Zval = 13.0
     Generated by new atomic code, or converted to UPF format
     Using radial grid of  887 points,  6 beta functions with: 
                l(1) =   0
                l(2) =   0
                l(3) =   1
                l(4) =   1
                l(5) =   2
                l(6) =   2
     Q(r) pseudized with  6 coefficients,  rinner =    1.000   1.000   1.000
                                                       1.000   1.000

     PseudoPot. # 2 for Ti read from file:
     ./Ti.pbe-sp-van_ak.UPF
     MD5 check sum: f98fea3e8887528921fefa5636a534ca
     Pseudo is Ultrasoft, Zval = 12.0
     Generated by new atomic code, or converted to UPF format
     Using radial grid of  851 points,  6 beta functions with: 
                l(1) =   0
                l(2) =   0
                l(3) =   1
                l(4) =   1
                l(5) =   2
                l(6) =   2
     Q(r) pseudized with  8 coefficients,  rinner =    1.000   1.000   1.000
                                                       1.000   1.000

     atomic species   valence    mass     pseudopotential
        Nb            13.00    92.90638     Nb( 1.00)
        Ti            12.00    47.86700     Ti( 1.00)

     12 Sym. Ops. (no inversion) found ( 6 have fractional translation)



   Cartesian axes

     site n.     atom                  positions (alat units)
         1           Ti  tau(   1) = (   1.5225021  -2.6370512   4.9724614  )
         2           Ti  tau(   2) = (   0.0000015  -1.7580350   2.4862307  )
         3           Ti  tau(   3) = (   1.5225021  -2.6370512   9.9449228  )
         4           Ti  tau(   4) = (   0.0000015  -1.7580350   7.4586921  )
         5           Ti  tau(   5) = (   1.5225021  -2.6370512  14.9173841  )
         6           Nb  tau(   6) = (   0.0000015  -1.7580350  12.4311534  )

     number of k points=   120  Marzari-Vanderbilt smearing, width (Ry)=  0.0200

     Number of k-points >= 100: set verbosity='high' to print them.

     Dense  grid:   109271 G-vectors     FFT dimensions: (  40,  40, 180)

     Smooth grid:    27707 G-vectors     FFT dimensions: (  24,  24, 120)

     Estimated max dynamical RAM per process >     174.94 MB

     Estimated total dynamical RAM >     699.78 MB

     Initial potential from superposition of free atoms

     starting charge   67.99705, renormalised to   73.00000
     Starting wfcs are   63 randomized atomic wfcs

     total cpu time spent up to now is        7.2 secs

     Self-consistent Calculation

     iteration #  1     ecut=    40.00 Ry     beta= 0.60
     Davidson diagonalization with overlap
     ethr =  1.00E-02,  avg # of iterations =  4.6

     total cpu time spent up to now is       23.9 secs

     total energy              =    -234.04641110 Ry
     Harris-Foulkes estimate   =    -723.58164652 Ry
     estimated scf accuracy    <     588.12297129 Ry

     iteration #  2     ecut=    40.00 Ry     beta= 0.60
     Davidson diagonalization with overlap
     c_bands:  5 eigenvalues not converged
     c_bands:  5 eigenvalues not converged
     c_bands:  5 eigenvalues not converged
     c_bands:  5 eigenvalues not converged
     c_bands:  4 eigenvalues not converged
     c_bands:  5 eigenvalues not converged
     c_bands:  4 eigenvalues not converged
     c_bands:  5 eigenvalues not converged
     c_bands:  4 eigenvalues not converged
     c_bands:  4 eigenvalues not converged
     c_bands:  2 eigenvalues not converged
     c_bands:  4 eigenvalues not converged
     c_bands:  3 eigenvalues not converged
     c_bands:  2 eigenvalues not converged
     c_bands:  3 eigenvalues not converged
     c_bands:  5 eigenvalues not converged
     c_bands:  5 eigenvalues not converged
     c_bands:  5 eigenvalues not converged
     c_bands:  3 eigenvalues not converged
     c_bands:  2 eigenvalues not converged
     c_bands:  2 eigenvalues not converged
     c_bands:  2 eigenvalues not converged
     c_bands:  4 eigenvalues not converged
     c_bands:  2 eigenvalues not converged
     c_bands:  5 eigenvalues not converged
     c_bands:  5 eigenvalues not converged
     c_bands:  4 eigenvalues not converged
     c_bands:  4 eigenvalues not converged
     c_bands:  3 eigenvalues not converged
     c_bands:  3 eigenvalues not converged
     c_bands:  3 eigenvalues not converged
     c_bands:  1 eigenvalues not converged
     c_bands:  2 eigenvalues not converged
     c_bands:  3 eigenvalues not converged
     c_bands:  4 eigenvalues not converged
     c_bands:  5 eigenvalues not converged
     c_bands:  5 eigenvalues not converged
     c_bands:  5 eigenvalues not converged
     c_bands:  3 eigenvalues not converged
     c_bands:  4 eigenvalues not converged
     c_bands:  3 eigenvalues not converged
     c_bands:  1 eigenvalues not converged
     c_bands:  2 eigenvalues not converged
     c_bands:  1 eigenvalues not converged
     c_bands:  5 eigenvalues not converged
     c_bands:  5 eigenvalues not converged
     c_bands:  3 eigenvalues not converged
     c_bands:  4 eigenvalues not converged
     c_bands:  5 eigenvalues not converged
     c_bands:  2 eigenvalues not converged
     c_bands:  5 eigenvalues not converged
     c_bands:  1 eigenvalues not converged
     c_bands:  1 eigenvalues not converged
     c_bands:  1 eigenvalues not converged
     c_bands:  2 eigenvalues not converged
     c_bands:  1 eigenvalues not converged
     c_bands:  2 eigenvalues not converged
     c_bands:  2 eigenvalues not converged
     c_bands:  2 eigenvalues not converged
     c_bands:  2 eigenvalues not converged
     c_bands:  3 eigenvalues not converged
     c_bands:  2 eigenvalues not converged
     c_bands:  1 eigenvalues not converged
     c_bands:  4 eigenvalues not converged
     c_bands:  1 eigenvalues not converged
     c_bands:  1 eigenvalues not converged
     c_bands:  2 eigenvalues not converged
     c_bands:  3 eigenvalues not converged
     c_bands:  2 eigenvalues not converged
     ethr =  1.00E-02,  avg # of iterations = 22.4

     total cpu time spent up to now is       96.7 secs

     total energy              =    -686.93148808 Ry
     Harris-Foulkes estimate   =   -2162.43598985 Ry
     estimated scf accuracy    <    5656.43088550 Ry

     iteration #  3     ecut=    40.00 Ry     beta= 0.60
     Davidson diagonalization with overlap
     ethr =  1.00E-02,  avg # of iterations =  7.2

     total cpu time spent up to now is      127.3 secs

     total energy              =    -752.72961933 Ry
     Harris-Foulkes estimate   =    -971.74847610 Ry
     estimated scf accuracy    <    1867.71378660 Ry

     iteration #  4     ecut=    40.00 Ry     beta= 0.60
     Davidson diagonalization with overlap
     ethr =  1.00E-02,  avg # of iterations =  8.6

     total cpu time spent up to now is      151.7 secs

     total energy              =    -741.57522997 Ry
     Harris-Foulkes estimate   =    -788.55861799 Ry
     estimated scf accuracy    <     761.68549482 Ry

     iteration #  5     ecut=    40.00 Ry     beta= 0.60
     Davidson diagonalization with overlap
     ethr =  1.00E-02,  avg # of iterations =  2.7

     total cpu time spent up to now is      162.1 secs

     total energy              =    -747.62963507 Ry
     Harris-Foulkes estimate   =    -742.22642050 Ry
     estimated scf accuracy    <     695.15588901 Ry

     iteration #  6     ecut=    40.00 Ry     beta= 0.60
     Davidson diagonalization with overlap
     ethr =  1.00E-02,  avg # of iterations =  1.0

     total cpu time spent up to now is      170.9 secs

     total energy              =    -756.96435467 Ry
     Harris-Foulkes estimate   =    -747.67375170 Ry
     estimated scf accuracy    <     702.27470061 Ry

     iteration #  7     ecut=    40.00 Ry     beta= 0.60
     Davidson diagonalization with overlap
     ethr =  1.00E-02,  avg # of iterations =  1.0

     total cpu time spent up to now is      179.7 secs

     total energy              =    -595.51590813 Ry
     Harris-Foulkes estimate   =    -756.98402288 Ry
     estimated scf accuracy    <     716.53403651 Ry

     iteration #  8     ecut=    40.00 Ry     beta= 0.60
     Davidson diagonalization with overlap
     ethr =  1.00E-02,  avg # of iterations =  8.8

     total cpu time spent up to now is      210.7 secs

     total energy              =    -819.91875291 Ry
     Harris-Foulkes estimate   =    -779.99658352 Ry
     estimated scf accuracy    <    1085.80210803 Ry

     iteration #  9     ecut=    40.00 Ry     beta= 0.60
     Davidson diagonalization with overlap
     ethr =  1.00E-02,  avg # of iterations =  9.9

     total cpu time spent up to now is      233.2 secs

     total energy              =    -609.46819017 Ry
     Harris-Foulkes estimate   =    -835.32462718 Ry
     estimated scf accuracy    <    2363.11978939 Ry

     iteration # 10     ecut=    40.00 Ry     beta= 0.60
     Davidson diagonalization with overlap
     ethr =  1.00E-02,  avg # of iterations =  8.3

     total cpu time spent up to now is      262.7 secs

     total energy              =    -790.73608320 Ry
     Harris-Foulkes estimate   =    -704.38231649 Ry
     estimated scf accuracy    <      45.32077042 Ry

     iteration # 11     ecut=    40.00 Ry     beta= 0.60
     Davidson diagonalization with overlap
     c_bands:  1 eigenvalues not converged
     c_bands:  4 eigenvalues not converged
     c_bands:  1 eigenvalues not converged
     ethr =  1.00E-02,  avg # of iterations = 14.1

     negative rho (up, down):  1.343E-06 0.000E+00

     total cpu time spent up to now is      301.6 secs

     total energy              =    -710.78724794 Ry
     Harris-Foulkes estimate   =   -1155.58580190 Ry
     estimated scf accuracy    <    4576.70895144 Ry

     iteration # 12     ecut=    40.00 Ry     beta= 0.60
     Davidson diagonalization with overlap
     c_bands:  3 eigenvalues not converged
     c_bands:  3 eigenvalues not converged
     ethr =  1.00E-02,  avg # of iterations = 12.5

     negative rho (up, down):  5.641E-03 0.000E+00

     total cpu time spent up to now is      333.9 secs

     total energy              =    -616.85069742 Ry
     Harris-Foulkes estimate   =    -775.28167404 Ry
     estimated scf accuracy    <    1012.87573085 Ry

     iteration # 13     ecut=    40.00 Ry     beta= 0.60
     Davidson diagonalization with overlap
     ethr =  1.00E-02,  avg # of iterations = 10.0

     negative rho (up, down):  1.332E-02 0.000E+00

     total cpu time spent up to now is      362.5 secs

     total energy              =    -724.17998502 Ry
     Harris-Foulkes estimate   =    -720.54846745 Ry
     estimated scf accuracy    <     219.31751744 Ry

     iteration # 14     ecut=    40.00 Ry     beta= 0.60
     Davidson diagonalization with overlap
     ethr =  1.00E-02,  avg # of iterations =  1.1

     negative rho (up, down):  6.395E-03 0.000E+00

     total cpu time spent up to now is      371.2 secs

     total energy              =    -734.60777446 Ry
     Harris-Foulkes estimate   =    -724.39471744 Ry
     estimated scf accuracy    <     233.82519405 Ry

     iteration # 15     ecut=    40.00 Ry     beta= 0.60
     Davidson diagonalization with overlap
     ethr =  1.00E-02,  avg # of iterations =  5.5

     negative rho (up, down):  2.765E-03 0.000E+00

     total cpu time spent up to now is      383.5 secs

     total energy              =    -718.33737487 Ry
     Harris-Foulkes estimate   =    -741.58702557 Ry
     estimated scf accuracy    <     526.08779601 Ry

     iteration # 16     ecut=    40.00 Ry     beta= 0.60
     Davidson diagonalization with overlap
     ethr =  1.00E-02,  avg # of iterations =  1.8

     negative rho (up, down):  1.721E-03 0.000E+00

     total cpu time spent up to now is      392.9 secs

     total energy              =    -719.53098819 Ry
     Harris-Foulkes estimate   =    -718.72829092 Ry
     estimated scf accuracy    <     456.09714631 Ry

     iteration # 17     ecut=    40.00 Ry     beta= 0.60
     Davidson diagonalization with overlap
     ethr =  1.00E-02,  avg # of iterations =  1.1

     total cpu time spent up to now is      401.7 secs

     total energy              =    -719.80716944 Ry
     Harris-Foulkes estimate   =    -719.58147365 Ry
     estimated scf accuracy    <     452.74752292 Ry

     iteration # 18     ecut=    40.00 Ry     beta= 0.60
     Davidson diagonalization with overlap
     ethr =  1.00E-02,  avg # of iterations =  1.1

     total cpu time spent up to now is      410.5 secs

     total energy              =    -689.92352339 Ry
     Harris-Foulkes estimate   =    -719.91171785 Ry
     estimated scf accuracy    <     435.62788733 Ry

     iteration # 19     ecut=    40.00 Ry     beta= 0.60
     Davidson diagonalization with overlap
     ethr =  1.00E-02,  avg # of iterations =  6.6

     total cpu time spent up to now is      430.6 secs

     total energy              =    -711.65685617 Ry
     Harris-Foulkes estimate   =    -706.52392300 Ry
     estimated scf accuracy    <     114.06095839 Ry

     iteration # 20     ecut=    40.00 Ry     beta= 0.60
     Davidson diagonalization with overlap
     ethr =  1.00E-02,  avg # of iterations =  1.4

     total cpu time spent up to now is      439.5 secs

     total energy              =    -691.58607394 Ry
     Harris-Foulkes estimate   =    -712.07721698 Ry
     estimated scf accuracy    <     158.05589518 Ry

     iteration # 21     ecut=    40.00 Ry     beta= 0.60
     Davidson diagonalization with overlap
     ethr =  1.00E-02,  avg # of iterations =  7.7

     negative rho (up, down):  1.481E-03 0.000E+00

     total cpu time spent up to now is      461.4 secs

     total energy              =    -702.25677240 Ry
     Harris-Foulkes estimate   =    -718.14243598 Ry
     estimated scf accuracy    <     215.21271374 Ry

     iteration # 22     ecut=    40.00 Ry     beta= 0.60
     Davidson diagonalization with overlap
     ethr =  1.00E-02,  avg # of iterations =  6.0

     total cpu time spent up to now is      481.4 secs

     total energy              =    -704.11241921 Ry
     Harris-Foulkes estimate   =    -733.66917819 Ry
     estimated scf accuracy    <     469.93637595 Ry

     iteration # 23     ecut=    40.00 Ry     beta= 0.60
     Davidson diagonalization with overlap
     ethr =  1.00E-02,  avg # of iterations =  4.7

     total cpu time spent up to now is      496.0 secs

     total energy              =    -710.04645313 Ry
     Harris-Foulkes estimate   =    -709.68205788 Ry
     estimated scf accuracy    <     256.80069640 Ry

     iteration # 24     ecut=    40.00 Ry     beta= 0.60
     Davidson diagonalization with overlap
     ethr =  1.00E-02,  avg # of iterations =  1.0

     total cpu time spent up to now is      504.7 secs

     total energy              =    -701.82071121 Ry
     Harris-Foulkes estimate   =    -710.07096106 Ry
     estimated scf accuracy    <     257.85441914 Ry

     iteration # 25     ecut=    40.00 Ry     beta= 0.60
     Davidson diagonalization with overlap
     ethr =  1.00E-02,  avg # of iterations =  4.5

     total cpu time spent up to now is      516.6 secs

     total energy              =    -702.42006341 Ry
     Harris-Foulkes estimate   =    -702.81126284 Ry
     estimated scf accuracy    <     131.93900898 Ry

     iteration # 26     ecut=    40.00 Ry     beta= 0.60
     Davidson diagonalization with overlap
     ethr =  1.00E-02,  avg # of iterations =  1.4

     total cpu time spent up to now is      525.5 secs

     total energy              =    -701.57850966 Ry
     Harris-Foulkes estimate   =    -702.48546402 Ry
     estimated scf accuracy    <     109.84167575 Ry

     iteration # 27     ecut=    40.00 Ry     beta= 0.60
     Davidson diagonalization with overlap
     ethr =  1.00E-02,  avg # of iterations =  1.5

     total cpu time spent up to now is      534.6 secs

     total energy              =    -696.39770600 Ry
     Harris-Foulkes estimate   =    -701.72357733 Ry
     estimated scf accuracy    <      67.18044221 Ry

     iteration # 28     ecut=    40.00 Ry     beta= 0.60
     Davidson diagonalization with overlap
     ethr =  1.00E-02,  avg # of iterations =  7.4

     total cpu time spent up to now is      555.8 secs

     total energy              =    -695.94478094 Ry
     Harris-Foulkes estimate   =    -705.31947285 Ry
     estimated scf accuracy    <     135.72792866 Ry

     iteration # 29     ecut=    40.00 Ry     beta= 0.60
     Davidson diagonalization with overlap
     ethr =  1.00E-02,  avg # of iterations =  7.6

     total cpu time spent up to now is      576.1 secs

     total energy              =    -700.99023014 Ry
     Harris-Foulkes estimate   =    -702.96037141 Ry
     estimated scf accuracy    <     110.69629639 Ry

     iteration # 30     ecut=    40.00 Ry     beta= 0.60
     Davidson diagonalization with overlap
     ethr =  1.00E-02,  avg # of iterations =  1.0

     total cpu time spent up to now is      584.8 secs

     total energy              =    -701.09556858 Ry
     Harris-Foulkes estimate   =    -701.52528219 Ry
     estimated scf accuracy    <      23.38957944 Ry

     iteration # 31     ecut=    40.00 Ry     beta= 0.60
     Davidson diagonalization with overlap
     ethr =  1.00E-02,  avg # of iterations =  1.3

     total cpu time spent up to now is      593.7 secs

     total energy              =    -700.52138229 Ry
     Harris-Foulkes estimate   =    -701.24370718 Ry
     estimated scf accuracy    <      24.54729298 Ry

     iteration # 32     ecut=    40.00 Ry     beta= 0.60
     Davidson diagonalization with overlap
     ethr =  1.00E-02,  avg # of iterations =  1.1

     total cpu time spent up to now is      602.5 secs

     total energy              =    -701.25633982 Ry
     Harris-Foulkes estimate   =    -701.14394512 Ry
     estimated scf accuracy    <       6.73464967 Ry

     iteration # 33     ecut=    40.00 Ry     beta= 0.60
     Davidson diagonalization with overlap
     ethr =  9.23E-03,  avg # of iterations =  1.3

     total cpu time spent up to now is      611.4 secs

     total energy              =    -700.99673973 Ry
     Harris-Foulkes estimate   =    -701.31472047 Ry
     estimated scf accuracy    <       7.63405999 Ry

     iteration # 34     ecut=    40.00 Ry     beta= 0.60
     Davidson diagonalization with overlap
     ethr =  9.23E-03,  avg # of iterations =  1.1

     total cpu time spent up to now is      620.2 secs

     total energy              =    -700.51279154 Ry
     Harris-Foulkes estimate   =    -701.06157770 Ry
     estimated scf accuracy    <       4.49916213 Ry

     iteration # 35     ecut=    40.00 Ry     beta= 0.60
     Davidson diagonalization with overlap
     ethr =  6.16E-03,  avg # of iterations =  5.3

     total cpu time spent up to now is      633.4 secs

     total energy              =    -701.27954600 Ry
     Harris-Foulkes estimate   =    -701.37690787 Ry
     estimated scf accuracy    <       7.19656187 Ry

     iteration # 36     ecut=    40.00 Ry     beta= 0.60
     Davidson diagonalization with overlap
     ethr =  6.16E-03,  avg # of iterations =  1.1

     total cpu time spent up to now is      642.2 secs

     total energy              =    -701.16665992 Ry
     Harris-Foulkes estimate   =    -701.32607111 Ry
     estimated scf accuracy    <       9.14389541 Ry

     iteration # 37     ecut=    40.00 Ry     beta= 0.60
     Davidson diagonalization with overlap
     ethr =  6.16E-03,  avg # of iterations =  1.0

     total cpu time spent up to now is      651.0 secs

     total energy              =    -701.14277468 Ry
     Harris-Foulkes estimate   =    -701.20683085 Ry
     estimated scf accuracy    <       5.16480938 Ry

     iteration # 38     ecut=    40.00 Ry     beta= 0.60
     Davidson diagonalization with overlap
     ethr =  6.16E-03,  avg # of iterations =  1.0

     total cpu time spent up to now is      659.7 secs

     total energy              =    -701.15209603 Ry
     Harris-Foulkes estimate   =    -701.16475583 Ry
     estimated scf accuracy    <       3.23903539 Ry

     iteration # 39     ecut=    40.00 Ry     beta= 0.60
     Davidson diagonalization with overlap
     ethr =  4.44E-03,  avg # of iterations =  1.0

     total cpu time spent up to now is      668.4 secs

     total energy              =    -701.13621832 Ry
     Harris-Foulkes estimate   =    -701.16192333 Ry
     estimated scf accuracy    <       2.47494715 Ry

     iteration # 40     ecut=    40.00 Ry     beta= 0.60
     Davidson diagonalization with overlap
     ethr =  3.39E-03,  avg # of iterations =  1.0

     total cpu time spent up to now is      677.1 secs

     total energy              =    -701.14792357 Ry
     Harris-Foulkes estimate   =    -701.14519807 Ry
     estimated scf accuracy    <       1.62141562 Ry

     iteration # 41     ecut=    40.00 Ry     beta= 0.60
     Davidson diagonalization with overlap
     ethr =  2.22E-03,  avg # of iterations =  1.0

     total cpu time spent up to now is      685.8 secs

     total energy              =    -701.06237757 Ry
     Harris-Foulkes estimate   =    -701.15195511 Ry
     estimated scf accuracy    <       1.98724126 Ry

     iteration # 42     ecut=    40.00 Ry     beta= 0.60
     Davidson diagonalization with overlap
     ethr =  2.22E-03,  avg # of iterations =  1.0

     total cpu time spent up to now is      694.6 secs

     total energy              =    -701.11061560 Ry
     Harris-Foulkes estimate   =    -701.12920672 Ry
     estimated scf accuracy    <       0.23648387 Ry

     iteration # 43     ecut=    40.00 Ry     beta= 0.60
     Davidson diagonalization with overlap
     ethr =  3.24E-04,  avg # of iterations =  3.9

     total cpu time spent up to now is      705.5 secs

     total energy              =    -701.12048467 Ry
     Harris-Foulkes estimate   =    -701.12389548 Ry
     estimated scf accuracy    <       0.05510656 Ry

     iteration # 44     ecut=    40.00 Ry     beta= 0.60
     Davidson diagonalization with overlap
     c_bands:  1 eigenvalues not converged
     c_bands:  1 eigenvalues not converged
     c_bands:  1 eigenvalues not converged
     c_bands:  2 eigenvalues not converged
     ethr =  7.55E-05,  avg # of iterations =  7.3

     total cpu time spent up to now is      719.4 secs

     total energy              =    -701.12298714 Ry
     Harris-Foulkes estimate   =    -701.12363154 Ry
     estimated scf accuracy    <       0.00755984 Ry

     iteration # 45     ecut=    40.00 Ry     beta= 0.60
     Davidson diagonalization with overlap
     c_bands:  2 eigenvalues not converged
     c_bands:  1 eigenvalues not converged
     c_bands:  2 eigenvalues not converged
     c_bands:  2 eigenvalues not converged
     c_bands:  1 eigenvalues not converged
     ethr =  1.04E-05,  avg # of iterations =  9.2

     total cpu time spent up to now is      737.5 secs

     total energy              =    -701.12381814 Ry
     Harris-Foulkes estimate   =    -701.12402237 Ry
     estimated scf accuracy    <       0.00143045 Ry

     iteration # 46     ecut=    40.00 Ry     beta= 0.60
     Davidson diagonalization with overlap
     c_bands:  1 eigenvalues not converged
     c_bands:  1 eigenvalues not converged
     c_bands:  1 eigenvalues not converged
     c_bands:  1 eigenvalues not converged
     c_bands:  1 eigenvalues not converged
     c_bands:  1 eigenvalues not converged
     ethr =  1.96E-06,  avg # of iterations =  6.2

     total cpu time spent up to now is      751.2 secs

     total energy              =    -701.12395960 Ry
     Harris-Foulkes estimate   =    -701.12400687 Ry
     estimated scf accuracy    <       0.00057684 Ry

     iteration # 47     ecut=    40.00 Ry     beta= 0.60
     Davidson diagonalization with overlap
     ethr =  7.90E-07,  avg # of iterations =  2.0

     total cpu time spent up to now is      760.6 secs

     total energy              =    -701.12397898 Ry
     Harris-Foulkes estimate   =    -701.12398500 Ry
     estimated scf accuracy    <       0.00005926 Ry

     iteration # 48     ecut=    40.00 Ry     beta= 0.60
     Davidson diagonalization with overlap
     ethr =  8.12E-08,  avg # of iterations =  5.0

     total cpu time spent up to now is      774.4 secs

     total energy              =    -701.12399092 Ry
     Harris-Foulkes estimate   =    -701.12399138 Ry
     estimated scf accuracy    <       0.00000209 Ry

     iteration # 49     ecut=    40.00 Ry     beta= 0.60
     Davidson diagonalization with overlap
     ethr =  2.86E-09,  avg # of iterations =  5.7

     total cpu time spent up to now is      789.3 secs

     total energy              =    -701.12399156 Ry
     Harris-Foulkes estimate   =    -701.12399161 Ry
     estimated scf accuracy    <       0.00000049 Ry

     iteration # 50     ecut=    40.00 Ry     beta= 0.60
     Davidson diagonalization with overlap
     ethr =  6.65E-10,  avg # of iterations =  3.5

     total cpu time spent up to now is      800.1 secs

     total energy              =    -701.12399161 Ry
     Harris-Foulkes estimate   =    -701.12399162 Ry
     estimated scf accuracy    <       0.00000008 Ry

     iteration # 51     ecut=    40.00 Ry     beta= 0.60
     Davidson diagonalization with overlap
     ethr =  1.10E-10,  avg # of iterations =  4.5

     total cpu time spent up to now is      812.7 secs

     total energy              =    -701.12399162 Ry
     Harris-Foulkes estimate   =    -701.12399162 Ry
     estimated scf accuracy    <          4.9E-09 Ry

     iteration # 52     ecut=    40.00 Ry     beta= 0.60
     Davidson diagonalization with overlap
     ethr =  6.73E-12,  avg # of iterations =  5.2

     total cpu time spent up to now is      830.4 secs

     total energy              =    -701.12399163 Ry
     Harris-Foulkes estimate   =    -701.12399163 Ry
     estimated scf accuracy    <          2.4E-09 Ry

     iteration # 53     ecut=    40.00 Ry     beta= 0.60
     Davidson diagonalization with overlap
     ethr =  3.35E-12,  avg # of iterations =  1.0

     total cpu time spent up to now is      839.1 secs

     total energy              =    -701.12399163 Ry
     Harris-Foulkes estimate   =    -701.12399163 Ry
     estimated scf accuracy    <          2.6E-10 Ry

     iteration # 54     ecut=    40.00 Ry     beta= 0.60
     Davidson diagonalization with overlap
     ethr =  3.50E-13,  avg # of iterations =  4.3

     total cpu time spent up to now is      851.5 secs

     total energy              =    -701.12399163 Ry
     Harris-Foulkes estimate   =    -701.12399163 Ry
     estimated scf accuracy    <          3.6E-10 Ry

     iteration # 55     ecut=    40.00 Ry     beta= 0.60
     Davidson diagonalization with overlap
     ethr =  3.50E-13,  avg # of iterations =  1.7

     total cpu time spent up to now is      860.6 secs

     End of self-consistent calculation

     Number of k-points >= 100: set verbosity='high' to print the bands.

     the Fermi energy is    12.1298 ev

!    total energy              =    -701.12399163 Ry
     Harris-Foulkes estimate   =    -701.12399163 Ry
     estimated scf accuracy    <          3.9E-11 Ry

     The total energy is the sum of the following terms:

     one-electron contribution =    -259.09205730 Ry
     hartree contribution      =     148.39634087 Ry
     xc contribution           =     -90.43549193 Ry
     ewald contribution        =    -499.99135509 Ry
     smearing contrib. (-TS)   =      -0.00142818 Ry

     convergence has been achieved in  55 iterations

     Forces acting on atoms (cartesian axes, Ry/au):

     atom    1 type  2   force =     0.00000000    0.00000000    0.00000000
     atom    2 type  2   force =     0.00000000    0.00000000   -0.00018309
     atom    3 type  2   force =    -0.00000000    0.00000000   -0.00719825
     atom    4 type  2   force =    -0.00000000    0.00000000    0.00018309
     atom    5 type  2   force =    -0.00000000    0.00000000    0.00719825
     atom    6 type  1   force =     0.00000000    0.00000000    0.00000000

     Total force =     0.010183     Total SCF correction =     0.000019


     Computing stress (Cartesian axis) and pressure

          total   stress  (Ry/bohr**3)                   (kbar)     P= -132.30
  -0.00087487   0.00000000   0.00000000       -128.70      0.00      0.00
   0.00000000  -0.00087487   0.00000000          0.00   -128.70      0.00
   0.00000000   0.00000000  -0.00094825          0.00      0.00   -139.49


     BFGS Geometry Optimization

     number of scf cycles    =   1
     number of bfgs steps    =   0

     enthalpy new            =    -701.1239916264 Ry

     new trust radius        =       0.1348002112 bohr
     new conv_thr            =            1.0E-10 Ry

     new unit-cell volume =    755.03615 a.u.^3 (   111.88481 Ang^3 )
     density =      4.93096 g/cm^3

CELL_PARAMETERS (alat=  1.88972599)
  -1.489202364  -2.579374343   0.000000000
   2.978404729   0.000000000   0.000000000
   0.000000000   0.000000000  14.563747830

ATOMIC_POSITIONS (angstrom)
Ti       1.489202364  -2.579374343   4.854582610
Ti       0.000001490  -1.719583755   2.427196714
Ti       1.489202364  -2.579374343   9.705446372
Ti       0.000001490  -1.719583755   7.281968506
Ti       1.489202364  -2.579374343  14.567466679
Nb       0.000001490  -1.719583755  12.136456525


     NEW-OLD atomic charge density approx. for the potential
     extrapolated charge   68.19931, renormalised to   73.00000

     total cpu time spent up to now is      869.5 secs

     Self-consistent Calculation

     iteration #  1     ecut=    40.00 Ry     beta= 0.60
     Davidson diagonalization with overlap
     c_bands:  2 eigenvalues not converged
     c_bands:  1 eigenvalues not converged
     c_bands:  1 eigenvalues not converged
     c_bands:  1 eigenvalues not converged
     c_bands:  1 eigenvalues not converged
     c_bands:  3 eigenvalues not converged
     c_bands:  2 eigenvalues not converged
     c_bands:  2 eigenvalues not converged
     c_bands:  4 eigenvalues not converged
     c_bands:  4 eigenvalues not converged
     c_bands:  4 eigenvalues not converged
     c_bands:  5 eigenvalues not converged
     c_bands:  5 eigenvalues not converged
     c_bands:  4 eigenvalues not converged
     c_bands:  3 eigenvalues not converged
     c_bands:  5 eigenvalues not converged
     c_bands:  3 eigenvalues not converged
     c_bands:  5 eigenvalues not converged
     c_bands:  3 eigenvalues not converged
     c_bands:  3 eigenvalues not converged
     c_bands:  2 eigenvalues not converged
     c_bands:  5 eigenvalues not converged
     c_bands:  4 eigenvalues not converged
     c_bands:  3 eigenvalues not converged
     c_bands:  4 eigenvalues not converged
     c_bands:  3 eigenvalues not converged
     c_bands:  3 eigenvalues not converged
     c_bands:  3 eigenvalues not converged
     c_bands:  3 eigenvalues not converged
     c_bands:  1 eigenvalues not converged
     c_bands:  1 eigenvalues not converged
     c_bands:  1 eigenvalues not converged
     c_bands:  1 eigenvalues not converged
     c_bands:  2 eigenvalues not converged
     c_bands:  2 eigenvalues not converged
     c_bands:  2 eigenvalues not converged
     c_bands:  1 eigenvalues not converged
     c_bands:  1 eigenvalues not converged
     c_bands:  1 eigenvalues not converged
     c_bands:  1 eigenvalues not converged
     c_bands:  2 eigenvalues not converged
     c_bands:  1 eigenvalues not converged
     c_bands:  2 eigenvalues not converged
     c_bands:  2 eigenvalues not converged
     c_bands:  2 eigenvalues not converged
     c_bands:  1 eigenvalues not converged
     c_bands:  1 eigenvalues not converged
     c_bands:  1 eigenvalues not converged
     c_bands:  2 eigenvalues not converged
     c_bands:  1 eigenvalues not converged
     c_bands:  1 eigenvalues not converged
     c_bands:  1 eigenvalues not converged
     ethr =  1.00E-06,  avg # of iterations = 18.9

     total cpu time spent up to now is      914.0 secs

     total energy              =    -600.64779055 Ry
     Harris-Foulkes estimate   =    -714.15872550 Ry
     estimated scf accuracy    <     120.04394844 Ry

     iteration #  2     ecut=    40.00 Ry     beta= 0.60
     Davidson diagonalization with overlap
     c_bands:  1 eigenvalues not converged
     c_bands:  1 eigenvalues not converged
     c_bands:  1 eigenvalues not converged
     ethr =  1.00E-02,  avg # of iterations = 15.1

     total cpu time spent up to now is      959.1 secs

     total energy              =    -639.77069451 Ry
     Harris-Foulkes estimate   =   -1248.37992881 Ry
     estimated scf accuracy    <    3623.08428477 Ry

     iteration #  3     ecut=    40.00 Ry     beta= 0.60
     Davidson diagonalization with overlap
     ethr =  1.00E-02,  avg # of iterations = 11.3

     total cpu time spent up to now is      993.0 secs

     total energy              =    -699.72257489 Ry
     Harris-Foulkes estimate   =    -751.51295010 Ry
     estimated scf accuracy    <     546.01695237 Ry

     iteration #  4     ecut=    40.00 Ry     beta= 0.60
     Davidson diagonalization with overlap
     ethr =  1.00E-02,  avg # of iterations =  5.2

     total cpu time spent up to now is     1010.9 secs

     total energy              =    -710.46821148 Ry
     Harris-Foulkes estimate   =    -715.99739403 Ry
     estimated scf accuracy    <     264.03127895 Ry

     iteration #  5     ecut=    40.00 Ry     beta= 0.60
     Davidson diagonalization with overlap
     ethr =  1.00E-02,  avg # of iterations =  1.6

     total cpu time spent up to now is     1020.1 secs

     total energy              =    -703.24899119 Ry
     Harris-Foulkes estimate   =    -710.64823901 Ry
     estimated scf accuracy    <     223.86445345 Ry

     iteration #  6     ecut=    40.00 Ry     beta= 0.60
     Davidson diagonalization with overlap
     ethr =  1.00E-02,  avg # of iterations =  8.0

     total cpu time spent up to now is     1038.3 secs

     total energy              =    -701.06882648 Ry
     Harris-Foulkes estimate   =    -706.63363889 Ry
     estimated scf accuracy    <      47.93829538 Ry

     iteration #  7     ecut=    40.00 Ry     beta= 0.60
     Davidson diagonalization with overlap
     ethr =  1.00E-02,  avg # of iterations =  6.0

     total cpu time spent up to now is     1053.7 secs

     total energy              =    -699.27900743 Ry
     Harris-Foulkes estimate   =    -704.07476382 Ry
     estimated scf accuracy    <      53.78990882 Ry

     iteration #  8     ecut=    40.00 Ry     beta= 0.60
     Davidson diagonalization with overlap
     ethr =  1.00E-02,  avg # of iterations =  5.0

     total cpu time spent up to now is     1066.5 secs

     total energy              =    -702.77476019 Ry
     Harris-Foulkes estimate   =    -704.10290702 Ry
     estimated scf accuracy    <      90.49169986 Ry

     iteration #  9     ecut=    40.00 Ry     beta= 0.60
     Davidson diagonalization with overlap
     ethr =  1.00E-02,  avg # of iterations =  1.1

     total cpu time spent up to now is     1075.4 secs

     total energy              =    -702.02937024 Ry
     Harris-Foulkes estimate   =    -702.91261657 Ry
     estimated scf accuracy    <      58.98637270 Ry

     iteration # 10     ecut=    40.00 Ry     beta= 0.60
     Davidson diagonalization with overlap
     ethr =  1.00E-02,  avg # of iterations =  1.0

     total cpu time spent up to now is     1084.3 secs

     total energy              =    -695.78378776 Ry
     Harris-Foulkes estimate   =    -702.12738608 Ry
     estimated scf accuracy    <      31.32609015 Ry

     iteration # 11     ecut=    40.00 Ry     beta= 0.60
     Davidson diagonalization with overlap
     ethr =  1.00E-02,  avg # of iterations =  6.9

     total cpu time spent up to now is     1104.5 secs

     total energy              =    -696.63930112 Ry
     Harris-Foulkes estimate   =    -711.23687787 Ry
     estimated scf accuracy    <     172.18165071 Ry

     iteration # 12     ecut=    40.00 Ry     beta= 0.60
     Davidson diagonalization with overlap
     ethr =  1.00E-02,  avg # of iterations =  6.3

     total cpu time spent up to now is     1120.7 secs

     total energy              =    -700.80428992 Ry
     Harris-Foulkes estimate   =    -701.72894945 Ry
     estimated scf accuracy    <      23.02165864 Ry

     iteration # 13     ecut=    40.00 Ry     beta= 0.60
     Davidson diagonalization with overlap
     ethr =  1.00E-02,  avg # of iterations =  1.6

     total cpu time spent up to now is     1129.9 secs

     total energy              =    -701.21417303 Ry
     Harris-Foulkes estimate   =    -701.10725967 Ry
     estimated scf accuracy    <       5.79605071 Ry

     iteration # 14     ecut=    40.00 Ry     beta= 0.60
     Davidson diagonalization with overlap
     ethr =  7.94E-03,  avg # of iterations =  1.1

     total cpu time spent up to now is     1138.8 secs

     total energy              =    -701.23380388 Ry
     Harris-Foulkes estimate   =    -701.26244277 Ry
     estimated scf accuracy    <       9.02259840 Ry

     iteration # 15     ecut=    40.00 Ry     beta= 0.60
     Davidson diagonalization with overlap
     ethr =  7.94E-03,  avg # of iterations =  1.0

     total cpu time spent up to now is     1147.7 secs

     total energy              =    -701.17798448 Ry
     Harris-Foulkes estimate   =    -701.25210786 Ry
     estimated scf accuracy    <       8.30487792 Ry

     iteration # 16     ecut=    40.00 Ry     beta= 0.60
     Davidson diagonalization with overlap
     ethr =  7.94E-03,  avg # of iterations =  1.1

     total cpu time spent up to now is     1156.5 secs

     total energy              =    -701.25046107 Ry
     Harris-Foulkes estimate   =    -701.21883713 Ry
     estimated scf accuracy    <       4.58419174 Ry

     iteration # 17     ecut=    40.00 Ry     beta= 0.60
     Davidson diagonalization with overlap
     ethr =  6.28E-03,  avg # of iterations =  1.1

     total cpu time spent up to now is     1165.4 secs

     total energy              =    -701.17195628 Ry
     Harris-Foulkes estimate   =    -701.26934166 Ry
     estimated scf accuracy    <       4.55638930 Ry

     iteration # 18     ecut=    40.00 Ry     beta= 0.60
     Davidson diagonalization with overlap
     ethr =  6.24E-03,  avg # of iterations =  1.0

     total cpu time spent up to now is     1174.3 secs

     total energy              =    -701.13357242 Ry
     Harris-Foulkes estimate   =    -701.19295295 Ry
     estimated scf accuracy    <       3.32624247 Ry

     iteration # 19     ecut=    40.00 Ry     beta= 0.60
     Davidson diagonalization with overlap
     ethr =  4.56E-03,  avg # of iterations =  1.1

     total cpu time spent up to now is     1183.2 secs

     total energy              =    -700.96695303 Ry
     Harris-Foulkes estimate   =    -701.16091890 Ry
     estimated scf accuracy    <       2.89667431 Ry

     iteration # 20     ecut=    40.00 Ry     beta= 0.60
     Davidson diagonalization with overlap
     ethr =  3.97E-03,  avg # of iterations =  3.2

     total cpu time spent up to now is     1193.8 secs

     total energy              =    -701.11240202 Ry
     Harris-Foulkes estimate   =    -701.15951557 Ry
     estimated scf accuracy    <       0.49535320 Ry

     iteration # 21     ecut=    40.00 Ry     beta= 0.60
     Davidson diagonalization with overlap
     c_bands:  2 eigenvalues not converged
     ethr =  6.79E-04,  avg # of iterations =  7.3

     total cpu time spent up to now is     1210.5 secs

     total energy              =    -701.26947675 Ry
     Harris-Foulkes estimate   =    -701.22291093 Ry
     estimated scf accuracy    <       3.31874575 Ry

     iteration # 22     ecut=    40.00 Ry     beta= 0.60
     Davidson diagonalization with overlap
     ethr =  6.79E-04,  avg # of iterations =  1.2

     total cpu time spent up to now is     1219.4 secs

     total energy              =    -701.25690367 Ry
     Harris-Foulkes estimate   =    -701.27907695 Ry
     estimated scf accuracy    <       5.10839616 Ry

     iteration # 23     ecut=    40.00 Ry     beta= 0.60
     Davidson diagonalization with overlap
     ethr =  6.79E-04,  avg # of iterations =  1.1

     total cpu time spent up to now is     1228.3 secs

     total energy              =    -701.12538100 Ry
     Harris-Foulkes estimate   =    -701.25876419 Ry
     estimated scf accuracy    <       4.49595871 Ry

     iteration # 24     ecut=    40.00 Ry     beta= 0.60
     Davidson diagonalization with overlap
     ethr =  6.79E-04,  avg # of iterations =  1.1

     total cpu time spent up to now is     1237.2 secs

     total energy              =    -701.16725872 Ry
     Harris-Foulkes estimate   =    -701.16856392 Ry
     estimated scf accuracy    <       0.72715775 Ry

     iteration # 25     ecut=    40.00 Ry     beta= 0.60
     Davidson diagonalization with overlap
     ethr =  6.79E-04,  avg # of iterations =  1.0

     total cpu time spent up to now is     1246.1 secs

     total energy              =    -701.16489821 Ry
     Harris-Foulkes estimate   =    -701.17001063 Ry
     estimated scf accuracy    <       0.73169522 Ry

     iteration # 26     ecut=    40.00 Ry     beta= 0.60
     Davidson diagonalization with overlap
     ethr =  6.79E-04,  avg # of iterations =  1.0

     total cpu time spent up to now is     1254.9 secs

     total energy              =    -701.16571054 Ry
     Harris-Foulkes estimate   =    -701.16658107 Ry
     estimated scf accuracy    <       0.58084179 Ry

     iteration # 27     ecut=    40.00 Ry     beta= 0.60
     Davidson diagonalization with overlap
     ethr =  6.79E-04,  avg # of iterations =  1.0

     total cpu time spent up to now is     1263.8 secs

     total energy              =    -701.15745414 Ry
     Harris-Foulkes estimate   =    -701.16697720 Ry
     estimated scf accuracy    <       0.46583839 Ry

     iteration # 28     ecut=    40.00 Ry     beta= 0.60
     Davidson diagonalization with overlap
     ethr =  6.38E-04,  avg # of iterations =  1.0

     total cpu time spent up to now is     1272.7 secs

     total energy              =    -701.15640667 Ry
     Harris-Foulkes estimate   =    -701.16077549 Ry
     estimated scf accuracy    <       0.13565509 Ry

     iteration # 29     ecut=    40.00 Ry     beta= 0.60
     Davidson diagonalization with overlap
     ethr =  1.86E-04,  avg # of iterations =  1.7

     total cpu time spent up to now is     1282.0 secs

     total energy              =    -701.15766535 Ry
     Harris-Foulkes estimate   =    -701.15884887 Ry
     estimated scf accuracy    <       0.02272133 Ry

     iteration # 30     ecut=    40.00 Ry     beta= 0.60
     Davidson diagonalization with overlap
     ethr =  3.11E-05,  avg # of iterations =  8.9

     total cpu time spent up to now is     1299.6 secs

     total energy              =    -701.16207988 Ry
     Harris-Foulkes estimate   =    -701.16234630 Ry
     estimated scf accuracy    <       0.01261718 Ry

     iteration # 31     ecut=    40.00 Ry     beta= 0.60
     Davidson diagonalization with overlap
     ethr =  1.73E-05,  avg # of iterations =  1.4

     total cpu time spent up to now is     1308.7 secs

     total energy              =    -701.16109101 Ry
     Harris-Foulkes estimate   =    -701.16213500 Ry
     estimated scf accuracy    <       0.00999206 Ry

     iteration # 32     ecut=    40.00 Ry     beta= 0.60
     Davidson diagonalization with overlap
     ethr =  1.37E-05,  avg # of iterations =  1.8

     total cpu time spent up to now is     1318.0 secs

     total energy              =    -701.16147249 Ry
     Harris-Foulkes estimate   =    -701.16152457 Ry
     estimated scf accuracy    <       0.00034645 Ry

     iteration # 33     ecut=    40.00 Ry     beta= 0.60
     Davidson diagonalization with overlap
     ethr =  4.75E-07,  avg # of iterations =  7.5

     total cpu time spent up to now is     1336.9 secs

     total energy              =    -701.16172114 Ry
     Harris-Foulkes estimate   =    -701.16181894 Ry
     estimated scf accuracy    <       0.00209675 Ry

     iteration # 34     ecut=    40.00 Ry     beta= 0.60
     Davidson diagonalization with overlap
     ethr =  4.75E-07,  avg # of iterations =  1.0

     total cpu time spent up to now is     1345.8 secs

     total energy              =    -701.16164552 Ry
     Harris-Foulkes estimate   =    -701.16173384 Ry
     estimated scf accuracy    <       0.00104785 Ry

     iteration # 35     ecut=    40.00 Ry     beta= 0.60
     Davidson diagonalization with overlap
     ethr =  4.75E-07,  avg # of iterations =  3.5

     total cpu time spent up to now is     1357.4 secs

     total energy              =    -701.16170069 Ry
     Harris-Foulkes estimate   =    -701.16170125 Ry
     estimated scf accuracy    <       0.00000385 Ry

     iteration # 36     ecut=    40.00 Ry     beta= 0.60
     Davidson diagonalization with overlap
     ethr =  5.27E-09,  avg # of iterations =  6.1

     total cpu time spent up to now is     1373.9 secs

     total energy              =    -701.16170215 Ry
     Harris-Foulkes estimate   =    -701.16170269 Ry
     estimated scf accuracy    <       0.00000351 Ry

     iteration # 37     ecut=    40.00 Ry     beta= 0.60
     Davidson diagonalization with overlap
     ethr =  4.81E-09,  avg # of iterations =  1.1

     total cpu time spent up to now is     1382.8 secs

     total energy              =    -701.16170235 Ry
     Harris-Foulkes estimate   =    -701.16170238 Ry
     estimated scf accuracy    <       0.00000009 Ry

     iteration # 38     ecut=    40.00 Ry     beta= 0.60
     Davidson diagonalization with overlap
     ethr =  1.23E-10,  avg # of iterations =  6.1

     total cpu time spent up to now is     1400.0 secs

     total energy              =    -701.16170240 Ry
     Harris-Foulkes estimate   =    -701.16170255 Ry
     estimated scf accuracy    <       0.00000158 Ry

     iteration # 39     ecut=    40.00 Ry     beta= 0.60
     Davidson diagonalization with overlap
     ethr =  1.23E-10,  avg # of iterations =  4.6

     total cpu time spent up to now is     1413.9 secs

     total energy              =    -701.16170246 Ry
     Harris-Foulkes estimate   =    -701.16170246 Ry
     estimated scf accuracy    <       0.00000004 Ry

     iteration # 40     ecut=    40.00 Ry     beta= 0.60
     Davidson diagonalization with overlap
     ethr =  5.19E-11,  avg # of iterations =  1.1

     total cpu time spent up to now is     1422.8 secs

     total energy              =    -701.16170246 Ry
     Harris-Foulkes estimate   =    -701.16170246 Ry
     estimated scf accuracy    <          2.3E-09 Ry

     iteration # 41     ecut=    40.00 Ry     beta= 0.60
     Davidson diagonalization with overlap
     ethr =  3.10E-12,  avg # of iterations =  5.5

     total cpu time spent up to now is     1438.4 secs

     total energy              =    -701.16170246 Ry
     Harris-Foulkes estimate   =    -701.16170246 Ry
     estimated scf accuracy    <       0.00000001 Ry

     iteration # 42     ecut=    40.00 Ry     beta= 0.60
     Davidson diagonalization with overlap
     ethr =  3.10E-12,  avg # of iterations =  3.8

     total cpu time spent up to now is     1449.3 secs

     total energy              =    -701.16170246 Ry
     Harris-Foulkes estimate   =    -701.16170246 Ry
     estimated scf accuracy    <          1.9E-09 Ry

     iteration # 43     ecut=    40.00 Ry     beta= 0.60
     Davidson diagonalization with overlap
     ethr =  2.63E-12,  avg # of iterations =  4.0

     total cpu time spent up to now is     1461.1 secs

     total energy              =    -701.16170246 Ry
     Harris-Foulkes estimate   =    -701.16170246 Ry
     estimated scf accuracy    <          4.0E-10 Ry

     iteration # 44     ecut=    40.00 Ry     beta= 0.60
     Davidson diagonalization with overlap
     ethr =  5.51E-13,  avg # of iterations =  3.7

     total cpu time spent up to now is     1472.1 secs

     total energy              =    -701.16170246 Ry
     Harris-Foulkes estimate   =    -701.16170246 Ry
     estimated scf accuracy    <          1.4E-10 Ry

     iteration # 45     ecut=    40.00 Ry     beta= 0.60
     Davidson diagonalization with overlap
     ethr =  1.88E-13,  avg # of iterations =  3.7

     total cpu time spent up to now is     1483.3 secs

     End of self-consistent calculation

     Number of k-points >= 100: set verbosity='high' to print the bands.

     the Fermi energy is    13.1730 ev

!    total energy              =    -701.16170246 Ry
     Harris-Foulkes estimate   =    -701.16170246 Ry
     estimated scf accuracy    <          1.3E-13 Ry

     The total energy is the sum of the following terms:

     one-electron contribution =    -241.78064235 Ry
     hartree contribution      =     142.90252235 Ry
     xc contribution           =     -90.73981347 Ry
     ewald contribution        =    -511.54184682 Ry
     smearing contrib. (-TS)   =      -0.00192217 Ry

     convergence has been achieved in  45 iterations

     Forces acting on atoms (cartesian axes, Ry/au):

     atom    1 type  2   force =     0.00000000    0.00000000    0.00000000
     atom    2 type  2   force =    -0.00000000    0.00000000   -0.00013304
     atom    3 type  2   force =     0.00000000   -0.00000000   -0.01116268
     atom    4 type  2   force =     0.00000000   -0.00000000    0.00013304
     atom    5 type  2   force =     0.00000000   -0.00000000    0.01116268
     atom    6 type  1   force =     0.00000000    0.00000000    0.00000000

     Total force =     0.015788     Total SCF correction =     0.000002


     Computing stress (Cartesian axis) and pressure

          total   stress  (Ry/bohr**3)                   (kbar)     P=  -71.47
  -0.00046493   0.00000000   0.00000000        -68.39      0.00      0.00
   0.00000000  -0.00046493  -0.00000000          0.00    -68.39     -0.00
  -0.00000000  -0.00000000  -0.00052759         -0.00     -0.00    -77.61


     number of scf cycles    =   2
     number of bfgs steps    =   1

     enthalpy old            =    -701.1239916264 Ry
     enthalpy new            =    -701.1617024589 Ry

     CASE: enthalpy_new < enthalpy_old

     new trust radius        =       0.1488943540 bohr
     new conv_thr            =            1.0E-10 Ry

     new unit-cell volume =    700.03502 a.u.^3 (   103.73449 Ang^3 )
     density =      5.31838 g/cm^3

CELL_PARAMETERS (alat=  1.88972599)
  -1.453764844  -2.517994762   0.000000000
   2.907529688   0.000000000  -0.000000000
   0.000000000  -0.000000000  14.169165606

ATOMIC_POSITIONS (angstrom)
Ti       1.453764844  -2.517994762   4.723055202
Ti       0.000001454  -1.678664014   2.361299025
Ti       1.453764844  -2.517994762   9.431074605
Ti       0.000001454  -1.678664014   7.084811379
Ti       1.453764844  -2.517994762  14.184201406
Nb       0.000001454  -1.678664014  11.807638005


     NEW-OLD atomic charge density approx. for the potential
     extrapolated charge   67.65753, renormalised to   73.00000

     total cpu time spent up to now is     1492.4 secs

     Self-consistent Calculation

     iteration #  1     ecut=    40.00 Ry     beta= 0.60
     Davidson diagonalization with overlap
     c_bands:  2 eigenvalues not converged
     c_bands:  1 eigenvalues not converged
     c_bands:  1 eigenvalues not converged
     c_bands:  2 eigenvalues not converged
     c_bands:  1 eigenvalues not converged
     c_bands:  3 eigenvalues not converged
     c_bands:  4 eigenvalues not converged
     c_bands:  4 eigenvalues not converged
     c_bands:  2 eigenvalues not converged
     c_bands:  4 eigenvalues not converged
     c_bands:  4 eigenvalues not converged
     c_bands:  4 eigenvalues not converged
     c_bands:  3 eigenvalues not converged
     c_bands:  4 eigenvalues not converged
     c_bands:  4 eigenvalues not converged
     c_bands:  3 eigenvalues not converged
     c_bands:  3 eigenvalues not converged
     c_bands:  4 eigenvalues not converged
     c_bands:  2 eigenvalues not converged
     c_bands:  3 eigenvalues not converged
     c_bands:  2 eigenvalues not converged
     c_bands:  4 eigenvalues not converged
     c_bands:  3 eigenvalues not converged
     c_bands:  3 eigenvalues not converged
     c_bands:  1 eigenvalues not converged
     c_bands:  1 eigenvalues not converged
     c_bands:  1 eigenvalues not converged
     c_bands:  1 eigenvalues not converged
     c_bands:  1 eigenvalues not converged
     c_bands:  1 eigenvalues not converged
     c_bands:  2 eigenvalues not converged
     c_bands:  1 eigenvalues not converged
     c_bands:  1 eigenvalues not converged
     c_bands:  1 eigenvalues not converged
     c_bands:  1 eigenvalues not converged
     c_bands:  2 eigenvalues not converged
     c_bands:  3 eigenvalues not converged
     c_bands:  1 eigenvalues not converged
     c_bands:  3 eigenvalues not converged
     c_bands:  1 eigenvalues not converged
     c_bands:  2 eigenvalues not converged
     c_bands:  1 eigenvalues not converged
     c_bands:  1 eigenvalues not converged
     c_bands:  3 eigenvalues not converged
     c_bands:  1 eigenvalues not converged
     c_bands:  3 eigenvalues not converged
     c_bands:  2 eigenvalues not converged
     c_bands:  2 eigenvalues not converged
     c_bands:  1 eigenvalues not converged
     c_bands:  1 eigenvalues not converged
     c_bands:  1 eigenvalues not converged
     c_bands:  2 eigenvalues not converged
     c_bands:  1 eigenvalues not converged
     c_bands:  1 eigenvalues not converged
     c_bands:  1 eigenvalues not converged
     c_bands:  1 eigenvalues not converged
     c_bands:  1 eigenvalues not converged
     c_bands:  1 eigenvalues not converged
     c_bands:  1 eigenvalues not converged
     c_bands:  2 eigenvalues not converged
     c_bands:  1 eigenvalues not converged
     ethr =  1.00E-06,  avg # of iterations = 18.8

     total cpu time spent up to now is     1536.6 secs

     total energy              =    -600.30588834 Ry
     Harris-Foulkes estimate   =    -714.62782465 Ry
     estimated scf accuracy    <     120.42484129 Ry

     iteration #  2     ecut=    40.00 Ry     beta= 0.60
     Davidson diagonalization with overlap
     c_bands:  1 eigenvalues not converged
     ethr =  1.00E-02,  avg # of iterations = 14.8

     total cpu time spent up to now is     1581.2 secs

     total energy              =    -636.41259017 Ry
     Harris-Foulkes estimate   =   -1250.71681867 Ry
     estimated scf accuracy    <    3671.10516281 Ry

     iteration #  3     ecut=    40.00 Ry     beta= 0.60
     Davidson diagonalization with overlap
     ethr =  1.00E-02,  avg # of iterations = 10.4

     total cpu time spent up to now is     1614.0 secs

     total energy              =    -700.58074346 Ry
     Harris-Foulkes estimate   =    -749.76168291 Ry
     estimated scf accuracy    <     508.06879969 Ry

     iteration #  4     ecut=    40.00 Ry     beta= 0.60
     Davidson diagonalization with overlap
     ethr =  1.00E-02,  avg # of iterations =  5.2

     total cpu time spent up to now is     1631.5 secs

     total energy              =    -708.75547700 Ry
     Harris-Foulkes estimate   =    -715.56344860 Ry
     estimated scf accuracy    <     265.73975598 Ry

     iteration #  5     ecut=    40.00 Ry     beta= 0.60
     Davidson diagonalization with overlap
     ethr =  1.00E-02,  avg # of iterations =  2.1

     total cpu time spent up to now is     1641.1 secs

     total energy              =    -698.85314562 Ry
     Harris-Foulkes estimate   =    -709.04231401 Ry
     estimated scf accuracy    <     210.39333706 Ry

     iteration #  6     ecut=    40.00 Ry     beta= 0.60
     Davidson diagonalization with overlap
     ethr =  1.00E-02,  avg # of iterations =  7.8

     total cpu time spent up to now is     1662.2 secs

     total energy              =    -703.41801397 Ry
     Harris-Foulkes estimate   =    -708.42737227 Ry
     estimated scf accuracy    <      60.76283970 Ry

     iteration #  7     ecut=    40.00 Ry     beta= 0.60
     Davidson diagonalization with overlap
     ethr =  1.00E-02,  avg # of iterations =  4.1

     total cpu time spent up to now is     1674.3 secs

     total energy              =    -698.87663278 Ry
     Harris-Foulkes estimate   =    -704.88281436 Ry
     estimated scf accuracy    <      83.02584937 Ry

     iteration #  8     ecut=    40.00 Ry     beta= 0.60
     Davidson diagonalization with overlap
     ethr =  1.00E-02,  avg # of iterations =  4.2

     total cpu time spent up to now is     1686.2 secs

     total energy              =    -702.86467415 Ry
     Harris-Foulkes estimate   =    -703.51550672 Ry
     estimated scf accuracy    <      57.30237239 Ry

     iteration #  9     ecut=    40.00 Ry     beta= 0.60
     Davidson diagonalization with overlap
     ethr =  1.00E-02,  avg # of iterations =  1.1

     total cpu time spent up to now is     1695.2 secs

     total energy              =    -700.90207185 Ry
     Harris-Foulkes estimate   =    -702.91043869 Ry
     estimated scf accuracy    <      53.70517673 Ry

     iteration # 10     ecut=    40.00 Ry     beta= 0.60
     Davidson diagonalization with overlap
     ethr =  1.00E-02,  avg # of iterations =  1.0

     total cpu time spent up to now is     1704.0 secs

     total energy              =    -699.49403915 Ry
     Harris-Foulkes estimate   =    -701.53511544 Ry
     estimated scf accuracy    <       4.86375221 Ry

     iteration # 11     ecut=    40.00 Ry     beta= 0.60
     Davidson diagonalization with overlap
     ethr =  6.66E-03,  avg # of iterations =  6.4

     total cpu time spent up to now is     1723.2 secs

     total energy              =    -696.97861320 Ry
     Harris-Foulkes estimate   =    -710.26772733 Ry
     estimated scf accuracy    <     171.75333074 Ry

     iteration # 12     ecut=    40.00 Ry     beta= 0.60
     Davidson diagonalization with overlap
     ethr =  6.66E-03,  avg # of iterations =  7.4

     total cpu time spent up to now is     1742.5 secs

     total energy              =    -701.19435869 Ry
     Harris-Foulkes estimate   =    -701.39402664 Ry
     estimated scf accuracy    <       2.75727639 Ry

     iteration # 13     ecut=    40.00 Ry     beta= 0.60
     Davidson diagonalization with overlap
     ethr =  3.78E-03,  avg # of iterations =  1.4

     total cpu time spent up to now is     1751.6 secs

     total energy              =    -701.27362813 Ry
     Harris-Foulkes estimate   =    -701.31653443 Ry
     estimated scf accuracy    <       8.04183851 Ry

     iteration # 14     ecut=    40.00 Ry     beta= 0.60
     Davidson diagonalization with overlap
     ethr =  3.78E-03,  avg # of iterations =  1.1

     total cpu time spent up to now is     1760.5 secs

     total energy              =    -701.38794262 Ry
     Harris-Foulkes estimate   =    -701.28896049 Ry
     estimated scf accuracy    <       5.68123522 Ry

     iteration # 15     ecut=    40.00 Ry     beta= 0.60
     Davidson diagonalization with overlap
     ethr =  3.78E-03,  avg # of iterations =  1.0

     total cpu time spent up to now is     1769.3 secs

     total energy              =    -701.44734354 Ry
     Harris-Foulkes estimate   =    -701.40713489 Ry
     estimated scf accuracy    <       7.29074267 Ry

     iteration # 16     ecut=    40.00 Ry     beta= 0.60
     Davidson diagonalization with overlap
     ethr =  3.78E-03,  avg # of iterations =  1.0

     total cpu time spent up to now is     1778.2 secs

     total energy              =    -701.32186240 Ry
     Harris-Foulkes estimate   =    -701.46266876 Ry
     estimated scf accuracy    <      11.45387906 Ry

     iteration # 17     ecut=    40.00 Ry     beta= 0.60
     Davidson diagonalization with overlap
     ethr =  3.78E-03,  avg # of iterations =  1.0

     total cpu time spent up to now is     1787.0 secs

     total energy              =    -701.30643834 Ry
     Harris-Foulkes estimate   =    -701.35289321 Ry
     estimated scf accuracy    <       5.12120081 Ry

     iteration # 18     ecut=    40.00 Ry     beta= 0.60
     Davidson diagonalization with overlap
     ethr =  3.78E-03,  avg # of iterations =  1.0

     total cpu time spent up to now is     1795.9 secs

     total energy              =    -701.13426390 Ry
     Harris-Foulkes estimate   =    -701.31684007 Ry
     estimated scf accuracy    <       3.29401155 Ry

     iteration # 19     ecut=    40.00 Ry     beta= 0.60
     Davidson diagonalization with overlap
     ethr =  3.78E-03,  avg # of iterations =  1.0

     total cpu time spent up to now is     1804.7 secs

     total energy              =    -701.14446429 Ry
     Harris-Foulkes estimate   =    -701.18664912 Ry
     estimated scf accuracy    <       1.95186034 Ry

     iteration # 20     ecut=    40.00 Ry     beta= 0.60
     Davidson diagonalization with overlap
     ethr =  2.67E-03,  avg # of iterations =  1.0

     total cpu time spent up to now is     1813.6 secs

     total energy              =    -701.14281568 Ry
     Harris-Foulkes estimate   =    -701.16936581 Ry
     estimated scf accuracy    <       0.85612209 Ry

     iteration # 21     ecut=    40.00 Ry     beta= 0.60
     Davidson diagonalization with overlap
     ethr =  1.17E-03,  avg # of iterations =  1.3

     total cpu time spent up to now is     1822.7 secs

     total energy              =    -701.15915736 Ry
     Harris-Foulkes estimate   =    -701.16270392 Ry
     estimated scf accuracy    <       0.04137207 Ry

     iteration # 22     ecut=    40.00 Ry     beta= 0.60
     Davidson diagonalization with overlap
     ethr =  5.67E-05,  avg # of iterations =  6.9

     total cpu time spent up to now is     1841.1 secs

     total energy              =    -701.16949192 Ry
     Harris-Foulkes estimate   =    -701.17757325 Ry
     estimated scf accuracy    <       0.03020538 Ry

     iteration # 23     ecut=    40.00 Ry     beta= 0.60
     Davidson diagonalization with overlap
     ethr =  4.14E-05,  avg # of iterations =  3.4

     total cpu time spent up to now is     1853.0 secs

     total energy              =    -701.17303627 Ry
     Harris-Foulkes estimate   =    -701.17462957 Ry
     estimated scf accuracy    <       0.00445086 Ry

     iteration # 24     ecut=    40.00 Ry     beta= 0.60
     Davidson diagonalization with overlap
     c_bands:  1 eigenvalues not converged
     ethr =  6.10E-06,  avg # of iterations =  4.4

     total cpu time spent up to now is     1866.1 secs

     total energy              =    -701.17365850 Ry
     Harris-Foulkes estimate   =    -701.17375010 Ry
     estimated scf accuracy    <       0.00233007 Ry

     iteration # 25     ecut=    40.00 Ry     beta= 0.60
     Davidson diagonalization with overlap
     ethr =  3.19E-06,  avg # of iterations =  1.9

     total cpu time spent up to now is     1875.5 secs

     total energy              =    -701.17358377 Ry
     Harris-Foulkes estimate   =    -701.17371582 Ry
     estimated scf accuracy    <       0.00036478 Ry

     iteration # 26     ecut=    40.00 Ry     beta= 0.60
     Davidson diagonalization with overlap
     ethr =  5.00E-07,  avg # of iterations =  4.5

     total cpu time spent up to now is     1888.7 secs

     total energy              =    -701.17365470 Ry
     Harris-Foulkes estimate   =    -701.17366711 Ry
     estimated scf accuracy    <       0.00008254 Ry

     iteration # 27     ecut=    40.00 Ry     beta= 0.60
     Davidson diagonalization with overlap
     c_bands:  1 eigenvalues not converged
     c_bands:  1 eigenvalues not converged
     ethr =  1.13E-07,  avg # of iterations =  3.6

     total cpu time spent up to now is     1899.5 secs

     total energy              =    -701.17366189 Ry
     Harris-Foulkes estimate   =    -701.17366215 Ry
     estimated scf accuracy    <       0.00000243 Ry

     iteration # 28     ecut=    40.00 Ry     beta= 0.60
     Davidson diagonalization with overlap
     ethr =  3.33E-09,  avg # of iterations =  6.0

     total cpu time spent up to now is     1917.5 secs

     total energy              =    -701.17366402 Ry
     Harris-Foulkes estimate   =    -701.17366435 Ry
     estimated scf accuracy    <       0.00000379 Ry

     iteration # 29     ecut=    40.00 Ry     beta= 0.60
     Davidson diagonalization with overlap
     ethr =  3.33E-09,  avg # of iterations =  1.1

     total cpu time spent up to now is     1926.4 secs

     total energy              =    -701.17366409 Ry
     Harris-Foulkes estimate   =    -701.17366413 Ry
     estimated scf accuracy    <       0.00000203 Ry

     iteration # 30     ecut=    40.00 Ry     beta= 0.60
     Davidson diagonalization with overlap
     ethr =  2.79E-09,  avg # of iterations =  1.1

     total cpu time spent up to now is     1935.2 secs

     total energy              =    -701.17366396 Ry
     Harris-Foulkes estimate   =    -701.17366412 Ry
     estimated scf accuracy    <       0.00000174 Ry

     iteration # 31     ecut=    40.00 Ry     beta= 0.60
     Davidson diagonalization with overlap
     ethr =  2.39E-09,  avg # of iterations =  1.2

     total cpu time spent up to now is     1944.1 secs

     total energy              =    -701.17366400 Ry
     Harris-Foulkes estimate   =    -701.17366402 Ry
     estimated scf accuracy    <       0.00000014 Ry

     iteration # 32     ecut=    40.00 Ry     beta= 0.60
     Davidson diagonalization with overlap
     ethr =  1.86E-10,  avg # of iterations =  5.2

     total cpu time spent up to now is     1958.9 secs

     total energy              =    -701.17366408 Ry
     Harris-Foulkes estimate   =    -701.17366409 Ry
     estimated scf accuracy    <       0.00000016 Ry

     iteration # 33     ecut=    40.00 Ry     beta= 0.60
     Davidson diagonalization with overlap
     ethr =  1.86E-10,  avg # of iterations =  1.0

     total cpu time spent up to now is     1967.7 secs

     total energy              =    -701.17366407 Ry
     Harris-Foulkes estimate   =    -701.17366408 Ry
     estimated scf accuracy    <       0.00000005 Ry

     iteration # 34     ecut=    40.00 Ry     beta= 0.60
     Davidson diagonalization with overlap
     ethr =  6.59E-11,  avg # of iterations =  3.6

     total cpu time spent up to now is     1978.8 secs

     total energy              =    -701.17366408 Ry
     Harris-Foulkes estimate   =    -701.17366408 Ry
     estimated scf accuracy    <          7.7E-09 Ry

     iteration # 35     ecut=    40.00 Ry     beta= 0.60
     Davidson diagonalization with overlap
     ethr =  1.06E-11,  avg # of iterations =  4.7

     total cpu time spent up to now is     1992.1 secs

     total energy              =    -701.17366408 Ry
     Harris-Foulkes estimate   =    -701.17366408 Ry
     estimated scf accuracy    <          9.1E-09 Ry

     iteration # 36     ecut=    40.00 Ry     beta= 0.60
     Davidson diagonalization with overlap
     ethr =  1.06E-11,  avg # of iterations =  1.0

     total cpu time spent up to now is     2000.9 secs

     total energy              =    -701.17366408 Ry
     Harris-Foulkes estimate   =    -701.17366408 Ry
     estimated scf accuracy    <          1.7E-09 Ry

     iteration # 37     ecut=    40.00 Ry     beta= 0.60
     Davidson diagonalization with overlap
     ethr =  2.32E-12,  avg # of iterations =  4.1

     total cpu time spent up to now is     2013.3 secs

     total energy              =    -701.17366408 Ry
     Harris-Foulkes estimate   =    -701.17366408 Ry
     estimated scf accuracy    <          1.9E-10 Ry

     iteration # 38     ecut=    40.00 Ry     beta= 0.60
     Davidson diagonalization with overlap
     ethr =  2.66E-13,  avg # of iterations =  3.2

     total cpu time spent up to now is     2024.0 secs

     End of self-consistent calculation

     Number of k-points >= 100: set verbosity='high' to print the bands.

     the Fermi energy is    14.4046 ev

!    total energy              =    -701.17366408 Ry
     Harris-Foulkes estimate   =    -701.17366408 Ry
     estimated scf accuracy    <          6.0E-11 Ry

     The total energy is the sum of the following terms:

     one-electron contribution =    -222.12117718 Ry
     hartree contribution      =     136.80130249 Ry
     xc contribution           =     -91.10742310 Ry
     ewald contribution        =    -524.74399830 Ry
     smearing contrib. (-TS)   =      -0.00236798 Ry

     convergence has been achieved in  38 iterations

     Forces acting on atoms (cartesian axes, Ry/au):

     atom    1 type  2   force =     0.00000000    0.00000000    0.00000000
     atom    2 type  2   force =     0.00000000   -0.00000000    0.00064942
     atom    3 type  2   force =     0.00000000   -0.00000000   -0.01446735
     atom    4 type  2   force =    -0.00000000   -0.00000000   -0.00064942
     atom    5 type  2   force =     0.00000000   -0.00000000    0.01446735
     atom    6 type  1   force =     0.00000000   -0.00000000   -0.00000000

     Total force =     0.020481     Total SCF correction =     0.000010


     Computing stress (Cartesian axis) and pressure

          total   stress  (Ry/bohr**3)                   (kbar)     P=   15.84
   0.00011685  -0.00000000   0.00000000         17.19     -0.00      0.00
  -0.00000000   0.00011685   0.00000000         -0.00     17.19      0.00
   0.00000000   0.00000000   0.00008929          0.00      0.00     13.14


     number of scf cycles    =   3
     number of bfgs steps    =   2

     enthalpy old            =    -701.1617024589 Ry
     enthalpy new            =    -701.1736640800 Ry

     CASE: enthalpy_new < enthalpy_old

     new trust radius        =       0.0210937648 bohr
     new conv_thr            =            1.0E-10 Ry

     new unit-cell volume =    708.23423 a.u.^3 (   104.94948 Ang^3 )
     density =      5.25681 g/cm^3

CELL_PARAMETERS (alat=  1.88972599)
  -1.459559910  -2.528032110   0.000000000
   2.919119820   0.000000000  -0.000000000
   0.000000000  -0.000000000  14.221516157

ATOMIC_POSITIONS (angstrom)
Ti       1.459559910  -2.528032110   4.740505386
Ti       0.000001460  -1.685355583   2.370295975
Ti       1.459559910  -2.528032110   9.460882317
Ti       0.000001460  -1.685355583   7.110714796
Ti       1.459559910  -2.528032110  14.241644611
Nb       0.000001460  -1.685355583  11.851263464


     NEW-OLD atomic charge density approx. for the potential
     extrapolated charge   73.78720, renormalised to   73.00000

     total cpu time spent up to now is     2033.0 secs

     Self-consistent Calculation

     iteration #  1     ecut=    40.00 Ry     beta= 0.60
     Davidson diagonalization with overlap
     c_bands:  2 eigenvalues not converged
     c_bands:  2 eigenvalues not converged
     c_bands:  2 eigenvalues not converged
     c_bands:  2 eigenvalues not converged
     c_bands:  2 eigenvalues not converged
     c_bands:  2 eigenvalues not converged
     c_bands:  1 eigenvalues not converged
     ethr =  1.00E-06,  avg # of iterations = 15.1

     total cpu time spent up to now is     2065.6 secs

     total energy              =    -700.16394281 Ry
     Harris-Foulkes estimate   =    -699.45563910 Ry
     estimated scf accuracy    <       1.20496937 Ry

     iteration #  2     ecut=    40.00 Ry     beta= 0.60
     Davidson diagonalization with overlap
     ethr =  1.65E-03,  avg # of iterations =  7.6

     total cpu time spent up to now is     2087.2 secs

     total energy              =    -697.96500074 Ry
     Harris-Foulkes estimate   =    -715.87957829 Ry
     estimated scf accuracy    <     230.80752570 Ry

     iteration #  3     ecut=    40.00 Ry     beta= 0.60
     Davidson diagonalization with overlap
     ethr =  1.65E-03,  avg # of iterations =  7.3

     total cpu time spent up to now is     2108.3 secs

     total energy              =    -701.08840867 Ry
     Harris-Foulkes estimate   =    -701.35657238 Ry
     estimated scf accuracy    <       9.87093104 Ry

     iteration #  4     ecut=    40.00 Ry     beta= 0.60
     Davidson diagonalization with overlap
     ethr =  1.65E-03,  avg # of iterations =  3.2

     total cpu time spent up to now is     2118.7 secs

     total energy              =    -701.12428211 Ry
     Harris-Foulkes estimate   =    -701.18471926 Ry
     estimated scf accuracy    <       2.35913959 Ry

     iteration #  5     ecut=    40.00 Ry     beta= 0.60
     Davidson diagonalization with overlap
     ethr =  1.65E-03,  avg # of iterations =  2.6

     total cpu time spent up to now is     2128.8 secs

     total energy              =    -701.14849485 Ry
     Harris-Foulkes estimate   =    -701.16435971 Ry
     estimated scf accuracy    <       0.45972286 Ry

     iteration #  6     ecut=    40.00 Ry     beta= 0.60
     Davidson diagonalization with overlap
     ethr =  6.30E-04,  avg # of iterations =  3.6

     total cpu time spent up to now is     2139.4 secs

     total energy              =    -701.16845793 Ry
     Harris-Foulkes estimate   =    -701.16964535 Ry
     estimated scf accuracy    <       0.05429080 Ry

     iteration #  7     ecut=    40.00 Ry     beta= 0.60
     Davidson diagonalization with overlap
     ethr =  7.44E-05,  avg # of iterations =  6.5

     total cpu time spent up to now is     2155.2 secs

     total energy              =    -701.17600750 Ry
     Harris-Foulkes estimate   =    -701.17763760 Ry
     estimated scf accuracy    <       0.12504406 Ry

     iteration #  8     ecut=    40.00 Ry     beta= 0.60
     Davidson diagonalization with overlap
     ethr =  7.44E-05,  avg # of iterations =  1.0

     total cpu time spent up to now is     2164.1 secs

     total energy              =    -701.17606745 Ry
     Harris-Foulkes estimate   =    -701.17639798 Ry
     estimated scf accuracy    <       0.05447015 Ry

     iteration #  9     ecut=    40.00 Ry     beta= 0.60
     Davidson diagonalization with overlap
     ethr =  7.44E-05,  avg # of iterations =  1.0

     total cpu time spent up to now is     2173.0 secs

     total energy              =    -701.17587607 Ry
     Harris-Foulkes estimate   =    -701.17629857 Ry
     estimated scf accuracy    <       0.08098787 Ry

     iteration # 10     ecut=    40.00 Ry     beta= 0.60
     Davidson diagonalization with overlap
     ethr =  7.44E-05,  avg # of iterations =  1.0

     total cpu time spent up to now is     2181.9 secs

     total energy              =    -701.17348475 Ry
     Harris-Foulkes estimate   =    -701.17595454 Ry
     estimated scf accuracy    <       0.07005310 Ry

     iteration # 11     ecut=    40.00 Ry     beta= 0.60
     Davidson diagonalization with overlap
     ethr =  7.44E-05,  avg # of iterations =  1.0

     total cpu time spent up to now is     2190.8 secs

     total energy              =    -701.17424033 Ry
     Harris-Foulkes estimate   =    -701.17460235 Ry
     estimated scf accuracy    <       0.01592783 Ry

     iteration # 12     ecut=    40.00 Ry     beta= 0.60
     Davidson diagonalization with overlap
     ethr =  2.18E-05,  avg # of iterations =  1.9

     total cpu time spent up to now is     2200.4 secs

     total energy              =    -701.17435862 Ry
     Harris-Foulkes estimate   =    -701.17447404 Ry
     estimated scf accuracy    <       0.00714434 Ry

     iteration # 13     ecut=    40.00 Ry     beta= 0.60
     Davidson diagonalization with overlap
     ethr =  9.79E-06,  avg # of iterations =  3.0

     total cpu time spent up to now is     2210.8 secs

     total energy              =    -701.17390845 Ry
     Harris-Foulkes estimate   =    -701.17448543 Ry
     estimated scf accuracy    <       0.00549612 Ry

     iteration # 14     ecut=    40.00 Ry     beta= 0.60
     Davidson diagonalization with overlap
     ethr =  7.53E-06,  avg # of iterations =  4.6

     total cpu time spent up to now is     2222.4 secs

     total energy              =    -701.17431068 Ry
     Harris-Foulkes estimate   =    -701.17434384 Ry
     estimated scf accuracy    <       0.00034227 Ry

     iteration # 15     ecut=    40.00 Ry     beta= 0.60
     Davidson diagonalization with overlap
     c_bands:  1 eigenvalues not converged
     ethr =  4.69E-07,  avg # of iterations =  7.1

     total cpu time spent up to now is     2239.4 secs

     total energy              =    -701.17436142 Ry
     Harris-Foulkes estimate   =    -701.17439353 Ry
     estimated scf accuracy    <       0.00036069 Ry

     iteration # 16     ecut=    40.00 Ry     beta= 0.60
     Davidson diagonalization with overlap
     ethr =  4.69E-07,  avg # of iterations =  1.1

     total cpu time spent up to now is     2248.4 secs

     total energy              =    -701.17437062 Ry
     Harris-Foulkes estimate   =    -701.17437393 Ry
     estimated scf accuracy    <       0.00001348 Ry

     iteration # 17     ecut=    40.00 Ry     beta= 0.60
     Davidson diagonalization with overlap
     ethr =  1.85E-08,  avg # of iterations =  5.5

     total cpu time spent up to now is     2264.3 secs

     total energy              =    -701.17437592 Ry
     Harris-Foulkes estimate   =    -701.17438218 Ry
[...]
     c_bands:  1 eigenvalues not converged
     ethr =  1.00E-02,  avg # of iterations =  9.3

     total cpu time spent up to now is     6748.0 secs

     total energy              =    -721.77347018 Ry
     Harris-Foulkes estimate   =    -709.09289463 Ry
     estimated scf accuracy    <      52.52079673 Ry

     iteration # 13     ecut=    40.00 Ry     beta= 0.60
     Davidson diagonalization with overlap
     ethr =  1.00E-02,  avg # of iterations =  8.4

     total cpu time spent up to now is     6768.4 secs

     total energy              =    -719.58627922 Ry
     Harris-Foulkes estimate   =    -733.98103265 Ry
     estimated scf accuracy    <     453.08306390 Ry

     iteration # 14     ecut=    40.00 Ry     beta= 0.60
     Davidson diagonalization with overlap
     ethr =  1.00E-02,  avg # of iterations =  1.0

     total cpu time spent up to now is     6776.7 secs

     total energy              =    -699.37070019 Ry
     Harris-Foulkes estimate   =    -719.64564574 Ry
     estimated scf accuracy    <     424.04841835 Ry

     iteration # 15     ecut=    40.00 Ry     beta= 0.60
     Davidson diagonalization with overlap
     ethr =  1.00E-02,  avg # of iterations =  7.2

     total cpu time spent up to now is     6796.9 secs

     total energy              =    -709.29530441 Ry
     Harris-Foulkes estimate   =    -709.54910626 Ry
     estimated scf accuracy    <      36.51347392 Ry

     iteration # 16     ecut=    40.00 Ry     beta= 0.60
     Davidson diagonalization with overlap
     ethr =  1.00E-02,  avg # of iterations =  1.0

     total cpu time spent up to now is     6805.2 secs

     total energy              =    -709.41362747 Ry
     Harris-Foulkes estimate   =    -709.83765918 Ry
     estimated scf accuracy    <      67.31329460 Ry

     iteration # 17     ecut=    40.00 Ry     beta= 0.60
     Davidson diagonalization with overlap
     ethr =  1.00E-02,  avg # of iterations =  3.2

     total cpu time spent up to now is     6815.9 secs

     total energy              =    -711.23417429 Ry
     Harris-Foulkes estimate   =    -711.68694935 Ry
     estimated scf accuracy    <      43.40658287 Ry

     iteration # 18     ecut=    40.00 Ry     beta= 0.60
     Davidson diagonalization with overlap
     ethr =  1.00E-02,  avg # of iterations =  3.0

     total cpu time spent up to now is     6825.6 secs

     total energy              =    -706.66573833 Ry
     Harris-Foulkes estimate   =    -712.82918061 Ry
     estimated scf accuracy    <     147.19675856 Ry

     iteration # 19     ecut=    40.00 Ry     beta= 0.60
     Davidson diagonalization with overlap
     ethr =  1.00E-02,  avg # of iterations =  1.1

     total cpu time spent up to now is     6833.9 secs

     total energy              =    -702.44231025 Ry
     Harris-Foulkes estimate   =    -708.88591537 Ry
     estimated scf accuracy    <      51.58442361 Ry

     iteration # 20     ecut=    40.00 Ry     beta= 0.60
     Davidson diagonalization with overlap
     ethr =  1.00E-02,  avg # of iterations =  4.5

     total cpu time spent up to now is     6847.2 secs

     total energy              =    -692.82450843 Ry
     Harris-Foulkes estimate   =    -707.31132357 Ry
     estimated scf accuracy    <      36.60694930 Ry

     iteration # 21     ecut=    40.00 Ry     beta= 0.60
     Davidson diagonalization with overlap
     ethr =  1.00E-02,  avg # of iterations =  6.2

     total cpu time spent up to now is     6866.0 secs

     total energy              =    -676.47410196 Ry
     Harris-Foulkes estimate   =    -727.69776369 Ry
     estimated scf accuracy    <     464.64397201 Ry

     iteration # 22     ecut=    40.00 Ry     beta= 0.60
     Davidson diagonalization with overlap
     ethr =  1.00E-02,  avg # of iterations =  7.6

     total cpu time spent up to now is     6886.2 secs

     total energy              =    -702.71741669 Ry
     Harris-Foulkes estimate   =    -703.93954943 Ry
     estimated scf accuracy    <      17.03598127 Ry

     iteration # 23     ecut=    40.00 Ry     beta= 0.60
     Davidson diagonalization with overlap
     ethr =  1.00E-02,  avg # of iterations =  1.1

     total cpu time spent up to now is     6894.5 secs

     total energy              =    -703.85068314 Ry
     Harris-Foulkes estimate   =    -702.81699939 Ry
     estimated scf accuracy    <      13.28675494 Ry

     iteration # 24     ecut=    40.00 Ry     beta= 0.60
     Davidson diagonalization with overlap
     ethr =  1.00E-02,  avg # of iterations =  1.0

     total cpu time spent up to now is     6902.8 secs

     total energy              =    -703.19057409 Ry
     Harris-Foulkes estimate   =    -703.91167811 Ry
     estimated scf accuracy    <      16.76885229 Ry

     iteration # 25     ecut=    40.00 Ry     beta= 0.60
     Davidson diagonalization with overlap
     ethr =  1.00E-02,  avg # of iterations =  1.0

     total cpu time spent up to now is     6911.0 secs

     total energy              =    -702.77213036 Ry
     Harris-Foulkes estimate   =    -703.21146444 Ry
     estimated scf accuracy    <      15.09837464 Ry

     iteration # 26     ecut=    40.00 Ry     beta= 0.60
     Davidson diagonalization with overlap
     ethr =  1.00E-02,  avg # of iterations =  1.0

     total cpu time spent up to now is     6919.3 secs

     total energy              =    -699.71027339 Ry
     Harris-Foulkes estimate   =    -702.79872720 Ry
     estimated scf accuracy    <      13.05666770 Ry

     iteration # 27     ecut=    40.00 Ry     beta= 0.60
     Davidson diagonalization with overlap
     ethr =  1.00E-02,  avg # of iterations =  5.8

     total cpu time spent up to now is     6940.4 secs

     total energy              =    -702.73033746 Ry
     Harris-Foulkes estimate   =    -702.51727593 Ry
     estimated scf accuracy    <      64.34246676 Ry

     iteration # 28     ecut=    40.00 Ry     beta= 0.60
     Davidson diagonalization with overlap
     ethr =  1.00E-02,  avg # of iterations =  1.6

     total cpu time spent up to now is     6952.1 secs

     total energy              =    -703.80802544 Ry
     Harris-Foulkes estimate   =    -702.81171151 Ry
     estimated scf accuracy    <      84.95448979 Ry

     iteration # 29     ecut=    40.00 Ry     beta= 0.60
     Davidson diagonalization with overlap
     ethr =  1.00E-02,  avg # of iterations =  1.8

     total cpu time spent up to now is     6964.0 secs

     total energy              =    -700.98209908 Ry
     Harris-Foulkes estimate   =    -704.01558350 Ry
     estimated scf accuracy    <      92.65472186 Ry

     iteration # 30     ecut=    40.00 Ry     beta= 0.60
     Davidson diagonalization with overlap
     ethr =  1.00E-02,  avg # of iterations =  1.7

     total cpu time spent up to now is     6975.6 secs

     total energy              =    -701.31847447 Ry
     Harris-Foulkes estimate   =    -701.61613555 Ry
     estimated scf accuracy    <      21.83562438 Ry

     iteration # 31     ecut=    40.00 Ry     beta= 0.60
     Davidson diagonalization with overlap
     ethr =  1.00E-02,  avg # of iterations =  1.0

     total cpu time spent up to now is     6986.7 secs

     total energy              =    -700.82546696 Ry
     Harris-Foulkes estimate   =    -701.42042059 Ry
     estimated scf accuracy    <       8.96854978 Ry

     iteration # 32     ecut=    40.00 Ry     beta= 0.60
     Davidson diagonalization with overlap
     ethr =  1.00E-02,  avg # of iterations =  1.1

     total cpu time spent up to now is     6997.9 secs

     total energy              =    -701.14692705 Ry
     Harris-Foulkes estimate   =    -701.15656145 Ry
     estimated scf accuracy    <       0.19448630 Ry

     iteration # 33     ecut=    40.00 Ry     beta= 0.60
     Davidson diagonalization with overlap
     ethr =  2.66E-04,  avg # of iterations =  7.5

     total cpu time spent up to now is     7024.6 secs

     total energy              =    -701.19457833 Ry
     Harris-Foulkes estimate   =    -701.23396992 Ry
     estimated scf accuracy    <       2.81265944 Ry

     iteration # 34     ecut=    40.00 Ry     beta= 0.60
     Davidson diagonalization with overlap
     ethr =  2.66E-04,  avg # of iterations =  1.0

     total cpu time spent up to now is     7035.6 secs

     total energy              =    -701.16195604 Ry
     Harris-Foulkes estimate   =    -701.20260143 Ry
     estimated scf accuracy    <       1.29387995 Ry

     iteration # 35     ecut=    40.00 Ry     beta= 0.60
     Davidson diagonalization with overlap
     ethr =  2.66E-04,  avg # of iterations =  2.7

     total cpu time spent up to now is     7048.4 secs

     total energy              =    -701.15929036 Ry
     Harris-Foulkes estimate   =    -701.17644665 Ry
     estimated scf accuracy    <       0.15490746 Ry

     iteration # 36     ecut=    40.00 Ry     beta= 0.60
     Davidson diagonalization with overlap
     ethr =  2.12E-04,  avg # of iterations =  5.5

     total cpu time spent up to now is     7065.7 secs

     total energy              =    -701.17101815 Ry
     Harris-Foulkes estimate   =    -701.17488661 Ry
     estimated scf accuracy    <       0.21045678 Ry

     iteration # 37     ecut=    40.00 Ry     beta= 0.60
     Davidson diagonalization with overlap
     ethr =  2.12E-04,  avg # of iterations =  1.1

     total cpu time spent up to now is     7076.8 secs

     total energy              =    -701.17066402 Ry
     Harris-Foulkes estimate   =    -701.17248115 Ry
     estimated scf accuracy    <       0.08411656 Ry

     iteration # 38     ecut=    40.00 Ry     beta= 0.60
     Davidson diagonalization with overlap
     ethr =  1.15E-04,  avg # of iterations =  1.2

     total cpu time spent up to now is     7088.0 secs

     total energy              =    -701.16887194 Ry
     Harris-Foulkes estimate   =    -701.17136969 Ry
     estimated scf accuracy    <       0.03341107 Ry

     iteration # 39     ecut=    40.00 Ry     beta= 0.60
     Davidson diagonalization with overlap
     ethr =  4.58E-05,  avg # of iterations =  4.7

     total cpu time spent up to now is     7103.4 secs

     total energy              =    -701.16999938 Ry
     Harris-Foulkes estimate   =    -701.17155921 Ry
     estimated scf accuracy    <       0.03830726 Ry

     iteration # 40     ecut=    40.00 Ry     beta= 0.60
     Davidson diagonalization with overlap
     ethr =  4.58E-05,  avg # of iterations =  1.1

     total cpu time spent up to now is     7114.6 secs

     total energy              =    -701.16942211 Ry
     Harris-Foulkes estimate   =    -701.17046295 Ry
     estimated scf accuracy    <       0.01438648 Ry

     iteration # 41     ecut=    40.00 Ry     beta= 0.60
     Davidson diagonalization with overlap
     ethr =  1.97E-05,  avg # of iterations =  3.9

     total cpu time spent up to now is     7128.8 secs

     total energy              =    -701.16988951 Ry
     Harris-Foulkes estimate   =    -701.16991452 Ry
     estimated scf accuracy    <       0.00014326 Ry

     iteration # 42     ecut=    40.00 Ry     beta= 0.60
     Davidson diagonalization with overlap
     c_bands:  2 eigenvalues not converged
     ethr =  1.96E-07,  avg # of iterations =  7.3

     total cpu time spent up to now is     7155.9 secs

     total energy              =    -701.17005536 Ry
     Harris-Foulkes estimate   =    -701.17007308 Ry
     estimated scf accuracy    <       0.00045802 Ry

     iteration # 43     ecut=    40.00 Ry     beta= 0.60
     Davidson diagonalization with overlap
     ethr =  1.96E-07,  avg # of iterations =  1.1

     total cpu time spent up to now is     7167.0 secs

     total energy              =    -701.17002890 Ry
     Harris-Foulkes estimate   =    -701.17005726 Ry
     estimated scf accuracy    <       0.00027907 Ry

     iteration # 44     ecut=    40.00 Ry     beta= 0.60
     Davidson diagonalization with overlap
     ethr =  1.96E-07,  avg # of iterations =  3.2

     total cpu time spent up to now is     7181.4 secs

     total energy              =    -701.17004599 Ry
     Harris-Foulkes estimate   =    -701.17004617 Ry
     estimated scf accuracy    <       0.00000254 Ry

     iteration # 45     ecut=    40.00 Ry     beta= 0.60
     Davidson diagonalization with overlap
     ethr =  3.48E-09,  avg # of iterations =  5.3

     total cpu time spent up to now is     7200.1 secs

     total energy              =    -701.17004629 Ry
     Harris-Foulkes estimate   =    -701.17004670 Ry
     estimated scf accuracy    <       0.00000479 Ry

     iteration # 46     ecut=    40.00 Ry     beta= 0.60
     Davidson diagonalization with overlap
     ethr =  3.48E-09,  avg # of iterations =  1.0

     total cpu time spent up to now is     7211.2 secs

     total energy              =    -701.17004628 Ry
     Harris-Foulkes estimate   =    -701.17004640 Ry
     estimated scf accuracy    <       0.00000099 Ry

     iteration # 47     ecut=    40.00 Ry     beta= 0.60
     Davidson diagonalization with overlap
     ethr =  1.35E-09,  avg # of iterations =  3.8

     total cpu time spent up to now is     7226.7 secs

     total energy              =    -701.17004640 Ry
     Harris-Foulkes estimate   =    -701.17004641 Ry
     estimated scf accuracy    <       0.00000012 Ry

     iteration # 48     ecut=    40.00 Ry     beta= 0.60
     Davidson diagonalization with overlap
     ethr =  1.64E-10,  avg # of iterations =  2.8

     total cpu time spent up to now is     7239.8 secs

     total energy              =    -701.17004640 Ry
     Harris-Foulkes estimate   =    -701.17004640 Ry
     estimated scf accuracy    <       0.00000003 Ry

     iteration # 49     ecut=    40.00 Ry     beta= 0.60
     Davidson diagonalization with overlap
     ethr =  3.77E-11,  avg # of iterations =  4.2

     total cpu time spent up to now is     7256.1 secs

     total energy              =    -701.17004640 Ry
     Harris-Foulkes estimate   =    -701.17004641 Ry
     estimated scf accuracy    <          2.6E-09 Ry

     iteration # 50     ecut=    40.00 Ry     beta= 0.60
     Davidson diagonalization with overlap
     ethr =  3.61E-12,  avg # of iterations =  4.4

     total cpu time spent up to now is     7272.6 secs

     total energy              =    -701.17004641 Ry
     Harris-Foulkes estimate   =    -701.17004641 Ry
     estimated scf accuracy    <          2.1E-10 Ry

     iteration # 51     ecut=    40.00 Ry     beta= 0.60
     Davidson diagonalization with overlap
     ethr =  2.84E-13,  avg # of iterations =  5.0

     total cpu time spent up to now is     7291.8 secs

     total energy              =    -701.17004641 Ry
     Harris-Foulkes estimate   =    -701.17004641 Ry
     estimated scf accuracy    <          1.8E-11 Ry

     iteration # 52     ecut=    40.00 Ry     beta= 0.60
     Davidson diagonalization with overlap
     ethr =  1.00E-13,  avg # of iterations =  1.2

     total cpu time spent up to now is     7303.0 secs

     total energy              =    -701.17004641 Ry
     Harris-Foulkes estimate   =    -701.17004641 Ry
     estimated scf accuracy    <          2.3E-11 Ry

     iteration # 53     ecut=    40.00 Ry     beta= 0.60
     Davidson diagonalization with overlap
     ethr =  1.00E-13,  avg # of iterations =  1.0

     total cpu time spent up to now is     7314.0 secs

     total energy              =    -701.17004641 Ry
     Harris-Foulkes estimate   =    -701.17004641 Ry
     estimated scf accuracy    <          9.9E-12 Ry

     iteration # 54     ecut=    40.00 Ry     beta= 0.60
     Davidson diagonalization with overlap
     ethr =  1.00E-13,  avg # of iterations =  1.0

     total cpu time spent up to now is     7324.5 secs

     End of self-consistent calculation

     Number of k-points >= 100: set verbosity='high' to print the bands.

     the Fermi energy is    14.2329 ev

!    total energy              =    -701.17004641 Ry
     Harris-Foulkes estimate   =    -701.17004641 Ry
     estimated scf accuracy    <          6.5E-13 Ry

     The total energy is the sum of the following terms:

     one-electron contribution =    -224.02929008 Ry
     hartree contribution      =     137.24168104 Ry
     xc contribution           =     -91.04640565 Ry
     ewald contribution        =    -523.33337149 Ry
     smearing contrib. (-TS)   =      -0.00266022 Ry

     convergence has been achieved in  54 iterations

     Forces acting on atoms (cartesian axes, Ry/au):

     atom    1 type  2   force =     0.00000000   -0.00000000    0.00000000
     atom    2 type  2   force =     0.00000000   -0.00000000   -0.00003689
     atom    3 type  2   force =     0.00000000    0.00000000    0.00024404
     atom    4 type  2   force =     0.00000000    0.00000000    0.00003689
     atom    5 type  2   force =    -0.00000000   -0.00000000   -0.00024404
     atom    6 type  1   force =     0.00000000   -0.00000000    0.00000000

     Total force =     0.000349     Total SCF correction =     0.000002


     Computing stress (Cartesian axis) and pressure

          total   stress  (Ry/bohr**3)                   (kbar)     P=   -6.99
  -0.00004635  -0.00000000  -0.00000000         -6.82     -0.00     -0.00
  -0.00000000  -0.00004635   0.00000000         -0.00     -6.82      0.00
  -0.00000000  -0.00000000  -0.00004980         -0.00     -0.00     -7.33

 
     init_run     :     10.70s CPU     11.32s WALL (       2 calls)
     electrons    :   6931.14s CPU   7141.19s WALL (      20 calls)
     update_pot   :     26.28s CPU     26.32s WALL (      18 calls)
     forces       :     40.33s CPU     42.50s WALL (      20 calls)
     stress       :     96.89s CPU    103.20s WALL (      20 calls)

     Called by init_run:
     wfcinit      :      8.47s CPU      8.71s WALL (       2 calls)
     potinit      :      0.70s CPU      0.72s WALL (       2 calls)
     hinit0       :      1.22s CPU      1.47s WALL (       2 calls)

     Called by electrons:
     c_bands      :   6052.38s CPU   6143.92s WALL (     509 calls)
     sum_band     :    781.75s CPU    846.72s WALL (     509 calls)
     v_of_rho     :     21.27s CPU     21.32s WALL (     526 calls)
     newd         :     74.70s CPU    129.12s WALL (     526 calls)
     mix_rho      :      2.75s CPU      2.79s WALL (     509 calls)

     Called by c_bands:
     init_us_2    :     93.70s CPU     94.28s WALL (  127200 calls)
     cegterg      :   5508.76s CPU   5593.40s WALL (   61195 calls)

     Called by sum_band:
     sum_band:bec :      2.90s CPU      2.97s WALL (   61080 calls)
     addusdens    :     88.69s CPU    139.78s WALL (     509 calls)

     Called by *egterg:
     h_psi        :   3093.27s CPU   3168.85s WALL (  301096 calls)
     s_psi        :    225.40s CPU    226.06s WALL (  301096 calls)
     g_psi        :     32.16s CPU     32.82s WALL (  239661 calls)
     cdiaghg      :   1262.71s CPU   1265.80s WALL (  298336 calls)

     Called by h_psi:
     h_psi:pot    :   3073.60s CPU   3148.86s WALL (  301096 calls)
     h_psi:calbec :    232.36s CPU    234.56s WALL (  301096 calls)
     vloc_psi     :   2609.75s CPU   2681.79s WALL (  301096 calls)
     add_vuspsi   :    230.01s CPU    230.61s WALL (  301096 calls)

     General routines
     calbec       :    319.65s CPU    322.23s WALL (  374176 calls)
     fft          :     12.47s CPU     12.85s WALL (    7339 calls)
     ffts         :      0.36s CPU      0.37s WALL (    1035 calls)
     fftw         :   2748.59s CPU   2821.59s WALL (17231738 calls)
     interpolate  :      1.16s CPU      1.17s WALL (     526 calls)
 
     Parallel routines
     fft_scatt_xy :    538.43s CPU    554.47s WALL (17240112 calls)
     fft_scatt_yz :    684.51s CPU    706.37s WALL (17240112 calls)
 
     PWSCF        :     1h58m CPU       58h 2m WALL

       2h
 
   This run was terminated on:  11:34:48  24Jan2020            

=------------------------------------------------------------------------------=
   JOB DONE.
=------------------------------------------------------------------------------=
