
     Program PWSCF v.6.3MaX starts on 24Jan2020 at  9:41:31 

     This program is part of the open-source Quantum ESPRESSO suite
     for quantum simulation of materials; please cite
         "P. Giannozzi et al., J. Phys.:Condens. Matter 21 395502 (2009);
         "P. Giannozzi et al., J. Phys.:Condens. Matter 29 465901 (2017);
          URL http://www.quantum-espresso.org", 
     in publications or presentations arising from this work. More details at
     http://www.quantum-espresso.org/quote

     Parallel version (MPI), running on     4 processors

     MPI processes distributed on     1 nodes
     R & G space division:  proc/nbgrp/npool/nimage =       4
     Waiting for input...
     Reading input from standard input

     Current dimensions of program PWSCF are:
     Max number of different atomic species (ntypx) = 10
     Max number of k-points (npk) =  40000
     Max angular momentum in pseudopotentials (lmaxx) =  3
     Message from routine iosys:
     minimal I/O required, wf_collect reset to FALSE

     Subspace diagonalization in iterative solution of the eigenvalue problem:
     a serial algorithm will be used

 
     Parallelization info
     --------------------
     sticks:   dense  smooth     PW     G-vecs:    dense   smooth      PW
     Min        1073     428    156                27702     7013    1564
     Max        1074     429    157                27703     7014    1565
     Sum        4295    1715    627               110809    28053    6257
 


     bravais-lattice index     =            0
     lattice parameter (alat)  =       1.8897  a.u.
     unit-cell volume          =     586.6735 (a.u.)^3
     number of atoms/cell      =            4
     number of atomic types    =            2
     number of electrons       =        49.00
     number of Kohn-Sham states=           30
     kinetic-energy cutoff     =      50.0000  Ry
     charge density cutoff     =     500.0000  Ry
     convergence threshold     =      1.0E-10
     mixing beta               =       0.6000
     number of iterations used =            8  plain     mixing
     Exchange-correlation      = SLA PW PBE PBE ( 1  4  3  4 0 0)
     nstep                     =           50


     celldm(1)=   1.889726  celldm(2)=   0.000000  celldm(3)=   0.000000
     celldm(4)=   0.000000  celldm(5)=   0.000000  celldm(6)=   0.000000

     crystal axes: (cart. coord. in units of alat)
               a(1) = (  -5.274095   1.758031   1.758031 )  
               a(2) = (   1.758031   1.758031  -5.274095 )  
               a(3) = (   1.758031  -5.274095   1.758031 )  

     reciprocal axes: (cart. coord. in units 2 pi/alat)
               b(1) = ( -0.284409 -0.142205 -0.142205 )  
               b(2) = ( -0.142205 -0.142205 -0.284409 )  
               b(3) = ( -0.142205 -0.284409 -0.142205 )  


     PseudoPot. # 1 for Nb read from file:
     ./Nb.pbe-nsp-van.UPF
     MD5 check sum: 0a22fc7fb0ba19a08ca5db297a5d2854
     Pseudo is Ultrasoft + core correction, Zval = 13.0
     Generated by new atomic code, or converted to UPF format
     Using radial grid of  887 points,  6 beta functions with: 
                l(1) =   0
                l(2) =   0
                l(3) =   1
                l(4) =   1
                l(5) =   2
                l(6) =   2
     Q(r) pseudized with  6 coefficients,  rinner =    1.000   1.000   1.000
                                                       1.000   1.000

     PseudoPot. # 2 for Ti read from file:
     ./Ti.pbe-sp-van_ak.UPF
     MD5 check sum: f98fea3e8887528921fefa5636a534ca
     Pseudo is Ultrasoft, Zval = 12.0
     Generated by new atomic code, or converted to UPF format
     Using radial grid of  851 points,  6 beta functions with: 
                l(1) =   0
                l(2) =   0
                l(3) =   1
                l(4) =   1
                l(5) =   2
                l(6) =   2
     Q(r) pseudized with  8 coefficients,  rinner =    1.000   1.000   1.000
                                                       1.000   1.000

     atomic species   valence    mass     pseudopotential
        Nb            13.00    92.90638     Nb( 1.00)
        Ti            12.00    47.86700     Ti( 1.00)

     12 Sym. Ops., with inversion, found



   Cartesian axes

     site n.     atom                  positions (alat units)
         1           Ti  tau(   1) = (   0.0000000   0.0000000  -3.5160633  )
         2           Ti  tau(   2) = (   0.0000000  -3.5160633   0.0000000  )
         3           Ti  tau(   3) = (  -3.5160633   0.0000000   0.0000000  )
         4           Nb  tau(   4) = (  -1.7580316  -1.7580316  -1.7580316  )

     number of k points=   231  Marzari-Vanderbilt smearing, width (Ry)=  0.0200

     Number of k-points >= 100: set verbosity='high' to print them.

     Dense  grid:   110809 G-vectors     FFT dimensions: (  80,  80,  80)

     Smooth grid:    28053 G-vectors     FFT dimensions: (  50,  50,  50)

     Estimated max dynamical RAM per process >     202.02 MB

     Estimated total dynamical RAM >     808.06 MB

     Initial potential from superposition of free atoms

     starting charge   45.99713, renormalised to   49.00000
     Starting wfcs are   43 randomized atomic wfcs

     total cpu time spent up to now is       14.2 secs

     Self-consistent Calculation

     iteration #  1     ecut=    50.00 Ry     beta= 0.60
     Davidson diagonalization with overlap
     ethr =  1.00E-02,  avg # of iterations =  3.8

     total cpu time spent up to now is       43.9 secs

     total energy              =    -464.32891951 Ry
     Harris-Foulkes estimate   =    -469.31755597 Ry
     estimated scf accuracy    <       6.47642676 Ry

     iteration #  2     ecut=    50.00 Ry     beta= 0.60
     Davidson diagonalization with overlap
     ethr =  1.00E-02,  avg # of iterations =  5.0

     total cpu time spent up to now is       78.4 secs

     total energy              =    -463.55486763 Ry
     Harris-Foulkes estimate   =    -475.98354503 Ry
     estimated scf accuracy    <      44.07789922 Ry

     iteration #  3     ecut=    50.00 Ry     beta= 0.60
     Davidson diagonalization with overlap
     ethr =  1.00E-02,  avg # of iterations =  4.5

     total cpu time spent up to now is      110.6 secs

     total energy              =    -467.62779340 Ry
     Harris-Foulkes estimate   =    -467.84911297 Ry
     estimated scf accuracy    <       0.88501764 Ry

     iteration #  4     ecut=    50.00 Ry     beta= 0.60
     Davidson diagonalization with overlap
     ethr =  1.81E-03,  avg # of iterations =  4.7

     total cpu time spent up to now is      136.5 secs

     total energy              =    -467.75453863 Ry
     Harris-Foulkes estimate   =    -467.78977255 Ry
     estimated scf accuracy    <       0.17370089 Ry

     iteration #  5     ecut=    50.00 Ry     beta= 0.60
     Davidson diagonalization with overlap
     ethr =  3.54E-04,  avg # of iterations =  7.0

     total cpu time spent up to now is      167.6 secs

     total energy              =    -467.78636867 Ry
     Harris-Foulkes estimate   =    -467.78530880 Ry
     estimated scf accuracy    <       0.01114976 Ry

     iteration #  6     ecut=    50.00 Ry     beta= 0.60
     Davidson diagonalization with overlap
     ethr =  2.28E-05,  avg # of iterations =  6.9

     total cpu time spent up to now is      207.8 secs

     total energy              =    -467.77510291 Ry
     Harris-Foulkes estimate   =    -467.81142149 Ry
     estimated scf accuracy    <       0.28182636 Ry

     iteration #  7     ecut=    50.00 Ry     beta= 0.60
     Davidson diagonalization with overlap
     ethr =  2.28E-05,  avg # of iterations =  6.1

     total cpu time spent up to now is      242.5 secs

     total energy              =    -467.78473368 Ry
     Harris-Foulkes estimate   =    -467.78771694 Ry
     estimated scf accuracy    <       0.01185784 Ry

     iteration #  8     ecut=    50.00 Ry     beta= 0.60
     Davidson diagonalization with overlap
     ethr =  2.28E-05,  avg # of iterations =  1.1

     total cpu time spent up to now is      262.6 secs

     total energy              =    -467.78497679 Ry
     Harris-Foulkes estimate   =    -467.78544319 Ry
     estimated scf accuracy    <       0.00132643 Ry

     iteration #  9     ecut=    50.00 Ry     beta= 0.60
     Davidson diagonalization with overlap
     c_bands:  1 eigenvalues not converged
     ethr =  2.71E-06,  avg # of iterations =  9.6

     total cpu time spent up to now is      298.0 secs

     total energy              =    -467.78534853 Ry
     Harris-Foulkes estimate   =    -467.78540177 Ry
     estimated scf accuracy    <       0.00041933 Ry

     iteration # 10     ecut=    50.00 Ry     beta= 0.60
     Davidson diagonalization with overlap
     ethr =  8.56E-07,  avg # of iterations =  2.3

     total cpu time spent up to now is      319.1 secs

     total energy              =    -467.78533258 Ry
     Harris-Foulkes estimate   =    -467.78537143 Ry
     estimated scf accuracy    <       0.00017639 Ry

     iteration # 11     ecut=    50.00 Ry     beta= 0.60
     Davidson diagonalization with overlap
     ethr =  3.60E-07,  avg # of iterations =  3.9

     total cpu time spent up to now is      345.2 secs

     total energy              =    -467.78535747 Ry
     Harris-Foulkes estimate   =    -467.78537682 Ry
     estimated scf accuracy    <       0.00015207 Ry

     iteration # 12     ecut=    50.00 Ry     beta= 0.60
     Davidson diagonalization with overlap
     ethr =  3.10E-07,  avg # of iterations =  1.0

     total cpu time spent up to now is      365.1 secs

     total energy              =    -467.78536297 Ry
     Harris-Foulkes estimate   =    -467.78536484 Ry
     estimated scf accuracy    <       0.00001029 Ry

     iteration # 13     ecut=    50.00 Ry     beta= 0.60
     Davidson diagonalization with overlap
     ethr =  2.10E-08,  avg # of iterations =  5.0

     total cpu time spent up to now is      394.9 secs

     total energy              =    -467.78536679 Ry
     Harris-Foulkes estimate   =    -467.78536833 Ry
     estimated scf accuracy    <       0.00001147 Ry

     iteration # 14     ecut=    50.00 Ry     beta= 0.60
     Davidson diagonalization with overlap
     ethr =  2.10E-08,  avg # of iterations =  1.0

     total cpu time spent up to now is      414.9 secs

     total energy              =    -467.78536733 Ry
     Harris-Foulkes estimate   =    -467.78536735 Ry
     estimated scf accuracy    <       0.00000067 Ry

     iteration # 15     ecut=    50.00 Ry     beta= 0.60
     Davidson diagonalization with overlap
     ethr =  1.37E-09,  avg # of iterations =  4.5

     total cpu time spent up to now is      444.1 secs

     total energy              =    -467.78536761 Ry
     Harris-Foulkes estimate   =    -467.78536763 Ry
     estimated scf accuracy    <       0.00000014 Ry

     iteration # 16     ecut=    50.00 Ry     beta= 0.60
     Davidson diagonalization with overlap
     ethr =  2.81E-10,  avg # of iterations =  1.9

     total cpu time spent up to now is      464.8 secs

     total energy              =    -467.78536762 Ry
     Harris-Foulkes estimate   =    -467.78536762 Ry
     estimated scf accuracy    <       0.00000001 Ry

     iteration # 17     ecut=    50.00 Ry     beta= 0.60
     Davidson diagonalization with overlap
     ethr =  2.68E-11,  avg # of iterations =  4.3

     total cpu time spent up to now is      492.9 secs

     total energy              =    -467.78536762 Ry
     Harris-Foulkes estimate   =    -467.78536762 Ry
     estimated scf accuracy    <          1.2E-10 Ry

     iteration # 18     ecut=    50.00 Ry     beta= 0.60
     Davidson diagonalization with overlap
     ethr =  2.45E-13,  avg # of iterations =  5.4

     total cpu time spent up to now is      530.5 secs

     End of self-consistent calculation

     Number of k-points >= 100: set verbosity='high' to print the bands.

     the Fermi energy is    11.0592 ev

!    total energy              =    -467.78536762 Ry
     Harris-Foulkes estimate   =    -467.78536762 Ry
     estimated scf accuracy    <          7.3E-12 Ry

     The total energy is the sum of the following terms:

     one-electron contribution =    -177.28503548 Ry
     hartree contribution      =      99.80822982 Ry
     xc contribution           =     -61.37517415 Ry
     ewald contribution        =    -328.93287699 Ry
     smearing contrib. (-TS)   =      -0.00051083 Ry

     convergence has been achieved in  18 iterations

     Forces acting on atoms (cartesian axes, Ry/au):

     atom    1 type  2   force =     0.00000000    0.00000000    0.00000000
     atom    2 type  2   force =    -0.00000000   -0.00000000   -0.00000000
     atom    3 type  2   force =     0.00000000    0.00000000   -0.00000000
     atom    4 type  1   force =     0.00000000    0.00000000    0.00000000

     Total force =     0.000000     Total SCF correction =     0.000000


     Computing stress (Cartesian axis) and pressure

          total   stress  (Ry/bohr**3)                   (kbar)     P= -184.35
  -0.00125319  -0.00000507  -0.00000507       -184.35     -0.75     -0.75
  -0.00000507  -0.00125319  -0.00000507         -0.75   -184.35     -0.75
  -0.00000507  -0.00000507  -0.00125319         -0.75     -0.75   -184.35


     BFGS Geometry Optimization

     number of scf cycles    =   1
     number of bfgs steps    =   0

     enthalpy new            =    -467.7853676246 Ry

     new trust radius        =       0.1517722740 bohr
     new conv_thr            =            1.0E-10 Ry

     new unit-cell volume =    533.24193 a.u.^3 (    79.01830 Ang^3 )
     density =      4.97011 g/cm^3

CELL_PARAMETERS (alat=  1.88972599)
  -5.109303843   1.703398268   1.703398268
   1.703398268   1.703398268  -5.109303843
   1.703398268  -5.109303843   1.703398268

ATOMIC_POSITIONS (angstrom)
Ti       0.000445480   0.000445480  -3.405905576
Ti       0.000445480  -3.405905576   0.000445480
Ti      -3.405905576   0.000445480   0.000445480
Nb      -1.702507308  -1.702507308  -1.702507308


     NEW-OLD atomic charge density approx. for the potential
     extrapolated charge   44.39103, renormalised to   49.00000

     total cpu time spent up to now is      539.8 secs

     Self-consistent Calculation

     iteration #  1     ecut=    50.00 Ry     beta= 0.60
     Davidson diagonalization with overlap
     c_bands:  1 eigenvalues not converged
     c_bands:  1 eigenvalues not converged
     c_bands:  1 eigenvalues not converged
     c_bands:  1 eigenvalues not converged
     c_bands:  1 eigenvalues not converged
     c_bands:  2 eigenvalues not converged
     c_bands:  1 eigenvalues not converged
     c_bands:  1 eigenvalues not converged
     c_bands:  1 eigenvalues not converged
     c_bands:  1 eigenvalues not converged
     c_bands:  2 eigenvalues not converged
     c_bands:  1 eigenvalues not converged
     c_bands:  1 eigenvalues not converged
     c_bands:  1 eigenvalues not converged
     c_bands:  1 eigenvalues not converged
     c_bands:  1 eigenvalues not converged
     c_bands:  2 eigenvalues not converged
     c_bands:  1 eigenvalues not converged
     c_bands:  1 eigenvalues not converged
     c_bands:  1 eigenvalues not converged
     c_bands:  2 eigenvalues not converged
     ethr =  1.00E-06,  avg # of iterations = 15.2

     total cpu time spent up to now is      617.6 secs

     total energy              =    -455.32787816 Ry
     Harris-Foulkes estimate   =    -479.95527145 Ry
     estimated scf accuracy    <      13.35838073 Ry

     iteration #  2     ecut=    50.00 Ry     beta= 0.60
     Davidson diagonalization with overlap
     ethr =  1.00E-02,  avg # of iterations =  5.6

     total cpu time spent up to now is      658.6 secs

     total energy              =    -466.00939781 Ry
     Harris-Foulkes estimate   =    -485.98969955 Ry
     estimated scf accuracy    <      64.44242326 Ry

     iteration #  3     ecut=    50.00 Ry     beta= 0.60
     Davidson diagonalization with overlap
     ethr =  1.00E-02,  avg # of iterations =  4.1

     total cpu time spent up to now is      688.7 secs

     total energy              =    -468.68940708 Ry
     Harris-Foulkes estimate   =    -470.54384649 Ry
     estimated scf accuracy    <       8.20727930 Ry

     iteration #  4     ecut=    50.00 Ry     beta= 0.60
     Davidson diagonalization with overlap
     ethr =  1.00E-02,  avg # of iterations =  1.2

     total cpu time spent up to now is      708.8 secs

     total energy              =    -469.02278712 Ry
     Harris-Foulkes estimate   =    -468.90179317 Ry
     estimated scf accuracy    <       6.41413852 Ry

     iteration #  5     ecut=    50.00 Ry     beta= 0.60
     Davidson diagonalization with overlap
     ethr =  1.00E-02,  avg # of iterations =  1.0

     total cpu time spent up to now is      728.7 secs

     total energy              =    -469.02214964 Ry
     Harris-Foulkes estimate   =    -469.06297316 Ry
     estimated scf accuracy    <       6.91584852 Ry

     iteration #  6     ecut=    50.00 Ry     beta= 0.60
     Davidson diagonalization with overlap
     ethr =  1.00E-02,  avg # of iterations =  1.0

     total cpu time spent up to now is      748.8 secs

     total energy              =    -469.55159050 Ry
     Harris-Foulkes estimate   =    -469.03867173 Ry
     estimated scf accuracy    <       6.54330395 Ry

     iteration #  7     ecut=    50.00 Ry     beta= 0.60
     Davidson diagonalization with overlap
     ethr =  1.00E-02,  avg # of iterations =  1.0

     total cpu time spent up to now is      768.8 secs

     total energy              =    -467.17653312 Ry
     Harris-Foulkes estimate   =    -469.56961507 Ry
     estimated scf accuracy    <       7.99537088 Ry

     iteration #  8     ecut=    50.00 Ry     beta= 0.60
     Davidson diagonalization with overlap
     ethr =  1.00E-02,  avg # of iterations =  3.0

     total cpu time spent up to now is      791.7 secs

     total energy              =    -467.78484205 Ry
     Harris-Foulkes estimate   =    -467.74614687 Ry
     estimated scf accuracy    <       0.73818816 Ry

     iteration #  9     ecut=    50.00 Ry     beta= 0.60
     Davidson diagonalization with overlap
     ethr =  1.51E-03,  avg # of iterations =  4.6

     total cpu time spent up to now is      818.2 secs

     total energy              =    -467.90201930 Ry
     Harris-Foulkes estimate   =    -467.87704520 Ry
     estimated scf accuracy    <       0.58488313 Ry

     iteration # 10     ecut=    50.00 Ry     beta= 0.60
     Davidson diagonalization with overlap
     ethr =  1.19E-03,  avg # of iterations =  1.3

     total cpu time spent up to now is      838.3 secs

     total energy              =    -467.69911149 Ry
     Harris-Foulkes estimate   =    -467.91015222 Ry
     estimated scf accuracy    <       0.68349766 Ry

     iteration # 11     ecut=    50.00 Ry     beta= 0.60
     Davidson diagonalization with overlap
     ethr =  1.19E-03,  avg # of iterations =  5.4

     total cpu time spent up to now is      867.6 secs

     total energy              =    -467.82354870 Ry
     Harris-Foulkes estimate   =    -467.95226324 Ry
     estimated scf accuracy    <       1.01260843 Ry

     iteration # 12     ecut=    50.00 Ry     beta= 0.60
     Davidson diagonalization with overlap
     ethr =  1.19E-03,  avg # of iterations =  1.2

     total cpu time spent up to now is      887.8 secs

     total energy              =    -467.77220751 Ry
     Harris-Foulkes estimate   =    -467.85182711 Ry
     estimated scf accuracy    <       0.24738184 Ry

     iteration # 13     ecut=    50.00 Ry     beta= 0.60
     Davidson diagonalization with overlap
     ethr =  5.05E-04,  avg # of iterations =  4.5

     total cpu time spent up to now is      915.5 secs

     total energy              =    -467.81622076 Ry
     Harris-Foulkes estimate   =    -467.85457520 Ry
     estimated scf accuracy    <       0.09791105 Ry

     iteration # 14     ecut=    50.00 Ry     beta= 0.60
     Davidson diagonalization with overlap
     ethr =  2.00E-04,  avg # of iterations =  5.4

     total cpu time spent up to now is      945.0 secs

     total energy              =    -467.84126073 Ry
     Harris-Foulkes estimate   =    -467.85918938 Ry
     estimated scf accuracy    <       0.14841091 Ry

     iteration # 15     ecut=    50.00 Ry     beta= 0.60
     Davidson diagonalization with overlap
     ethr =  2.00E-04,  avg # of iterations =  1.2

     total cpu time spent up to now is      965.1 secs

     total energy              =    -467.84019940 Ry
     Harris-Foulkes estimate   =    -467.84441880 Ry
     estimated scf accuracy    <       0.05947894 Ry

     iteration # 16     ecut=    50.00 Ry     beta= 0.60
     Davidson diagonalization with overlap
     ethr =  1.21E-04,  avg # of iterations =  2.2

     total cpu time spent up to now is      987.1 secs

     total energy              =    -467.83957997 Ry
     Harris-Foulkes estimate   =    -467.84308098 Ry
     estimated scf accuracy    <       0.02291763 Ry

     iteration # 17     ecut=    50.00 Ry     beta= 0.60
     Davidson diagonalization with overlap
     ethr =  4.68E-05,  avg # of iterations =  5.5

     total cpu time spent up to now is     1014.2 secs

     total energy              =    -467.84337902 Ry
     Harris-Foulkes estimate   =    -467.84362090 Ry
     estimated scf accuracy    <       0.00563042 Ry

     iteration # 18     ecut=    50.00 Ry     beta= 0.60
     Davidson diagonalization with overlap
     c_bands:  1 eigenvalues not converged
     c_bands:  1 eigenvalues not converged
     c_bands:  1 eigenvalues not converged
     c_bands:  2 eigenvalues not converged
     c_bands:  2 eigenvalues not converged
     c_bands:  1 eigenvalues not converged
     c_bands:  1 eigenvalues not converged
     c_bands:  1 eigenvalues not converged
     c_bands:  1 eigenvalues not converged
     c_bands:  1 eigenvalues not converged
     c_bands:  2 eigenvalues not converged
     c_bands:  1 eigenvalues not converged
     c_bands:  1 eigenvalues not converged
     c_bands:  2 eigenvalues not converged
     ethr =  1.15E-05,  avg # of iterations =  7.6

     total cpu time spent up to now is     1041.6 secs

     total energy              =    -467.84264468 Ry
     Harris-Foulkes estimate   =    -467.84362671 Ry
     estimated scf accuracy    <       0.00535540 Ry

     iteration # 19     ecut=    50.00 Ry     beta= 0.60
     Davidson diagonalization with overlap
     ethr =  1.09E-05,  avg # of iterations =  1.2

     total cpu time spent up to now is     1061.6 secs

     total energy              =    -467.84248516 Ry
     Harris-Foulkes estimate   =    -467.84280636 Ry
     estimated scf accuracy    <       0.00180025 Ry

     iteration # 20     ecut=    50.00 Ry     beta= 0.60
     Davidson diagonalization with overlap
     c_bands:  1 eigenvalues not converged
     c_bands:  1 eigenvalues not converged
     c_bands:  1 eigenvalues not converged
     c_bands:  1 eigenvalues not converged
     c_bands:  1 eigenvalues not converged
     ethr =  3.67E-06,  avg # of iterations =  6.9

     total cpu time spent up to now is     1090.8 secs

     total energy              =    -467.84280718 Ry
     Harris-Foulkes estimate   =    -467.84281264 Ry
     estimated scf accuracy    <       0.00006061 Ry

     iteration # 21     ecut=    50.00 Ry     beta= 0.60
     Davidson diagonalization with overlap
     c_bands:  1 eigenvalues not converged
     ethr =  1.24E-07,  avg # of iterations =  5.0

     total cpu time spent up to now is     1118.3 secs

     total energy              =    -467.84281592 Ry
     Harris-Foulkes estimate   =    -467.84281953 Ry
     estimated scf accuracy    <       0.00004321 Ry

     iteration # 22     ecut=    50.00 Ry     beta= 0.60
     Davidson diagonalization with overlap
     ethr =  8.82E-08,  avg # of iterations =  1.3

     total cpu time spent up to now is     1138.5 secs

     total energy              =    -467.84281393 Ry
     Harris-Foulkes estimate   =    -467.84281726 Ry
     estimated scf accuracy    <       0.00001395 Ry

     iteration # 23     ecut=    50.00 Ry     beta= 0.60
     Davidson diagonalization with overlap
     ethr =  2.85E-08,  avg # of iterations =  4.1

     total cpu time spent up to now is     1165.1 secs

     total energy              =    -467.84281656 Ry
     Harris-Foulkes estimate   =    -467.84281814 Ry
     estimated scf accuracy    <       0.00001172 Ry

     iteration # 24     ecut=    50.00 Ry     beta= 0.60
     Davidson diagonalization with overlap
     ethr =  2.39E-08,  avg # of iterations =  1.0

     total cpu time spent up to now is     1185.1 secs

     total energy              =    -467.84281681 Ry
     Harris-Foulkes estimate   =    -467.84281704 Ry
     estimated scf accuracy    <       0.00000160 Ry

     iteration # 25     ecut=    50.00 Ry     beta= 0.60
     Davidson diagonalization with overlap
     ethr =  3.26E-09,  avg # of iterations =  4.3

     total cpu time spent up to now is     1212.5 secs

     total energy              =    -467.84281730 Ry
     Harris-Foulkes estimate   =    -467.84281736 Ry
     estimated scf accuracy    <       0.00000092 Ry

     iteration # 26     ecut=    50.00 Ry     beta= 0.60
     Davidson diagonalization with overlap
     ethr =  1.88E-09,  avg # of iterations =  1.0

     total cpu time spent up to now is     1232.5 secs

     total energy              =    -467.84281727 Ry
     Harris-Foulkes estimate   =    -467.84281731 Ry
     estimated scf accuracy    <       0.00000050 Ry

     iteration # 27     ecut=    50.00 Ry     beta= 0.60
     Davidson diagonalization with overlap
     ethr =  1.02E-09,  avg # of iterations =  1.5

     total cpu time spent up to now is     1252.9 secs

     total energy              =    -467.84281728 Ry
     Harris-Foulkes estimate   =    -467.84281728 Ry
     estimated scf accuracy    <       0.00000010 Ry

     iteration # 28     ecut=    50.00 Ry     beta= 0.60
     Davidson diagonalization with overlap
     ethr =  2.11E-10,  avg # of iterations =  3.9

     total cpu time spent up to now is     1276.8 secs

     total energy              =    -467.84281729 Ry
     Harris-Foulkes estimate   =    -467.84281729 Ry
     estimated scf accuracy    <       0.00000003 Ry

     iteration # 29     ecut=    50.00 Ry     beta= 0.60
     Davidson diagonalization with overlap
     ethr =  6.54E-11,  avg # of iterations =  4.0

     total cpu time spent up to now is     1301.8 secs

     total energy              =    -467.84281729 Ry
     Harris-Foulkes estimate   =    -467.84281729 Ry
     estimated scf accuracy    <          2.8E-10 Ry

     iteration # 30     ecut=    50.00 Ry     beta= 0.60
     Davidson diagonalization with overlap
     ethr =  5.71E-13,  avg # of iterations =  5.9

     total cpu time spent up to now is     1339.8 secs

     total energy              =    -467.84281729 Ry
     Harris-Foulkes estimate   =    -467.84281729 Ry
     estimated scf accuracy    <          1.7E-09 Ry

     iteration # 31     ecut=    50.00 Ry     beta= 0.60
     Davidson diagonalization with overlap
     ethr =  5.71E-13,  avg # of iterations =  1.3

     total cpu time spent up to now is     1359.9 secs

     total energy              =    -467.84281729 Ry
     Harris-Foulkes estimate   =    -467.84281729 Ry
     estimated scf accuracy    <          9.0E-10 Ry

     iteration # 32     ecut=    50.00 Ry     beta= 0.60
     Davidson diagonalization with overlap
     ethr =  5.71E-13,  avg # of iterations =  3.3

     total cpu time spent up to now is     1384.3 secs

     total energy              =    -467.84281729 Ry
     Harris-Foulkes estimate   =    -467.84281729 Ry
     estimated scf accuracy    <          1.1E-10 Ry

     iteration # 33     ecut=    50.00 Ry     beta= 0.60
     Davidson diagonalization with overlap
     ethr =  2.28E-13,  avg # of iterations =  1.4

     total cpu time spent up to now is     1404.5 secs

     End of self-consistent calculation

     Number of k-points >= 100: set verbosity='high' to print the bands.

     the Fermi energy is    12.4434 ev

!    total energy              =    -467.84281729 Ry
     Harris-Foulkes estimate   =    -467.84281729 Ry
     estimated scf accuracy    <          5.0E-11 Ry

     The total energy is the sum of the following terms:

     one-electron contribution =    -161.31362692 Ry
     hartree contribution      =      94.68464525 Ry
     xc contribution           =     -61.64212404 Ry
     ewald contribution        =    -339.57151424 Ry
     smearing contrib. (-TS)   =      -0.00019733 Ry

     convergence has been achieved in  33 iterations

     Forces acting on atoms (cartesian axes, Ry/au):

     atom    1 type  2   force =    -0.00000000    0.00000000    0.00000000
     atom    2 type  2   force =     0.00000000    0.00000000    0.00000000
     atom    3 type  2   force =    -0.00000000   -0.00000000   -0.00000000
     atom    4 type  1   force =     0.00000000   -0.00000000    0.00000000

     Total force =     0.000000     Total SCF correction =     0.000000


     Computing stress (Cartesian axis) and pressure

          total   stress  (Ry/bohr**3)                   (kbar)     P= -126.91
  -0.00086272  -0.00000340  -0.00000340       -126.91     -0.50     -0.50
  -0.00000340  -0.00086272  -0.00000340         -0.50   -126.91     -0.50
  -0.00000340  -0.00000340  -0.00086272         -0.50     -0.50   -126.91


     number of scf cycles    =   2
     number of bfgs steps    =   1

     enthalpy old            =    -467.7853676246 Ry
     enthalpy new            =    -467.8428172908 Ry

     CASE: enthalpy_new < enthalpy_old

     new trust radius        =       0.2240642710 bohr
     new conv_thr            =            1.0E-12 Ry

     new unit-cell volume =    459.33608 a.u.^3 (    68.06658 Ang^3 )
     density =      5.76979 g/cm^3

CELL_PARAMETERS (alat=  1.88972599)
  -4.862121736   1.621452264   1.621452264
   1.621452264   1.621452264  -4.862121736
   1.621452264  -4.862121736   1.621452264

ATOMIC_POSITIONS (angstrom)
Ti       0.001117527   0.001117527  -3.240669473
Ti       0.001117527  -3.240669473   0.001117527
Ti      -3.240669473   0.001117527   0.001117527
Nb      -1.619217209  -1.619217209  -1.619217209


     NEW-OLD atomic charge density approx. for the potential
     extrapolated charge   41.59919, renormalised to   49.00000

     total cpu time spent up to now is     1414.7 secs

     Self-consistent Calculation

     iteration #  1     ecut=    50.00 Ry     beta= 0.60
     Davidson diagonalization with overlap
     c_bands:  2 eigenvalues not converged
     c_bands:  1 eigenvalues not converged
     c_bands:  1 eigenvalues not converged
     c_bands:  1 eigenvalues not converged
     c_bands:  1 eigenvalues not converged
     c_bands:  3 eigenvalues not converged
     ethr =  1.00E-06,  avg # of iterations = 12.7

     total cpu time spent up to now is     1486.4 secs

     total energy              =    -445.59308130 Ry
     Harris-Foulkes estimate   =    -485.61604134 Ry
     estimated scf accuracy    <      23.70820284 Ry

     iteration #  2     ecut=    50.00 Ry     beta= 0.60
     Davidson diagonalization with overlap
     ethr =  1.00E-02,  avg # of iterations =  6.9

     total cpu time spent up to now is     1532.3 secs

     total energy              =    -465.40330743 Ry
     Harris-Foulkes estimate   =    -494.83022470 Ry
     estimated scf accuracy    <      86.64576762 Ry

     iteration #  3     ecut=    50.00 Ry     beta= 0.60
     Davidson diagonalization with overlap
     ethr =  1.00E-02,  avg # of iterations =  4.4

     total cpu time spent up to now is     1567.1 secs

     total energy              =    -469.20488251 Ry
     Harris-Foulkes estimate   =    -471.86060188 Ry
     estimated scf accuracy    <      11.32282224 Ry

     iteration #  4     ecut=    50.00 Ry     beta= 0.60
     Davidson diagonalization with overlap
     ethr =  1.00E-02,  avg # of iterations =  1.1

     total cpu time spent up to now is     1587.1 secs

     total energy              =    -470.01847553 Ry
     Harris-Foulkes estimate   =    -469.43228267 Ry
     estimated scf accuracy    <       7.80311739 Ry

     iteration #  5     ecut=    50.00 Ry     beta= 0.60
     Davidson diagonalization with overlap
     ethr =  1.00E-02,  avg # of iterations =  1.0

     total cpu time spent up to now is     1607.0 secs

     total energy              =    -470.35534688 Ry
     Harris-Foulkes estimate   =    -470.07278943 Ry
     estimated scf accuracy    <       9.94589023 Ry

     iteration #  6     ecut=    50.00 Ry     beta= 0.60
     Davidson diagonalization with overlap
     ethr =  1.00E-02,  avg # of iterations =  1.0

     total cpu time spent up to now is     1627.1 secs

     total energy              =    -469.81395924 Ry
     Harris-Foulkes estimate   =    -470.38448922 Ry
     estimated scf accuracy    <      11.59581974 Ry

     iteration #  7     ecut=    50.00 Ry     beta= 0.60
     Davidson diagonalization with overlap
     ethr =  1.00E-02,  avg # of iterations =  1.0

     total cpu time spent up to now is     1647.2 secs

     total energy              =    -468.68652994 Ry
     Harris-Foulkes estimate   =    -469.84256969 Ry
     estimated scf accuracy    <      10.63314255 Ry

     iteration #  8     ecut=    50.00 Ry     beta= 0.60
     Davidson diagonalization with overlap
     ethr =  1.00E-02,  avg # of iterations =  1.0

     total cpu time spent up to now is     1667.4 secs

     total energy              =    -467.06391044 Ry
     Harris-Foulkes estimate   =    -468.77700877 Ry
     estimated scf accuracy    <       6.12667695 Ry

     iteration #  9     ecut=    50.00 Ry     beta= 0.60
     Davidson diagonalization with overlap
     ethr =  1.00E-02,  avg # of iterations =  3.2

     total cpu time spent up to now is     1691.8 secs

     total energy              =    -467.83863627 Ry
     Harris-Foulkes estimate   =    -467.92022106 Ry
     estimated scf accuracy    <       0.49996694 Ry

     iteration # 10     ecut=    50.00 Ry     beta= 0.60
     Davidson diagonalization with overlap
     ethr =  1.02E-03,  avg # of iterations =  4.7

     total cpu time spent up to now is     1718.9 secs

     total energy              =    -467.85847079 Ry
     Harris-Foulkes estimate   =    -467.94965642 Ry
     estimated scf accuracy    <       0.25301265 Ry

     iteration # 11     ecut=    50.00 Ry     beta= 0.60
     Davidson diagonalization with overlap
     ethr =  5.16E-04,  avg # of iterations =  6.0

     total cpu time spent up to now is     1758.0 secs

     total energy              =    -468.25696952 Ry
     Harris-Foulkes estimate   =    -468.53846616 Ry
     estimated scf accuracy    <       5.22862343 Ry

     iteration # 12     ecut=    50.00 Ry     beta= 0.60
     Davidson diagonalization with overlap
     ethr =  5.16E-04,  avg # of iterations =  2.9

     total cpu time spent up to now is     1781.1 secs

     total energy              =    -468.33793834 Ry
     Harris-Foulkes estimate   =    -468.27828027 Ry
     estimated scf accuracy    <       3.82645086 Ry

     iteration # 13     ecut=    50.00 Ry     beta= 0.60
     Davidson diagonalization with overlap
     ethr =  5.16E-04,  avg # of iterations =  1.0

     total cpu time spent up to now is     1801.0 secs

     total energy              =    -467.13133323 Ry
     Harris-Foulkes estimate   =    -468.34132344 Ry
     estimated scf accuracy    <       4.03998455 Ry

     iteration # 14     ecut=    50.00 Ry     beta= 0.60
     Davidson diagonalization with overlap
     ethr =  5.16E-04,  avg # of iterations =  5.3

     total cpu time spent up to now is     1839.5 secs

     total energy              =    -468.09310057 Ry
     Harris-Foulkes estimate   =    -468.10461789 Ry
     estimated scf accuracy    <       1.47069366 Ry

     iteration # 15     ecut=    50.00 Ry     beta= 0.60
     Davidson diagonalization with overlap
     ethr =  5.16E-04,  avg # of iterations =  1.0

     total cpu time spent up to now is     1859.4 secs

     total energy              =    -468.01688397 Ry
     Harris-Foulkes estimate   =    -468.09479964 Ry
     estimated scf accuracy    <       1.30620864 Ry

     iteration # 16     ecut=    50.00 Ry     beta= 0.60
     Davidson diagonalization with overlap
     ethr =  5.16E-04,  avg # of iterations =  1.0

     total cpu time spent up to now is     1879.3 secs

     total energy              =    -467.80002763 Ry
     Harris-Foulkes estimate   =    -468.02356834 Ry
     estimated scf accuracy    <       0.84913361 Ry

     iteration # 17     ecut=    50.00 Ry     beta= 0.60
     Davidson diagonalization with overlap
     ethr =  5.16E-04,  avg # of iterations =  4.4

     total cpu time spent up to now is     1907.4 secs

     total energy              =    -467.87910715 Ry
     Harris-Foulkes estimate   =    -467.89844149 Ry
     estimated scf accuracy    <       0.11530232 Ry

     iteration # 18     ecut=    50.00 Ry     beta= 0.60
     Davidson diagonalization with overlap
     ethr =  2.35E-04,  avg # of iterations =  1.8

     total cpu time spent up to now is     1928.1 secs

     total energy              =    -467.87681455 Ry
     Harris-Foulkes estimate   =    -467.88544645 Ry
     estimated scf accuracy    <       0.04705428 Ry

     iteration # 19     ecut=    50.00 Ry     beta= 0.60
     Davidson diagonalization with overlap
     ethr =  9.60E-05,  avg # of iterations =  2.6

     total cpu time spent up to now is     1950.0 secs

     total energy              =    -467.87605185 Ry
     Harris-Foulkes estimate   =    -467.88210195 Ry
     estimated scf accuracy    <       0.06748490 Ry

     iteration # 20     ecut=    50.00 Ry     beta= 0.60
     Davidson diagonalization with overlap
     ethr =  9.60E-05,  avg # of iterations =  1.7

     total cpu time spent up to now is     1970.6 secs

     total energy              =    -467.86933479 Ry
     Harris-Foulkes estimate   =    -467.87777801 Ry
     estimated scf accuracy    <       0.04508357 Ry

     iteration # 21     ecut=    50.00 Ry     beta= 0.60
     Davidson diagonalization with overlap
     ethr =  9.20E-05,  avg # of iterations =  1.8

     total cpu time spent up to now is     1991.4 secs

     total energy              =    -467.87286636 Ry
     Harris-Foulkes estimate   =    -467.87304206 Ry
     estimated scf accuracy    <       0.00087238 Ry

     iteration # 22     ecut=    50.00 Ry     beta= 0.60
     Davidson diagonalization with overlap
     ethr =  1.78E-06,  avg # of iterations =  7.2

     total cpu time spent up to now is     2029.5 secs

     total energy              =    -467.87359999 Ry
     Harris-Foulkes estimate   =    -467.87365465 Ry
     estimated scf accuracy    <       0.00031500 Ry

     iteration # 23     ecut=    50.00 Ry     beta= 0.60
     Davidson diagonalization with overlap
     ethr =  6.43E-07,  avg # of iterations =  1.6

     total cpu time spent up to now is     2050.0 secs

     total energy              =    -467.87362210 Ry
     Harris-Foulkes estimate   =    -467.87362642 Ry
     estimated scf accuracy    <       0.00001388 Ry

     iteration # 24     ecut=    50.00 Ry     beta= 0.60
     Davidson diagonalization with overlap
     ethr =  2.83E-08,  avg # of iterations =  4.6

     total cpu time spent up to now is     2079.4 secs

     total energy              =    -467.87362882 Ry
     Harris-Foulkes estimate   =    -467.87363068 Ry
     estimated scf accuracy    <       0.00001242 Ry

     iteration # 25     ecut=    50.00 Ry     beta= 0.60
     Davidson diagonalization with overlap
     ethr =  2.53E-08,  avg # of iterations =  1.0

     total cpu time spent up to now is     2099.3 secs

     total energy              =    -467.87362923 Ry
     Harris-Foulkes estimate   =    -467.87362948 Ry
     estimated scf accuracy    <       0.00000110 Ry

     iteration # 26     ecut=    50.00 Ry     beta= 0.60
     Davidson diagonalization with overlap
     ethr =  2.24E-09,  avg # of iterations =  4.3

     total cpu time spent up to now is     2127.5 secs

     total energy              =    -467.87362973 Ry
     Harris-Foulkes estimate   =    -467.87362993 Ry
     estimated scf accuracy    <       0.00000202 Ry

     iteration # 27     ecut=    50.00 Ry     beta= 0.60
     Davidson diagonalization with overlap
     ethr =  2.24E-09,  avg # of iterations =  1.0

     total cpu time spent up to now is     2147.5 secs

     total energy              =    -467.87362972 Ry
     Harris-Foulkes estimate   =    -467.87362977 Ry
     estimated scf accuracy    <       0.00000069 Ry

     iteration # 28     ecut=    50.00 Ry     beta= 0.60
     Davidson diagonalization with overlap
     ethr =  1.41E-09,  avg # of iterations =  1.5

     total cpu time spent up to now is     2167.8 secs

     total energy              =    -467.87362972 Ry
     Harris-Foulkes estimate   =    -467.87362974 Ry
     estimated scf accuracy    <       0.00000027 Ry

     iteration # 29     ecut=    50.00 Ry     beta= 0.60
     Davidson diagonalization with overlap
     ethr =  5.55E-10,  avg # of iterations =  3.8

     total cpu time spent up to now is     2192.1 secs

     total energy              =    -467.87362975 Ry
     Harris-Foulkes estimate   =    -467.87362975 Ry
     estimated scf accuracy    <          7.0E-09 Ry

     iteration # 30     ecut=    50.00 Ry     beta= 0.60
     Davidson diagonalization with overlap
     ethr =  1.43E-11,  avg # of iterations =  5.0

     total cpu time spent up to now is     2222.7 secs

     total energy              =    -467.87362976 Ry
     Harris-Foulkes estimate   =    -467.87362976 Ry
     estimated scf accuracy    <       0.00000002 Ry

     iteration # 31     ecut=    50.00 Ry     beta= 0.60
     Davidson diagonalization with overlap
     ethr =  1.43E-11,  avg # of iterations =  1.0

     total cpu time spent up to now is     2242.6 secs

     total energy              =    -467.87362976 Ry
     Harris-Foulkes estimate   =    -467.87362976 Ry
     estimated scf accuracy    <          9.5E-09 Ry

     iteration # 32     ecut=    50.00 Ry     beta= 0.60
     Davidson diagonalization with overlap
     ethr =  1.43E-11,  avg # of iterations =  2.3

     total cpu time spent up to now is     2264.1 secs

     total energy              =    -467.87362976 Ry
     Harris-Foulkes estimate   =    -467.87362976 Ry
     estimated scf accuracy    <          3.0E-09 Ry

     iteration # 33     ecut=    50.00 Ry     beta= 0.60
     Davidson diagonalization with overlap
     ethr =  6.17E-12,  avg # of iterations =  1.5

     total cpu time spent up to now is     2284.3 secs

     total energy              =    -467.87362976 Ry
     Harris-Foulkes estimate   =    -467.87362976 Ry
     estimated scf accuracy    <          2.0E-09 Ry

     iteration # 34     ecut=    50.00 Ry     beta= 0.60
     Davidson diagonalization with overlap
     ethr =  4.08E-12,  avg # of iterations =  3.0

     total cpu time spent up to now is     2307.1 secs

     total energy              =    -467.87362976 Ry
     Harris-Foulkes estimate   =    -467.87362976 Ry
     estimated scf accuracy    <          9.6E-11 Ry

     iteration # 35     ecut=    50.00 Ry     beta= 0.60
     Davidson diagonalization with overlap
     ethr =  1.96E-13,  avg # of iterations =  4.8

     total cpu time spent up to now is     2335.9 secs

     total energy              =    -467.87362976 Ry
     Harris-Foulkes estimate   =    -467.87362976 Ry
     estimated scf accuracy    <          2.9E-11 Ry

     iteration # 36     ecut=    50.00 Ry     beta= 0.60
     Davidson diagonalization with overlap
     ethr =  1.00E-13,  avg # of iterations =  1.0

     total cpu time spent up to now is     2355.8 secs

     total energy              =    -467.87362976 Ry
     Harris-Foulkes estimate   =    -467.87362976 Ry
     estimated scf accuracy    <          6.5E-12 Ry

     iteration # 37     ecut=    50.00 Ry     beta= 0.60
     Davidson diagonalization with overlap
     ethr =  1.00E-13,  avg # of iterations =  1.0

     total cpu time spent up to now is     2375.7 secs

     total energy              =    -467.87362976 Ry
     Harris-Foulkes estimate   =    -467.87362976 Ry
     estimated scf accuracy    <          2.9E-12 Ry

     iteration # 38     ecut=    50.00 Ry     beta= 0.60
     Davidson diagonalization with overlap
     ethr =  1.00E-13,  avg # of iterations =  1.0

     total cpu time spent up to now is     2395.7 secs

     End of self-consistent calculation

     Number of k-points >= 100: set verbosity='high' to print the bands.

     the Fermi energy is    14.8625 ev

!    total energy              =    -467.87362976 Ry
     Harris-Foulkes estimate   =    -467.87362976 Ry
     estimated scf accuracy    <          1.4E-13 Ry

     The total energy is the sum of the following terms:

     one-electron contribution =    -135.72789371 Ry
     hartree contribution      =      86.87185894 Ry
     xc contribution           =     -62.13231542 Ry
     ewald contribution        =    -356.88556614 Ry
     smearing contrib. (-TS)   =       0.00028658 Ry

     convergence has been achieved in  38 iterations

     Forces acting on atoms (cartesian axes, Ry/au):

     atom    1 type  2   force =     0.00000000    0.00000000    0.00000000
     atom    2 type  2   force =     0.00000000    0.00000000    0.00000000
     atom    3 type  2   force =    -0.00000000   -0.00000000   -0.00000000
     atom    4 type  1   force =    -0.00000000   -0.00000000   -0.00000000

     Total force =     0.000000     Total SCF correction =     0.000000


     Computing stress (Cartesian axis) and pressure

          total   stress  (Ry/bohr**3)                   (kbar)     P=   21.54
   0.00014646   0.00000311   0.00000311         21.54      0.46      0.46
   0.00000311   0.00014646   0.00000311          0.46     21.54      0.46
   0.00000311   0.00000311   0.00014646          0.46      0.46     21.54


     number of scf cycles    =   3
     number of bfgs steps    =   2

     enthalpy old            =    -467.8428172908 Ry
     enthalpy new            =    -467.8736297558 Ry

     CASE: enthalpy_new < enthalpy_old

     new trust radius        =       0.0291209831 bohr
     new conv_thr            =            1.0E-12 Ry

     new unit-cell volume =    468.76033 a.u.^3 (    69.46311 Ang^3 )
     density =      5.65379 g/cm^3

CELL_PARAMETERS (alat=  1.88972599)
  -4.894885452   1.632202956   1.632202956
   1.632202956   1.632202956  -4.894885452
   1.632202956  -4.894885452   1.632202956

ATOMIC_POSITIONS (angstrom)
Ti       0.000861708   0.000861708  -3.262682496
Ti       0.000861708  -3.262682496   0.000861708
Ti      -3.262682496   0.000861708   0.000861708
Nb      -1.630479540  -1.630479540  -1.630479540


     NEW-OLD atomic charge density approx. for the potential
     extrapolated charge   49.92475, renormalised to   49.00000

     total cpu time spent up to now is     2405.9 secs

     Self-consistent Calculation

     iteration #  1     ecut=    50.00 Ry     beta= 0.60
     Davidson diagonalization with overlap
     c_bands:  1 eigenvalues not converged
     ethr =  1.00E-06,  avg # of iterations = 11.7

     total cpu time spent up to now is     2461.0 secs

     total energy              =    -467.74335206 Ry
     Harris-Foulkes estimate   =    -466.00402979 Ry
     estimated scf accuracy    <       0.11266176 Ry

     iteration #  2     ecut=    50.00 Ry     beta= 0.60
     Davidson diagonalization with overlap
     ethr =  2.30E-04,  avg # of iterations =  5.0

     total cpu time spent up to now is     2500.6 secs

     total energy              =    -467.72059884 Ry
     Harris-Foulkes estimate   =    -468.07970284 Ry
     estimated scf accuracy    <       2.04864189 Ry

     iteration #  3     ecut=    50.00 Ry     beta= 0.60
     Davidson diagonalization with overlap
     ethr =  2.30E-04,  avg # of iterations =  4.7

     total cpu time spent up to now is     2532.1 secs

     total energy              =    -467.86300957 Ry
     Harris-Foulkes estimate   =    -467.91006131 Ry
     estimated scf accuracy    <       0.17590956 Ry

     iteration #  4     ecut=    50.00 Ry     beta= 0.60
     Davidson diagonalization with overlap
     ethr =  2.30E-04,  avg # of iterations =  2.4

     total cpu time spent up to now is     2554.1 secs

     total energy              =    -467.87642546 Ry
     Harris-Foulkes estimate   =    -467.88027685 Ry
     estimated scf accuracy    <       0.02828601 Ry

     iteration #  5     ecut=    50.00 Ry     beta= 0.60
     Davidson diagonalization with overlap
     ethr =  5.77E-05,  avg # of iterations =  2.4

     total cpu time spent up to now is     2576.1 secs

     total energy              =    -467.87512954 Ry
     Harris-Foulkes estimate   =    -467.87790132 Ry
     estimated scf accuracy    <       0.01848767 Ry

     iteration #  6     ecut=    50.00 Ry     beta= 0.60
     Davidson diagonalization with overlap
     ethr =  3.77E-05,  avg # of iterations =  1.6

     total cpu time spent up to now is     2596.8 secs

     total energy              =    -467.87460984 Ry
     Harris-Foulkes estimate   =    -467.87573093 Ry
     estimated scf accuracy    <       0.00971845 Ry

     iteration #  7     ecut=    50.00 Ry     beta= 0.60
     Davidson diagonalization with overlap
     ethr =  1.98E-05,  avg # of iterations =  2.0

     total cpu time spent up to now is     2617.6 secs

     total energy              =    -467.87408576 Ry
     Harris-Foulkes estimate   =    -467.87493950 Ry
     estimated scf accuracy    <       0.00521703 Ry

     iteration #  8     ecut=    50.00 Ry     beta= 0.60
     Davidson diagonalization with overlap
     ethr =  1.06E-05,  avg # of iterations =  2.3

     total cpu time spent up to now is     2639.0 secs

     total energy              =    -467.87395442 Ry
     Harris-Foulkes estimate   =    -467.87431646 Ry
     estimated scf accuracy    <       0.00185459 Ry

     iteration #  9     ecut=    50.00 Ry     beta= 0.60
     Davidson diagonalization with overlap
     c_bands:  1 eigenvalues not converged
     ethr =  3.78E-06,  avg # of iterations =  5.8

     total cpu time spent up to now is     2666.3 secs

     total energy              =    -467.87419179 Ry
     Harris-Foulkes estimate   =    -467.87419577 Ry
     estimated scf accuracy    <       0.00011962 Ry

     iteration # 10     ecut=    50.00 Ry     beta= 0.60
     Davidson diagonalization with overlap
     c_bands:  1 eigenvalues not converged
     ethr =  2.44E-07,  avg # of iterations =  4.5

     total cpu time spent up to now is     2691.0 secs

     total energy              =    -467.87417818 Ry
     Harris-Foulkes estimate   =    -467.87420496 Ry
     estimated scf accuracy    <       0.00009619 Ry

     iteration # 11     ecut=    50.00 Ry     beta= 0.60
     Davidson diagonalization with overlap
     ethr =  1.96E-07,  avg # of iterations =  2.9

     total cpu time spent up to now is     2720.7 secs

     total energy              =    -467.87418761 Ry
     Harris-Foulkes estimate   =    -467.87418841 Ry
     estimated scf accuracy    <       0.00001193 Ry

     iteration # 12     ecut=    50.00 Ry     beta= 0.60
     Davidson diagonalization with overlap
     ethr =  2.43E-08,  avg # of iterations =  4.1

     total cpu time spent up to now is     2755.0 secs

     total energy              =    -467.87418937 Ry
     Harris-Foulkes estimate   =    -467.87418970 Ry
     estimated scf accuracy    <       0.00000220 Ry

     iteration # 13     ecut=    50.00 Ry     beta= 0.60
     Davidson diagonalization with overlap
     ethr =  4.49E-09,  avg # of iterations =  4.2

     total cpu time spent up to now is     2790.1 secs

     total energy              =    -467.87418981 Ry
     Harris-Foulkes estimate   =    -467.87418986 Ry
     estimated scf accuracy    <       0.00000011 Ry

     iteration # 14     ecut=    50.00 Ry     beta= 0.60
     Davidson diagonalization with overlap
     ethr =  2.23E-10,  avg # of iterations =  4.6

     total cpu time spent up to now is     2832.0 secs

     total energy              =    -467.87418986 Ry
     Harris-Foulkes estimate   =    -467.87418988 Ry
     estimated scf accuracy    <       0.00000016 Ry

     iteration # 15     ecut=    50.00 Ry     beta= 0.60
     Davidson diagonalization with overlap
     ethr =  2.23E-10,  avg # of iterations =  1.9

     total cpu time spent up to now is     2859.4 secs

     total energy              =    -467.87418986 Ry
     Harris-Foulkes estimate   =    -467.87418987 Ry
     estimated scf accuracy    <       0.00000003 Ry

     iteration # 16     ecut=    50.00 Ry     beta= 0.60
     Davidson diagonalization with overlap
     ethr =  5.56E-11,  avg # of iterations =  4.2

     total cpu time spent up to now is     2896.5 secs

     total energy              =    -467.87418987 Ry
     Harris-Foulkes estimate   =    -467.87418987 Ry
     estimated scf accuracy    <       0.00000003 Ry

     iteration # 17     ecut=    50.00 Ry     beta= 0.60
     Davidson diagonalization with overlap
     ethr =  5.56E-11,  avg # of iterations =  1.0

     total cpu time spent up to now is     2922.0 secs

     total energy              =    -467.87418987 Ry
     Harris-Foulkes estimate   =    -467.87418987 Ry
     estimated scf accuracy    <       0.00000002 Ry

     iteration # 18     ecut=    50.00 Ry     beta= 0.60
     Davidson diagonalization with overlap
     ethr =  3.22E-11,  avg # of iterations =  2.3

     total cpu time spent up to now is     2949.5 secs

     total energy              =    -467.87418987 Ry
     Harris-Foulkes estimate   =    -467.87418987 Ry
     estimated scf accuracy    <          4.9E-09 Ry

     iteration # 19     ecut=    50.00 Ry     beta= 0.60
     Davidson diagonalization with overlap
     ethr =  1.00E-11,  avg # of iterations =  4.1

     total cpu time spent up to now is     2986.4 secs

     total energy              =    -467.87418987 Ry
     Harris-Foulkes estimate   =    -467.87418987 Ry
     estimated scf accuracy    <          6.5E-09 Ry

     iteration # 20     ecut=    50.00 Ry     beta= 0.60
     Davidson diagonalization with overlap
     ethr =  1.00E-11,  avg # of iterations =  1.0

     total cpu time spent up to now is     3011.8 secs

     total energy              =    -467.87418987 Ry
     Harris-Foulkes estimate   =    -467.87418987 Ry
     estimated scf accuracy    <          1.3E-09 Ry

     iteration # 21     ecut=    50.00 Ry     beta= 0.60
     Davidson diagonalization with overlap
     ethr =  2.70E-12,  avg # of iterations =  4.0

     total cpu time spent up to now is     3047.5 secs

     total energy              =    -467.87418987 Ry
     Harris-Foulkes estimate   =    -467.87418987 Ry
     estimated scf accuracy    <          6.7E-10 Ry

     iteration # 22     ecut=    50.00 Ry     beta= 0.60
     Davidson diagonalization with overlap
     ethr =  1.37E-12,  avg # of iterations =  1.0

     total cpu time spent up to now is     3073.0 secs

     total energy              =    -467.87418987 Ry
     Harris-Foulkes estimate   =    -467.87418987 Ry
     estimated scf accuracy    <          1.1E-10 Ry

     iteration # 23     ecut=    50.00 Ry     beta= 0.60
     Davidson diagonalization with overlap
     ethr =  2.20E-13,  avg # of iterations =  4.0

     total cpu time spent up to now is     3108.6 secs

     total energy              =    -467.87418987 Ry
     Harris-Foulkes estimate   =    -467.87418987 Ry
     estimated scf accuracy    <          2.4E-11 Ry

     iteration # 24     ecut=    50.00 Ry     beta= 0.60
     Davidson diagonalization with overlap
     ethr =  1.00E-13,  avg # of iterations =  1.1

     total cpu time spent up to now is     3134.0 secs

     total energy              =    -467.87418987 Ry
     Harris-Foulkes estimate   =    -467.87418987 Ry
     estimated scf accuracy    <          1.4E-11 Ry

     iteration # 25     ecut=    50.00 Ry     beta= 0.60
     Davidson diagonalization with overlap
     ethr =  1.00E-13,  avg # of iterations =  1.0

     total cpu time spent up to now is     3159.6 secs

     total energy              =    -467.87418987 Ry
     Harris-Foulkes estimate   =    -467.87418987 Ry
     estimated scf accuracy    <          2.4E-12 Ry

     iteration # 26     ecut=    50.00 Ry     beta= 0.60
     Davidson diagonalization with overlap
     ethr =  1.00E-13,  avg # of iterations =  1.0

     total cpu time spent up to now is     3185.4 secs

     End of self-consistent calculation

     Number of k-points >= 100: set verbosity='high' to print the bands.

     the Fermi energy is    14.5136 ev

!    total energy              =    -467.87418987 Ry
     Harris-Foulkes estimate   =    -467.87418987 Ry
     estimated scf accuracy    <          4.0E-13 Ry

     The total energy is the sum of the following terms:

     one-electron contribution =    -139.25858647 Ry
     hartree contribution      =      87.92213024 Ry
     xc contribution           =     -62.06023072 Ry
     ewald contribution        =    -354.47773339 Ry
     smearing contrib. (-TS)   =       0.00023048 Ry

     convergence has been achieved in  26 iterations

     Forces acting on atoms (cartesian axes, Ry/au):

     atom    1 type  2   force =     0.00000000    0.00000000   -0.00000000
     atom    2 type  2   force =    -0.00000000   -0.00000000   -0.00000000
     atom    3 type  2   force =     0.00000000    0.00000000    0.00000000
     atom    4 type  1   force =     0.00000000    0.00000000    0.00000000

     Total force =     0.000000     Total SCF correction =     0.000000


     Computing stress (Cartesian axis) and pressure

          total   stress  (Ry/bohr**3)                   (kbar)     P=   -3.69
  -0.00002510   0.00000132   0.00000132         -3.69      0.19      0.19
   0.00000132  -0.00002510   0.00000132          0.19     -3.69      0.19
   0.00000132   0.00000132  -0.00002510          0.19      0.19     -3.69


     number of scf cycles    =   4
     number of bfgs steps    =   3

     enthalpy old            =    -467.8736297558 Ry
     enthalpy new            =    -467.8741898718 Ry

     CASE: enthalpy_new < enthalpy_old

     new trust radius        =       0.0043236133 bohr
     new conv_thr            =            1.0E-12 Ry

     new unit-cell volume =    467.35845 a.u.^3 (    69.25538 Ang^3 )
     density =      5.67075 g/cm^3

CELL_PARAMETERS (alat=  1.88972599)
  -4.889919846   1.630493110   1.630493110
   1.630493110   1.630493110  -4.889919846
   1.630493110  -4.889919846   1.630493110

ATOMIC_POSITIONS (angstrom)
Ti       0.000779743   0.000779743  -3.259426735
Ti       0.000779743  -3.259426735   0.000779743
Ti      -3.259426735   0.000779743   0.000779743
Nb      -1.628933625  -1.628933625  -1.628933625


     NEW-OLD atomic charge density approx. for the potential
     extrapolated charge   48.86203, renormalised to   49.00000

     total cpu time spent up to now is     3198.0 secs

     Self-consistent Calculation

     iteration #  1     ecut=    50.00 Ry     beta= 0.60
     Davidson diagonalization with overlap
     ethr =  1.00E-06,  avg # of iterations =  4.7

     total cpu time spent up to now is     3246.4 secs

     total energy              =    -467.87071800 Ry
     Harris-Foulkes estimate   =    -468.15633643 Ry
     estimated scf accuracy    <       0.00313065 Ry

     iteration #  2     ecut=    50.00 Ry     beta= 0.60
     Davidson diagonalization with overlap
     ethr =  6.39E-06,  avg # of iterations =  5.1

     total cpu time spent up to now is     3298.5 secs

     total energy              =    -467.86992818 Ry
     Harris-Foulkes estimate   =    -467.88017675 Ry
     estimated scf accuracy    <       0.05920583 Ry

     iteration #  3     ecut=    50.00 Ry     beta= 0.60
     Davidson diagonalization with overlap
     ethr =  6.39E-06,  avg # of iterations =  4.9

     total cpu time spent up to now is     3341.8 secs

     total energy              =    -467.87403207 Ry
     Harris-Foulkes estimate   =    -467.87510405 Ry
     estimated scf accuracy    <       0.00352160 Ry

     iteration #  4     ecut=    50.00 Ry     beta= 0.60
     Davidson diagonalization with overlap
     ethr =  6.39E-06,  avg # of iterations =  2.0

     total cpu time spent up to now is     3369.5 secs

     total energy              =    -467.87426954 Ry
     Harris-Foulkes estimate   =    -467.87437566 Ry
     estimated scf accuracy    <       0.00084533 Ry

     iteration #  5     ecut=    50.00 Ry     beta= 0.60
     Davidson diagonalization with overlap
     ethr =  1.73E-06,  avg # of iterations =  2.5

     total cpu time spent up to now is     3398.9 secs

     total energy              =    -467.87425936 Ry
     Harris-Foulkes estimate   =    -467.87432179 Ry
     estimated scf accuracy    <       0.00058167 Ry

     iteration #  6     ecut=    50.00 Ry     beta= 0.60
     Davidson diagonalization with overlap
     ethr =  1.19E-06,  avg # of iterations =  1.0

     total cpu time spent up to now is     3424.5 secs

     total energy              =    -467.87420782 Ry
     Harris-Foulkes estimate   =    -467.87427151 Ry
     estimated scf accuracy    <       0.00038298 Ry

     iteration #  7     ecut=    50.00 Ry     beta= 0.60
     Davidson diagonalization with overlap
     ethr =  7.82E-07,  avg # of iterations =  1.7

     total cpu time spent up to now is     3451.3 secs

     total energy              =    -467.87422928 Ry
     Harris-Foulkes estimate   =    -467.87422301 Ry
     estimated scf accuracy    <       0.00013868 Ry

     iteration #  8     ecut=    50.00 Ry     beta= 0.60
     Davidson diagonalization with overlap
     ethr =  2.83E-07,  avg # of iterations =  1.2

     total cpu time spent up to now is     3477.1 secs

     total energy              =    -467.87420044 Ry
     Harris-Foulkes estimate   =    -467.87423228 Ry
     estimated scf accuracy    <       0.00016672 Ry

     iteration #  9     ecut=    50.00 Ry     beta= 0.60
     Davidson diagonalization with overlap
     ethr =  2.83E-07,  avg # of iterations =  2.5

     total cpu time spent up to now is     3505.6 secs

     total energy              =    -467.87419910 Ry
     Harris-Foulkes estimate   =    -467.87420864 Ry
     estimated scf accuracy    <       0.00004293 Ry

     iteration # 10     ecut=    50.00 Ry     beta= 0.60
     Davidson diagonalization with overlap
     ethr =  8.76E-08,  avg # of iterations =  3.4

     total cpu time spent up to now is     3538.4 secs

     total energy              =    -467.87420754 Ry
     Harris-Foulkes estimate   =    -467.87420753 Ry
     estimated scf accuracy    <       0.00000019 Ry

     iteration # 11     ecut=    50.00 Ry     beta= 0.60
     Davidson diagonalization with overlap
     ethr =  3.89E-10,  avg # of iterations =  5.3

     total cpu time spent up to now is     3590.3 secs

     total energy              =    -467.87420795 Ry
     Harris-Foulkes estimate   =    -467.87420834 Ry
     estimated scf accuracy    <       0.00000281 Ry

     iteration # 12     ecut=    50.00 Ry     beta= 0.60
     Davidson diagonalization with overlap
     ethr =  3.89E-10,  avg # of iterations =  4.4

     total cpu time spent up to now is     3627.6 secs

     total energy              =    -467.87420801 Ry
     Harris-Foulkes estimate   =    -467.87420807 Ry
     estimated scf accuracy    <       0.00000028 Ry

     iteration # 13     ecut=    50.00 Ry     beta= 0.60
     Davidson diagonalization with overlap
     ethr =  3.89E-10,  avg # of iterations =  1.2

     total cpu time spent up to now is     3653.2 secs

     total energy              =    -467.87420799 Ry
     Harris-Foulkes estimate   =    -467.87420802 Ry
     estimated scf accuracy    <       0.00000008 Ry

     iteration # 14     ecut=    50.00 Ry     beta= 0.60
     Davidson diagonalization with overlap
     ethr =  1.71E-10,  avg # of iterations =  4.1

     total cpu time spent up to now is     3690.1 secs

     total energy              =    -467.87420802 Ry
     Harris-Foulkes estimate   =    -467.87420803 Ry
     estimated scf accuracy    <       0.00000024 Ry

     iteration # 15     ecut=    50.00 Ry     beta= 0.60
     Davidson diagonalization with overlap
     ethr =  1.71E-10,  avg # of iterations =  1.0

     total cpu time spent up to now is     3715.5 secs

     total energy              =    -467.87420798 Ry
     Harris-Foulkes estimate   =    -467.87420802 Ry
     estimated scf accuracy    <       0.00000016 Ry

     iteration # 16     ecut=    50.00 Ry     beta= 0.60
     Davidson diagonalization with overlap
     ethr =  1.71E-10,  avg # of iterations =  4.1

     total cpu time spent up to now is     3751.6 secs

     total energy              =    -467.87420801 Ry
     Harris-Foulkes estimate   =    -467.87420802 Ry
     estimated scf accuracy    <       0.00000009 Ry

     iteration # 17     ecut=    50.00 Ry     beta= 0.60
     Davidson diagonalization with overlap
     ethr =  1.71E-10,  avg # of iterations =  1.0

     total cpu time spent up to now is     3776.8 secs

     total energy              =    -467.87420801 Ry
     Harris-Foulkes estimate   =    -467.87420801 Ry
     estimated scf accuracy    <       0.00000004 Ry

     iteration # 18     ecut=    50.00 Ry     beta= 0.60
     Davidson diagonalization with overlap
     ethr =  8.74E-11,  avg # of iterations =  2.4

     total cpu time spent up to now is     3804.8 secs

     total energy              =    -467.87420801 Ry
     Harris-Foulkes estimate   =    -467.87420801 Ry
     estimated scf accuracy    <          5.3E-09 Ry

     iteration # 19     ecut=    50.00 Ry     beta= 0.60
     Davidson diagonalization with overlap
     ethr =  1.08E-11,  avg # of iterations =  4.2

     total cpu time spent up to now is     3840.6 secs

     total energy              =    -467.87420801 Ry
     Harris-Foulkes estimate   =    -467.87420801 Ry
     estimated scf accuracy    <          2.9E-10 Ry

     iteration # 20     ecut=    50.00 Ry     beta= 0.60
     Davidson diagonalization with overlap
     ethr =  6.02E-13,  avg # of iterations =  3.7

     total cpu time spent up to now is     3872.8 secs

     total energy              =    -467.87420801 Ry
     Harris-Foulkes estimate   =    -467.87420801 Ry
     estimated scf accuracy    <          2.1E-10 Ry

     iteration # 21     ecut=    50.00 Ry     beta= 0.60
     Davidson diagonalization with overlap
     ethr =  4.32E-13,  avg # of iterations =  3.0

     total cpu time spent up to now is     3903.2 secs

     total energy              =    -467.87420801 Ry
     Harris-Foulkes estimate   =    -467.87420801 Ry
     estimated scf accuracy    <          9.8E-12 Ry

     iteration # 22     ecut=    50.00 Ry     beta= 0.60
     Davidson diagonalization with overlap
     ethr =  1.00E-13,  avg # of iterations =  2.1

     total cpu time spent up to now is     3930.8 secs

     total energy              =    -467.87420801 Ry
     Harris-Foulkes estimate   =    -467.87420801 Ry
     estimated scf accuracy    <          3.2E-12 Ry

     iteration # 23     ecut=    50.00 Ry     beta= 0.60
     Davidson diagonalization with overlap
     ethr =  1.00E-13,  avg # of iterations =  1.0

     total cpu time spent up to now is     3955.9 secs

     total energy              =    -467.87420801 Ry
     Harris-Foulkes estimate   =    -467.87420801 Ry
     estimated scf accuracy    <          2.0E-12 Ry

     iteration # 24     ecut=    50.00 Ry     beta= 0.60
     Davidson diagonalization with overlap
     ethr =  1.00E-13,  avg # of iterations =  1.0

     total cpu time spent up to now is     3976.4 secs

     End of self-consistent calculation

     Number of k-points >= 100: set verbosity='high' to print the bands.

     the Fermi energy is    14.5646 ev

!    total energy              =    -467.87420801 Ry
     Harris-Foulkes estimate   =    -467.87420801 Ry
     estimated scf accuracy    <          4.7E-13 Ry

     The total energy is the sum of the following terms:

     one-electron contribution =    -138.73884697 Ry
     hartree contribution      =      87.76697797 Ry
     xc contribution           =     -62.07075249 Ry
     ewald contribution        =    -354.83182511 Ry
     smearing contrib. (-TS)   =       0.00023860 Ry

     convergence has been achieved in  24 iterations

     Forces acting on atoms (cartesian axes, Ry/au):

     atom    1 type  2   force =    -0.00000000   -0.00000000   -0.00000000
     atom    2 type  2   force =     0.00000000    0.00000000    0.00000000
     atom    3 type  2   force =    -0.00000000   -0.00000000   -0.00000000
     atom    4 type  1   force =    -0.00000000   -0.00000000   -0.00000000

     Total force =     0.000000     Total SCF correction =     0.000000


     Computing stress (Cartesian axis) and pressure

          total   stress  (Ry/bohr**3)                   (kbar)     P=   -0.08
  -0.00000055   0.00000135   0.00000135         -0.08      0.20      0.20
   0.00000135  -0.00000055   0.00000135          0.20     -0.08      0.20
   0.00000135   0.00000135  -0.00000055          0.20      0.20     -0.08


     number of scf cycles    =   5
     number of bfgs steps    =   4

     enthalpy old            =    -467.8741898718 Ry
     enthalpy new            =    -467.8742080075 Ry

     CASE: enthalpy_new < enthalpy_old

     new trust radius        =       0.0002238935 bohr
     new conv_thr            =            1.0E-12 Ry

     new unit-cell volume =    467.32311 a.u.^3 (    69.25014 Ang^3 )
     density =      5.67118 g/cm^3

CELL_PARAMETERS (alat=  1.88972599)
  -4.889692294   1.630347759   1.630347759
   1.630347759   1.630347759  -4.889692294
   1.630347759  -4.889692294   1.630347759

ATOMIC_POSITIONS (angstrom)
Ti       0.000675491   0.000675491  -3.259344535
Ti       0.000675491  -3.259344535   0.000675491
Ti      -3.259344535   0.000675491   0.000675491
Nb      -1.628996776  -1.628996776  -1.628996776


     NEW-OLD atomic charge density approx. for the potential
     extrapolated charge   48.99652, renormalised to   49.00000

     total cpu time spent up to now is     3986.5 secs

     Self-consistent Calculation

     iteration #  1     ecut=    50.00 Ry     beta= 0.60
     Davidson diagonalization with overlap
     ethr =  1.00E-06,  avg # of iterations =  2.0

     Threshold (ethr) on eigenvalues was too large:
     Diagonalizing with lowered threshold

     Davidson diagonalization with overlap
     ethr =  2.93E-09,  avg # of iterations =  1.6

     total cpu time spent up to now is     4034.0 secs

     total energy              =    -467.87420633 Ry
     Harris-Foulkes estimate   =    -467.88130591 Ry
     estimated scf accuracy    <       0.00000156 Ry

     iteration #  2     ecut=    50.00 Ry     beta= 0.60
     Davidson diagonalization with overlap
     ethr =  3.18E-09,  avg # of iterations =  5.0

     total cpu time spent up to now is     4072.0 secs

     total energy              =    -467.87420624 Ry
     Harris-Foulkes estimate   =    -467.87421055 Ry
     estimated scf accuracy    <       0.00002323 Ry

     iteration #  3     ecut=    50.00 Ry     beta= 0.60
     Davidson diagonalization with overlap
     ethr =  3.18E-09,  avg # of iterations =  4.7

     total cpu time spent up to now is     4101.4 secs

     total energy              =    -467.87420793 Ry
     Harris-Foulkes estimate   =    -467.87420869 Ry
     estimated scf accuracy    <       0.00000294 Ry

     iteration #  4     ecut=    50.00 Ry     beta= 0.60
     Davidson diagonalization with overlap
     ethr =  3.18E-09,  avg # of iterations =  2.7

     total cpu time spent up to now is     4124.2 secs

     total energy              =    -467.87420816 Ry
     Harris-Foulkes estimate   =    -467.87420822 Ry
     estimated scf accuracy    <       0.00000039 Ry

     iteration #  5     ecut=    50.00 Ry     beta= 0.60
     Davidson diagonalization with overlap
     ethr =  7.98E-10,  avg # of iterations =  2.5

     total cpu time spent up to now is     4145.8 secs

     total energy              =    -467.87420812 Ry
     Harris-Foulkes estimate   =    -467.87420818 Ry
     estimated scf accuracy    <       0.00000027 Ry

     iteration #  6     ecut=    50.00 Ry     beta= 0.60
     Davidson diagonalization with overlap
     ethr =  5.51E-10,  avg # of iterations =  2.4

     total cpu time spent up to now is     4167.5 secs

     total energy              =    -467.87420812 Ry
     Harris-Foulkes estimate   =    -467.87420814 Ry
     estimated scf accuracy    <       0.00000008 Ry

     iteration #  7     ecut=    50.00 Ry     beta= 0.60
     Davidson diagonalization with overlap
     ethr =  1.55E-10,  avg # of iterations =  2.9

     total cpu time spent up to now is     4191.1 secs

     total energy              =    -467.87420813 Ry
     Harris-Foulkes estimate   =    -467.87420813 Ry
     estimated scf accuracy    <       0.00000001 Ry

     iteration #  8     ecut=    50.00 Ry     beta= 0.60
     Davidson diagonalization with overlap
     ethr =  2.16E-11,  avg # of iterations =  3.3

     total cpu time spent up to now is     4214.2 secs

     total energy              =    -467.87420813 Ry
     Harris-Foulkes estimate   =    -467.87420813 Ry
     estimated scf accuracy    <          4.1E-09 Ry

     iteration #  9     ecut=    50.00 Ry     beta= 0.60
     Davidson diagonalization with overlap
     ethr =  8.38E-12,  avg # of iterations =  3.2

     total cpu time spent up to now is     4237.0 secs

     total energy              =    -467.87420813 Ry
     Harris-Foulkes estimate   =    -467.87420813 Ry
     estimated scf accuracy    <          1.1E-10 Ry

     iteration # 10     ecut=    50.00 Ry     beta= 0.60
     Davidson diagonalization with overlap
     ethr =  2.26E-13,  avg # of iterations =  5.0

     total cpu time spent up to now is     4272.7 secs

     total energy              =    -467.87420813 Ry
     Harris-Foulkes estimate   =    -467.87420813 Ry
     estimated scf accuracy    <          3.2E-10 Ry

     iteration # 11     ecut=    50.00 Ry     beta= 0.60
     Davidson diagonalization with overlap
     ethr =  2.26E-13,  avg # of iterations =  2.6

     total cpu time spent up to now is     4295.5 secs

     total energy              =    -467.87420813 Ry
     Harris-Foulkes estimate   =    -467.87420813 Ry
     estimated scf accuracy    <          8.7E-11 Ry

     iteration # 12     ecut=    50.00 Ry     beta= 0.60
     Davidson diagonalization with overlap
     ethr =  1.78E-13,  avg # of iterations =  2.9

     total cpu time spent up to now is     4318.3 secs

     total energy              =    -467.87420813 Ry
     Harris-Foulkes estimate   =    -467.87420813 Ry
     estimated scf accuracy    <          2.5E-12 Ry

     iteration # 13     ecut=    50.00 Ry     beta= 0.60
     Davidson diagonalization with overlap
     ethr =  1.00E-13,  avg # of iterations =  1.4

     total cpu time spent up to now is     4338.5 secs

     End of self-consistent calculation

     Number of k-points >= 100: set verbosity='high' to print the bands.

     the Fermi energy is    14.5659 ev

!    total energy              =    -467.87420813 Ry
     Harris-Foulkes estimate   =    -467.87420813 Ry
     estimated scf accuracy    <          4.8E-13 Ry

     The total energy is the sum of the following terms:

     one-electron contribution =    -138.72569533 Ry
     hartree contribution      =      87.76305704 Ry
     xc contribution           =     -62.07101798 Ry
     ewald contribution        =    -354.84079010 Ry
     smearing contrib. (-TS)   =       0.00023823 Ry

     convergence has been achieved in  13 iterations

     Forces acting on atoms (cartesian axes, Ry/au):

     atom    1 type  2   force =     0.00000000    0.00000000    0.00000000
     atom    2 type  2   force =     0.00000000    0.00000000    0.00000000
     atom    3 type  2   force =     0.00000000    0.00000000    0.00000000
     atom    4 type  1   force =     0.00000000    0.00000000   -0.00000000

     Total force =     0.000000     Total SCF correction =     0.000000


     Computing stress (Cartesian axis) and pressure

          total   stress  (Ry/bohr**3)                   (kbar)     P=    0.01
   0.00000007   0.00000116   0.00000116          0.01      0.17      0.17
   0.00000116   0.00000007   0.00000116          0.17      0.01      0.17
   0.00000116   0.00000116   0.00000007          0.17      0.17      0.01


     number of scf cycles    =   6
     number of bfgs steps    =   5

     enthalpy old            =    -467.8742080075 Ry
     enthalpy new            =    -467.8742081291 Ry

     CASE: enthalpy_new < enthalpy_old

     new trust radius        =       0.0002462832 bohr
     new conv_thr            =            1.0E-12 Ry

     new unit-cell volume =    467.31049 a.u.^3 (    69.24827 Ang^3 )
     density =      5.67133 g/cm^3

CELL_PARAMETERS (alat=  1.88972599)
  -4.889518587   1.630203448   1.630203448
   1.630203448   1.630203448  -4.889518587
   1.630203448  -4.889518587   1.630203448

ATOMIC_POSITIONS (angstrom)
Ti       0.000545878   0.000545878  -3.259315139
Ti       0.000545878  -3.259315139   0.000545878
Ti      -3.259315139   0.000545878   0.000545878
Nb      -1.629111691  -1.629111691  -1.629111691


     NEW-OLD atomic charge density approx. for the potential
     extrapolated charge   48.99876, renormalised to   49.00000

     total cpu time spent up to now is     4348.6 secs

     Self-consistent Calculation

     iteration #  1     ecut=    50.00 Ry     beta= 0.60
     Davidson diagonalization with overlap
     ethr =  1.00E-06,  avg # of iterations =  2.0

     Threshold (ethr) on eigenvalues was too large:
     Diagonalizing with lowered threshold

     Davidson diagonalization with overlap
     ethr =  2.95E-10,  avg # of iterations =  3.6

     total cpu time spent up to now is     4402.1 secs

     total energy              =    -467.87420801 Ry
     Harris-Foulkes estimate   =    -467.87674356 Ry
     estimated scf accuracy    <       0.00000020 Ry

     iteration #  2     ecut=    50.00 Ry     beta= 0.60
     Davidson diagonalization with overlap
     ethr =  4.17E-10,  avg # of iterations =  5.0

     total cpu time spent up to now is     4441.1 secs

     total energy              =    -467.87420803 Ry
     Harris-Foulkes estimate   =    -467.87420852 Ry
     estimated scf accuracy    <       0.00000241 Ry

     iteration #  3     ecut=    50.00 Ry     beta= 0.60
     Davidson diagonalization with overlap
     ethr =  4.17E-10,  avg # of iterations =  4.6

     total cpu time spent up to now is     4470.7 secs

     total energy              =    -467.87420821 Ry
     Harris-Foulkes estimate   =    -467.87420832 Ry
     estimated scf accuracy    <       0.00000049 Ry

     iteration #  4     ecut=    50.00 Ry     beta= 0.60
     Davidson diagonalization with overlap
     ethr =  4.17E-10,  avg # of iterations =  3.1

     total cpu time spent up to now is     4494.9 secs

     total energy              =    -467.87420824 Ry
     Harris-Foulkes estimate   =    -467.87420826 Ry
     estimated scf accuracy    <       0.00000006 Ry

     iteration #  5     ecut=    50.00 Ry     beta= 0.60
     Davidson diagonalization with overlap
     ethr =  1.14E-10,  avg # of iterations =  2.6

     total cpu time spent up to now is     4517.7 secs

     total energy              =    -467.87420824 Ry
     Harris-Foulkes estimate   =    -467.87420825 Ry
     estimated scf accuracy    <       0.00000002 Ry

     iteration #  6     ecut=    50.00 Ry     beta= 0.60
     Davidson diagonalization with overlap
     ethr =  3.21E-11,  avg # of iterations =  3.0

     total cpu time spent up to now is     4542.8 secs

[...]
Ti      -3.259338926   0.000050752   0.000050752
Nb      -1.629618711  -1.629618711  -1.629618711
End final coordinates



     A final scf calculation at the relaxed structure.
     The G-vectors are recalculated for the final unit cell
     Results may differ from those at the preceding step.
 
     Parallelization info
     --------------------
     sticks:   dense  smooth     PW     G-vecs:    dense   smooth      PW
     Min         921     364    140                22003     5537    1306
     Max         922     365    141                22005     5538    1307
     Sum        3685    1459    563                88015    22149    5225
 


     bravais-lattice index     =            0
     lattice parameter (alat)  =       1.8897  a.u.
     unit-cell volume          =     467.3208 (a.u.)^3
     number of atoms/cell      =            4
     number of atomic types    =            2
     number of electrons       =        49.00
     number of Kohn-Sham states=           30
     kinetic-energy cutoff     =      50.0000  Ry
     charge density cutoff     =     500.0000  Ry
     convergence threshold     =      1.0E-12
     mixing beta               =       0.6000
     number of iterations used =            8  plain     mixing
     Exchange-correlation      = SLA PW PBE PBE ( 1  4  3  4 0 0)

     celldm(1)=   1.889726  celldm(2)=   0.000000  celldm(3)=   0.000000
     celldm(4)=   0.000000  celldm(5)=   0.000000  celldm(6)=   0.000000

     crystal axes: (cart. coord. in units of alat)
               a(1) = (  -4.889059   1.629720   1.629720 )  
               a(2) = (   1.629720   1.629720  -4.889059 )  
               a(3) = (   1.629720  -4.889059   1.629720 )  

     reciprocal axes: (cart. coord. in units 2 pi/alat)
               b(1) = ( -0.306815 -0.153413 -0.153413 )  
               b(2) = ( -0.153413 -0.153413 -0.306815 )  
               b(3) = ( -0.153413 -0.306815 -0.153413 )  


     PseudoPot. # 1 for Nb read from file:
     ./Nb.pbe-nsp-van.UPF
     MD5 check sum: 0a22fc7fb0ba19a08ca5db297a5d2854
     Pseudo is Ultrasoft + core correction, Zval = 13.0
     Generated by new atomic code, or converted to UPF format
     Using radial grid of  887 points,  6 beta functions with: 
                l(1) =   0
                l(2) =   0
                l(3) =   1
                l(4) =   1
                l(5) =   2
                l(6) =   2
     Q(r) pseudized with  6 coefficients,  rinner =    1.000   1.000   1.000
                                                       1.000   1.000

     PseudoPot. # 2 for Ti read from file:
     ./Ti.pbe-sp-van_ak.UPF
     MD5 check sum: f98fea3e8887528921fefa5636a534ca
     Pseudo is Ultrasoft, Zval = 12.0
     Generated by new atomic code, or converted to UPF format
     Using radial grid of  851 points,  6 beta functions with: 
                l(1) =   0
                l(2) =   0
                l(3) =   1
                l(4) =   1
                l(5) =   2
                l(6) =   2
     Q(r) pseudized with  8 coefficients,  rinner =    1.000   1.000   1.000
                                                       1.000   1.000

     atomic species   valence    mass     pseudopotential
        Nb            13.00    92.90638     Nb( 1.00)
        Ti            12.00    47.86700     Ti( 1.00)

     12 Sym. Ops., with inversion, found



   Cartesian axes

     site n.     atom                  positions (alat units)
         1           Ti  tau(   1) = (   0.0000508   0.0000508  -3.2593392  )
         2           Ti  tau(   2) = (   0.0000508  -3.2593392   0.0000508  )
         3           Ti  tau(   3) = (  -3.2593392   0.0000508   0.0000508  )
         4           Nb  tau(   4) = (  -1.6296188  -1.6296188  -1.6296188  )

     number of k points=   231  Marzari-Vanderbilt smearing, width (Ry)=  0.0200

     Number of k-points >= 100: set verbosity='high' to print them.

     Dense  grid:    88015 G-vectors     FFT dimensions: (  75,  75,  75)

     Smooth grid:    22149 G-vectors     FFT dimensions: (  45,  45,  45)

     Estimated max dynamical RAM per process >     161.90 MB

     Estimated total dynamical RAM >     647.61 MB

     Initial potential from superposition of free atoms

     starting charge   45.99713, renormalised to   49.00000
     Starting wfcs are   43 randomized atomic wfcs

     total cpu time spent up to now is     6008.9 secs

     Self-consistent Calculation

     iteration #  1     ecut=    50.00 Ry     beta= 0.60
     Davidson diagonalization with overlap
     c_bands:  1 eigenvalues not converged
     c_bands:  1 eigenvalues not converged
     c_bands:  1 eigenvalues not converged
     c_bands:  2 eigenvalues not converged
     c_bands:  1 eigenvalues not converged
     c_bands:  1 eigenvalues not converged
     c_bands:  1 eigenvalues not converged
     c_bands:  2 eigenvalues not converged
     c_bands:  1 eigenvalues not converged
     c_bands:  1 eigenvalues not converged
     c_bands:  1 eigenvalues not converged
     c_bands:  1 eigenvalues not converged
     c_bands:  1 eigenvalues not converged
     c_bands:  1 eigenvalues not converged
     c_bands:  1 eigenvalues not converged
     c_bands:  1 eigenvalues not converged
     c_bands:  1 eigenvalues not converged
     c_bands:  1 eigenvalues not converged
     c_bands:  1 eigenvalues not converged
     c_bands:  1 eigenvalues not converged
     c_bands:  1 eigenvalues not converged
     c_bands:  1 eigenvalues not converged
     c_bands:  1 eigenvalues not converged
     c_bands:  2 eigenvalues not converged
     c_bands:  1 eigenvalues not converged
     c_bands:  1 eigenvalues not converged
     c_bands:  1 eigenvalues not converged
     c_bands:  1 eigenvalues not converged
     c_bands:  1 eigenvalues not converged
     c_bands:  1 eigenvalues not converged
     c_bands:  2 eigenvalues not converged
     c_bands:  1 eigenvalues not converged
     c_bands:  1 eigenvalues not converged
     c_bands:  1 eigenvalues not converged
     c_bands:  1 eigenvalues not converged
     c_bands:  1 eigenvalues not converged
     c_bands:  1 eigenvalues not converged
     c_bands:  1 eigenvalues not converged
     c_bands:  1 eigenvalues not converged
     c_bands:  1 eigenvalues not converged
     c_bands:  3 eigenvalues not converged
     c_bands:  2 eigenvalues not converged
     c_bands:  1 eigenvalues not converged
     c_bands:  1 eigenvalues not converged
     c_bands:  1 eigenvalues not converged
     c_bands:  1 eigenvalues not converged
     c_bands:  1 eigenvalues not converged
     c_bands:  2 eigenvalues not converged
     c_bands:  1 eigenvalues not converged
     c_bands:  1 eigenvalues not converged
     c_bands:  2 eigenvalues not converged
     c_bands:  1 eigenvalues not converged
     c_bands:  2 eigenvalues not converged
     c_bands:  2 eigenvalues not converged
     c_bands:  1 eigenvalues not converged
     c_bands:  1 eigenvalues not converged
     c_bands:  1 eigenvalues not converged
     c_bands:  1 eigenvalues not converged
     c_bands:  3 eigenvalues not converged
     c_bands:  1 eigenvalues not converged
     c_bands:  1 eigenvalues not converged
     c_bands:  3 eigenvalues not converged
     c_bands:  2 eigenvalues not converged
     c_bands:  2 eigenvalues not converged
     c_bands:  1 eigenvalues not converged
     c_bands:  3 eigenvalues not converged
     c_bands:  1 eigenvalues not converged
     c_bands:  3 eigenvalues not converged
     c_bands:  3 eigenvalues not converged
     c_bands:  3 eigenvalues not converged
     ethr =  1.00E-06,  avg # of iterations = 15.7

     total cpu time spent up to now is     6067.9 secs

     total energy              =    -464.85707374 Ry
     Harris-Foulkes estimate   =    -469.22560101 Ry
     estimated scf accuracy    <       5.68338503 Ry

     iteration #  2     ecut=    50.00 Ry     beta= 0.60
     Davidson diagonalization with overlap
     ethr =  1.00E-02,  avg # of iterations =  4.5

     total cpu time spent up to now is     6093.7 secs

     total energy              =    -463.93084544 Ry
     Harris-Foulkes estimate   =    -474.41147636 Ry
     estimated scf accuracy    <      36.53761238 Ry

     iteration #  3     ecut=    50.00 Ry     beta= 0.60
     Davidson diagonalization with overlap
     ethr =  1.00E-02,  avg # of iterations =  4.2

     total cpu time spent up to now is     6116.3 secs

     total energy              =    -467.76055071 Ry
     Harris-Foulkes estimate   =    -467.90738190 Ry
     estimated scf accuracy    <       0.52589921 Ry

     iteration #  4     ecut=    50.00 Ry     beta= 0.60
     Davidson diagonalization with overlap
     ethr =  1.07E-03,  avg # of iterations =  5.6

     total cpu time spent up to now is     6140.2 secs

     total energy              =    -467.85679666 Ry
     Harris-Foulkes estimate   =    -467.87738070 Ry
     estimated scf accuracy    <       0.04303377 Ry

     iteration #  5     ecut=    50.00 Ry     beta= 0.60
     Davidson diagonalization with overlap
     ethr =  8.78E-05,  avg # of iterations =  7.3

     total cpu time spent up to now is     6170.9 secs

     total energy              =    -467.85218978 Ry
     Harris-Foulkes estimate   =    -467.88541914 Ry
     estimated scf accuracy    <       0.11864968 Ry

     iteration #  6     ecut=    50.00 Ry     beta= 0.60
     Davidson diagonalization with overlap
     ethr =  8.78E-05,  avg # of iterations =  5.0

     total cpu time spent up to now is     6195.1 secs

     total energy              =    -467.87053961 Ry
     Harris-Foulkes estimate   =    -467.87946546 Ry
     estimated scf accuracy    <       0.05210648 Ry

     iteration #  7     ecut=    50.00 Ry     beta= 0.60
     Davidson diagonalization with overlap
     ethr =  8.78E-05,  avg # of iterations =  1.0

     total cpu time spent up to now is     6211.0 secs

     total energy              =    -467.87229103 Ry
     Harris-Foulkes estimate   =    -467.87316665 Ry
     estimated scf accuracy    <       0.00517807 Ry

     iteration #  8     ecut=    50.00 Ry     beta= 0.60
     Davidson diagonalization with overlap
     ethr =  1.06E-05,  avg # of iterations =  5.0

     total cpu time spent up to now is     6255.6 secs

     total energy              =    -467.87382417 Ry
     Harris-Foulkes estimate   =    -467.87394902 Ry
     estimated scf accuracy    <       0.00213379 Ry

     iteration #  9     ecut=    50.00 Ry     beta= 0.60
     Davidson diagonalization with overlap
     ethr =  4.35E-06,  avg # of iterations =  1.8

     total cpu time spent up to now is     6275.4 secs

     total energy              =    -467.87371453 Ry
     Harris-Foulkes estimate   =    -467.87384866 Ry
     estimated scf accuracy    <       0.00130418 Ry

     iteration # 10     ecut=    50.00 Ry     beta= 0.60
     Davidson diagonalization with overlap
     ethr =  2.66E-06,  avg # of iterations =  2.2

     total cpu time spent up to now is     6292.3 secs

     total energy              =    -467.87374377 Ry
     Harris-Foulkes estimate   =    -467.87376963 Ry
     estimated scf accuracy    <       0.00018006 Ry

     iteration # 11     ecut=    50.00 Ry     beta= 0.60
     Davidson diagonalization with overlap
     c_bands:  1 eigenvalues not converged
     ethr =  3.67E-07,  avg # of iterations =  4.7

     total cpu time spent up to now is     6313.5 secs

     total energy              =    -467.87377110 Ry
     Harris-Foulkes estimate   =    -467.87377210 Ry
     estimated scf accuracy    <       0.00000209 Ry

     iteration # 12     ecut=    50.00 Ry     beta= 0.60
     Davidson diagonalization with overlap
     c_bands:  1 eigenvalues not converged
     ethr =  4.26E-09,  avg # of iterations =  5.9

     total cpu time spent up to now is     6340.2 secs

     total energy              =    -467.87377254 Ry
     Harris-Foulkes estimate   =    -467.87377272 Ry
     estimated scf accuracy    <       0.00000033 Ry

     iteration # 13     ecut=    50.00 Ry     beta= 0.60
     Davidson diagonalization with overlap
     ethr =  6.83E-10,  avg # of iterations =  5.0

     total cpu time spent up to now is     6365.2 secs

     total energy              =    -467.87377260 Ry
     Harris-Foulkes estimate   =    -467.87377283 Ry
     estimated scf accuracy    <       0.00000183 Ry

     iteration # 14     ecut=    50.00 Ry     beta= 0.60
     Davidson diagonalization with overlap
     ethr =  6.83E-10,  avg # of iterations =  3.7

     total cpu time spent up to now is     6385.5 secs

     total energy              =    -467.87377266 Ry
     Harris-Foulkes estimate   =    -467.87377268 Ry
     estimated scf accuracy    <       0.00000014 Ry

     iteration # 15     ecut=    50.00 Ry     beta= 0.60
     Davidson diagonalization with overlap
     ethr =  2.76E-10,  avg # of iterations =  2.4

     total cpu time spent up to now is     6402.5 secs

     total energy              =    -467.87377266 Ry
     Harris-Foulkes estimate   =    -467.87377266 Ry
     estimated scf accuracy    <       0.00000002 Ry

     iteration # 16     ecut=    50.00 Ry     beta= 0.60
     Davidson diagonalization with overlap
     ethr =  3.72E-11,  avg # of iterations =  4.4

     total cpu time spent up to now is     6425.1 secs

     total energy              =    -467.87377267 Ry
     Harris-Foulkes estimate   =    -467.87377267 Ry
     estimated scf accuracy    <          8.2E-09 Ry

     iteration # 17     ecut=    50.00 Ry     beta= 0.60
     Davidson diagonalization with overlap
     ethr =  1.68E-11,  avg # of iterations =  1.7

     total cpu time spent up to now is     6441.5 secs

     total energy              =    -467.87377267 Ry
     Harris-Foulkes estimate   =    -467.87377267 Ry
     estimated scf accuracy    <          4.1E-10 Ry

     iteration # 18     ecut=    50.00 Ry     beta= 0.60
     Davidson diagonalization with overlap
     ethr =  8.31E-13,  avg # of iterations =  4.9

     total cpu time spent up to now is     6465.8 secs

     total energy              =    -467.87377267 Ry
     Harris-Foulkes estimate   =    -467.87377267 Ry
     estimated scf accuracy    <          1.1E-09 Ry

     iteration # 19     ecut=    50.00 Ry     beta= 0.60
     Davidson diagonalization with overlap
     ethr =  8.31E-13,  avg # of iterations =  1.0

     total cpu time spent up to now is     6481.6 secs

     total energy              =    -467.87377267 Ry
     Harris-Foulkes estimate   =    -467.87377267 Ry
     estimated scf accuracy    <          6.7E-10 Ry

     iteration # 20     ecut=    50.00 Ry     beta= 0.60
     Davidson diagonalization with overlap
     ethr =  8.31E-13,  avg # of iterations =  3.2

     total cpu time spent up to now is     6501.4 secs

     total energy              =    -467.87377267 Ry
     Harris-Foulkes estimate   =    -467.87377267 Ry
     estimated scf accuracy    <          9.2E-11 Ry

     iteration # 21     ecut=    50.00 Ry     beta= 0.60
     Davidson diagonalization with overlap
     ethr =  1.87E-13,  avg # of iterations =  1.5

     total cpu time spent up to now is     6517.5 secs

     total energy              =    -467.87377267 Ry
     Harris-Foulkes estimate   =    -467.87377267 Ry
     estimated scf accuracy    <          2.8E-11 Ry

     iteration # 22     ecut=    50.00 Ry     beta= 0.60
     Davidson diagonalization with overlap
     ethr =  1.00E-13,  avg # of iterations =  2.5

     total cpu time spent up to now is     6534.6 secs

     total energy              =    -467.87377267 Ry
     Harris-Foulkes estimate   =    -467.87377267 Ry
     estimated scf accuracy    <          3.5E-12 Ry

     iteration # 23     ecut=    50.00 Ry     beta= 0.60
     Davidson diagonalization with overlap
     ethr =  1.00E-13,  avg # of iterations =  1.0

     total cpu time spent up to now is     6550.6 secs

     End of self-consistent calculation

     Number of k-points >= 100: set verbosity='high' to print the bands.

     the Fermi energy is    14.5663 ev

!    total energy              =    -467.87377267 Ry
     Harris-Foulkes estimate   =    -467.87377267 Ry
     estimated scf accuracy    <          4.4E-15 Ry

     The total energy is the sum of the following terms:

     one-electron contribution =    -138.72406983 Ry
     hartree contribution      =      87.76329844 Ry
     xc contribution           =     -62.07174221 Ry
     ewald contribution        =    -354.84149413 Ry
     smearing contrib. (-TS)   =       0.00023506 Ry

     convergence has been achieved in  23 iterations

     Forces acting on atoms (cartesian axes, Ry/au):

     atom    1 type  2   force =     0.00000000    0.00000000    0.00000000
     atom    2 type  2   force =     0.00000000    0.00000000    0.00000000
     atom    3 type  2   force =     0.00000000    0.00000000    0.00000000
     atom    4 type  1   force =     0.00000000   -0.00000000   -0.00000000

     Total force =     0.000000     Total SCF correction =     0.000000


     Computing stress (Cartesian axis) and pressure

          total   stress  (Ry/bohr**3)                   (kbar)     P=   -0.23
  -0.00000156  -0.00000004  -0.00000004         -0.23     -0.01     -0.01
  -0.00000004  -0.00000156  -0.00000004         -0.01     -0.23     -0.01
  -0.00000004  -0.00000004  -0.00000156         -0.01     -0.01     -0.23

 
     init_run     :     20.61s CPU     21.24s WALL (       2 calls)
     electrons    :   6268.42s CPU   6416.38s WALL (      12 calls)
     update_pot   :     15.17s CPU     15.29s WALL (      10 calls)
     forces       :     25.08s CPU     26.36s WALL (      12 calls)
     stress       :     66.26s CPU     70.10s WALL (      12 calls)

     Called by init_run:
     wfcinit      :     18.39s CPU     18.67s WALL (       2 calls)
     potinit      :      0.80s CPU      0.84s WALL (       2 calls)
     hinit0       :      1.13s CPU      1.34s WALL (       2 calls)

     Called by electrons:
     c_bands      :   5207.33s CPU   5298.60s WALL (     239 calls)
     sum_band     :    992.41s CPU   1024.03s WALL (     239 calls)
     v_of_rho     :     19.08s CPU     19.34s WALL (     245 calls)
     newd         :     49.03s CPU     72.89s WALL (     245 calls)
     mix_rho      :      2.09s CPU      2.11s WALL (     239 calls)

     Called by c_bands:
     init_us_2    :     67.46s CPU     68.12s WALL (  116424 calls)
     cegterg      :   4878.70s CPU   4934.85s WALL (   55209 calls)

     Called by sum_band:
     sum_band:bec :      1.33s CPU      1.40s WALL (   55209 calls)
     addusdens    :     54.94s CPU     76.58s WALL (     239 calls)

     Called by *egterg:
     h_psi        :   3986.21s CPU   4037.27s WALL (  234244 calls)
     s_psi        :     91.22s CPU     91.77s WALL (  234244 calls)
     g_psi        :     18.59s CPU     18.84s WALL (  178573 calls)
     cdiaghg      :    426.42s CPU    427.32s WALL (  230086 calls)

     Called by h_psi:
     h_psi:pot    :   3975.85s CPU   4026.42s WALL (  234244 calls)
     h_psi:calbec :    100.49s CPU    101.50s WALL (  234244 calls)
     vloc_psi     :   3777.05s CPU   3825.93s WALL (  234244 calls)
     add_vuspsi   :     97.29s CPU     97.61s WALL (  234244 calls)

     General routines
     calbec       :    141.73s CPU    142.78s WALL (  303313 calls)
     fft          :     13.38s CPU     13.85s WALL (    3489 calls)
     ffts         :      0.37s CPU      0.39s WALL (     484 calls)
     fftw         :   4164.38s CPU   4216.59s WALL (10289680 calls)
     interpolate  :      1.21s CPU      1.23s WALL (     245 calls)
 
     Parallel routines
     fft_scatt_xy :    761.93s CPU    761.88s WALL (10293653 calls)
     fft_scatt_yz :    980.08s CPU    993.91s WALL (10293653 calls)
 
     PWSCF        :     1h46m CPU       46h 1m WALL

      49h
 
   This run was terminated on:  11:30:46  24Jan2020            

=------------------------------------------------------------------------------=
   JOB DONE.
=------------------------------------------------------------------------------=
