
     Program PWSCF v.6.0 (svn rev. 13079) starts on 28Apr2018 at 12:57:57 

     This program is part of the open-source Quantum ESPRESSO suite
     for quantum simulation of materials; please cite
         "P. Giannozzi et al., J. Phys.:Condens. Matter 21 395502 (2009);
          URL http://www.quantum-espresso.org", 
     in publications or presentations arising from this work. More details at
     http://www.quantum-espresso.org/quote

     Parallel version (MPI), running on     4 processors
     R & G space division:  proc/nbgrp/npool/nimage =       4
     Waiting for input...
     Reading input from standard input

     Current dimensions of program PWSCF are:
     Max number of different atomic species (ntypx) = 10
     Max number of k-points (npk) =  40000
     Max angular momentum in pseudopotentials (lmaxx) =  3

     Subspace diagonalization in iterative solution of the eigenvalue problem:
     a serial algorithm will be used


     Parallelization info
     --------------------
     sticks:   dense  smooth     PW     G-vecs:    dense   smooth      PW
     Min         228      91     28                18214     4619     802
     Max         229      92     31                18229     4626     803
     Sum         913     367    121                72875    18489    3211



     bravais-lattice index     =            0
     lattice parameter (alat)  =       1.8897  a.u.
     unit-cell volume          =     538.8952 (a.u.)^3
     number of atoms/cell      =            4
     number of atomic types    =            2
     number of electrons       =        50.00
     number of Kohn-Sham states=           30
     kinetic-energy cutoff     =      40.0000  Ry
     charge density cutoff     =     400.0000  Ry
     convergence threshold     =      1.0E-10
     mixing beta               =       0.6000
     number of iterations used =            8  plain     mixing
     Exchange-correlation      = SLA  PW   PBE  PBE ( 1  4  3  4 0 0)
     nstep                     =           50


     celldm(1)=   1.889726  celldm(2)=   0.000000  celldm(3)=   0.000000
     celldm(4)=   0.000000  celldm(5)=   0.000000  celldm(6)=   0.000000

     crystal axes: (cart. coord. in units of alat)
               a(1) = (  -1.522502  -2.637051   0.000000 )  
               a(2) = (   3.045004   0.000000   0.000000 )  
               a(3) = (   0.000000   0.000000   9.944922 )  

     reciprocal axes: (cart. coord. in units 2 pi/alat)
               b(1) = (  0.000000 -0.379211  0.000000 )  
               b(2) = (  0.328407 -0.189606  0.000000 )  
               b(3) = ( -0.000000  0.000000  0.100554 )  


     PseudoPot. # 1 for Nb read from file:
     ./Nb.pbe-nsp-van.UPF
     MD5 check sum: 0a22fc7fb0ba19a08ca5db297a5d2854
     Pseudo is Ultrasoft + core correction, Zval = 13.0
     Generated by new atomic code, or converted to UPF format
     Using radial grid of  887 points,  6 beta functions with: 
                l(1) =   0
                l(2) =   0
                l(3) =   1
                l(4) =   1
                l(5) =   2
                l(6) =   2
     Q(r) pseudized with  6 coefficients,  rinner =    1.000   1.000   1.000
                                                       1.000   1.000

     PseudoPot. # 2 for Ti read from file:
     ./Ti.pbe-sp-van_ak.UPF
     MD5 check sum: f98fea3e8887528921fefa5636a534ca
     Pseudo is Ultrasoft, Zval = 12.0
     Generated by new atomic code, or converted to UPF format
     Using radial grid of  851 points,  6 beta functions with: 
                l(1) =   0
                l(2) =   0
                l(3) =   1
                l(4) =   1
                l(5) =   2
                l(6) =   2
     Q(r) pseudized with  8 coefficients,  rinner =    1.000   1.000   1.000
                                                       1.000   1.000

     atomic species   valence    mass     pseudopotential
        Nb            13.00    92.90638     Nb( 1.00)
        Ti            12.00    47.86700     Ti( 1.00)

      6 Sym. Ops. (no inversion) found
          (note:  6 additional sym.ops. were found but ignored
           their fractional translations are incommensurate with FFT grid)


   Cartesian axes

     site n.     atom                  positions (alat units)
         1           Ti  tau(   1) = (   1.5225021  -2.6370512   4.9724614  )
         2           Ti  tau(   2) = (   0.0000015  -1.7580350   2.4862307  )
         3           Nb  tau(   3) = (   1.5225021  -2.6370512   9.9449228  )
         4           Nb  tau(   4) = (   0.0000015  -1.7580350   7.4586921  )

     number of k points=   220  Marzari-Vanderbilt smearing, width (Ry)=  0.0200

     Number of k-points >= 100: set verbosity='high' to print them.

     Dense  grid:    72875 G-vectors     FFT dimensions: (  40,  40, 120)

     Smooth grid:    18489 G-vectors     FFT dimensions: (  24,  24,  75)

     Estimated max dynamical RAM per process >      72.15Mb

     Estimated total allocated dynamical RAM >     288.59Mb

     Initial potential from superposition of free atoms

     starting charge   47.99445, renormalised to   50.00000
     Starting wfc are   46 randomized atomic wfcs

     total cpu time spent up to now is       10.3 secs

     per-process dynamical memory:   139.7 Mb

     Self-consistent Calculation

     iteration #  1     ecut=    40.00 Ry     beta=0.60
     Davidson diagonalization with overlap
     ethr =  1.00E-02,  avg # of iterations =  4.1

     total cpu time spent up to now is       32.5 secs

     total energy              =    -389.53199995 Ry
     Harris-Foulkes estimate   =    -482.37762794 Ry
     estimated scf accuracy    <     112.72590636 Ry

     iteration #  2     ecut=    40.00 Ry     beta=0.60
     Davidson diagonalization with overlap
     ethr =  1.00E-02,  avg # of iterations = 12.9

     total cpu time spent up to now is      102.4 secs

     total energy              =    -431.94845407 Ry
     Harris-Foulkes estimate   =    -703.85266976 Ry
     estimated scf accuracy    <    1009.96907923 Ry

     iteration #  3     ecut=    40.00 Ry     beta=0.60
     Davidson diagonalization with overlap
     ethr =  1.00E-02,  avg # of iterations =  7.0

     total cpu time spent up to now is      148.7 secs

     total energy              =    -472.28212592 Ry
     Harris-Foulkes estimate   =    -481.44428168 Ry
     estimated scf accuracy    <      62.70962267 Ry

     iteration #  4     ecut=    40.00 Ry     beta=0.60
     Davidson diagonalization with overlap
     ethr =  1.00E-02,  avg # of iterations =  2.5

     total cpu time spent up to now is      165.8 secs

     total energy              =    -470.80258693 Ry
     Harris-Foulkes estimate   =    -472.86492838 Ry
     estimated scf accuracy    <      41.44084785 Ry

     iteration #  5     ecut=    40.00 Ry     beta=0.60
     Davidson diagonalization with overlap
     ethr =  1.00E-02,  avg # of iterations =  1.2

     total cpu time spent up to now is      179.8 secs

     total energy              =    -470.87091193 Ry
     Harris-Foulkes estimate   =    -470.92711431 Ry
     estimated scf accuracy    <      31.87241212 Ry

     iteration #  6     ecut=    40.00 Ry     beta=0.60
     Davidson diagonalization with overlap
     ethr =  1.00E-02,  avg # of iterations =  1.0

     total cpu time spent up to now is      193.6 secs

     total energy              =    -470.78459943 Ry
     Harris-Foulkes estimate   =    -470.90245889 Ry
     estimated scf accuracy    <      31.60591349 Ry

     iteration #  7     ecut=    40.00 Ry     beta=0.60
     Davidson diagonalization with overlap
     ethr =  1.00E-02,  avg # of iterations =  1.0

     total cpu time spent up to now is      207.5 secs

     total energy              =    -469.53061421 Ry
     Harris-Foulkes estimate   =    -470.80800412 Ry
     estimated scf accuracy    <      30.28613469 Ry

     iteration #  8     ecut=    40.00 Ry     beta=0.60
     Davidson diagonalization with overlap
     ethr =  1.00E-02,  avg # of iterations =  1.7

     total cpu time spent up to now is      222.0 secs

     total energy              =    -468.10233591 Ry
     Harris-Foulkes estimate   =    -469.63865313 Ry
     estimated scf accuracy    <      19.77272680 Ry

     iteration #  9     ecut=    40.00 Ry     beta=0.60
     Davidson diagonalization with overlap
     ethr =  1.00E-02,  avg # of iterations =  4.8

     total cpu time spent up to now is      243.6 secs

     total energy              =    -469.08660402 Ry
     Harris-Foulkes estimate   =    -469.17239809 Ry
     estimated scf accuracy    <       2.44608233 Ry

     iteration # 10     ecut=    40.00 Ry     beta=0.60
     Davidson diagonalization with overlap
     ethr =  4.89E-03,  avg # of iterations =  1.3

     total cpu time spent up to now is      257.7 secs

     total energy              =    -469.32751479 Ry
     Harris-Foulkes estimate   =    -469.12516312 Ry
     estimated scf accuracy    <       0.53428102 Ry

     iteration # 11     ecut=    40.00 Ry     beta=0.60
     Davidson diagonalization with overlap
     ethr =  1.07E-03,  avg # of iterations =  6.8

     total cpu time spent up to now is      289.9 secs

     total energy              =    -470.64546398 Ry
     Harris-Foulkes estimate   =    -470.15939770 Ry
     estimated scf accuracy    <      38.48439639 Ry

     iteration # 12     ecut=    40.00 Ry     beta=0.60
     Davidson diagonalization with overlap
     ethr =  1.07E-03,  avg # of iterations =  2.7

     total cpu time spent up to now is      306.0 secs

     total energy              =    -470.65639651 Ry
     Harris-Foulkes estimate   =    -470.72804420 Ry
     estimated scf accuracy    <      54.71220407 Ry

     iteration # 13     ecut=    40.00 Ry     beta=0.60
     Davidson diagonalization with overlap
     ethr =  1.07E-03,  avg # of iterations =  1.0

     total cpu time spent up to now is      319.8 secs

     total energy              =    -468.39812128 Ry
     Harris-Foulkes estimate   =    -470.66264889 Ry
     estimated scf accuracy    <      52.88048245 Ry

     iteration # 14     ecut=    40.00 Ry     beta=0.60
     Davidson diagonalization with overlap
     ethr =  1.07E-03,  avg # of iterations =  5.7

     total cpu time spent up to now is      347.5 secs

     total energy              =    -469.01934126 Ry
     Harris-Foulkes estimate   =    -469.24062583 Ry
     estimated scf accuracy    <       3.26143821 Ry

     iteration # 15     ecut=    40.00 Ry     beta=0.60
     Davidson diagonalization with overlap
     ethr =  1.07E-03,  avg # of iterations =  4.3

     total cpu time spent up to now is      365.8 secs

     total energy              =    -469.14764676 Ry
     Harris-Foulkes estimate   =    -469.16727027 Ry
     estimated scf accuracy    <       0.39837904 Ry

     iteration # 16     ecut=    40.00 Ry     beta=0.60
     Davidson diagonalization with overlap
     ethr =  7.97E-04,  avg # of iterations =  1.1

     total cpu time spent up to now is      379.7 secs

     total energy              =    -469.14684368 Ry
     Harris-Foulkes estimate   =    -469.15346323 Ry
     estimated scf accuracy    <       0.21966248 Ry

     iteration # 17     ecut=    40.00 Ry     beta=0.60
     Davidson diagonalization with overlap
     ethr =  4.39E-04,  avg # of iterations =  1.3

     total cpu time spent up to now is      393.9 secs

     total energy              =    -469.07780268 Ry
     Harris-Foulkes estimate   =    -469.14913487 Ry
     estimated scf accuracy    <       0.20848365 Ry

     iteration # 18     ecut=    40.00 Ry     beta=0.60
     Davidson diagonalization with overlap
     ethr =  4.17E-04,  avg # of iterations =  3.0

     total cpu time spent up to now is      410.9 secs

     total energy              =    -469.08986831 Ry
     Harris-Foulkes estimate   =    -469.09943457 Ry
     estimated scf accuracy    <       0.06548348 Ry

     iteration # 19     ecut=    40.00 Ry     beta=0.60
     Davidson diagonalization with overlap
     ethr =  1.31E-04,  avg # of iterations =  4.2

     total cpu time spent up to now is      429.2 secs

     total energy              =    -469.09317810 Ry
     Harris-Foulkes estimate   =    -469.09451079 Ry
     estimated scf accuracy    <       0.02309356 Ry

     iteration # 20     ecut=    40.00 Ry     beta=0.60
     Davidson diagonalization with overlap
     ethr =  4.62E-05,  avg # of iterations =  4.2

     total cpu time spent up to now is      448.0 secs

     total energy              =    -469.09520160 Ry
     Harris-Foulkes estimate   =    -469.09537873 Ry
     estimated scf accuracy    <       0.00044340 Ry

     iteration # 21     ecut=    40.00 Ry     beta=0.60
     Davidson diagonalization with overlap
     ethr =  8.87E-07,  avg # of iterations =  6.5

     total cpu time spent up to now is      480.7 secs

     total energy              =    -469.09542138 Ry
     Harris-Foulkes estimate   =    -469.09547900 Ry
     estimated scf accuracy    <       0.00032330 Ry

     iteration # 22     ecut=    40.00 Ry     beta=0.60
     Davidson diagonalization with overlap
     ethr =  6.47E-07,  avg # of iterations =  3.9

     total cpu time spent up to now is      499.0 secs

     total energy              =    -469.09542973 Ry
     Harris-Foulkes estimate   =    -469.09549433 Ry
     estimated scf accuracy    <       0.00056251 Ry

     iteration # 23     ecut=    40.00 Ry     beta=0.60
     Davidson diagonalization with overlap
     ethr =  6.47E-07,  avg # of iterations =  1.4

     total cpu time spent up to now is      513.2 secs

     total energy              =    -469.09546004 Ry
     Harris-Foulkes estimate   =    -469.09546238 Ry
     estimated scf accuracy    <       0.00002038 Ry

     iteration # 24     ecut=    40.00 Ry     beta=0.60
     Davidson diagonalization with overlap
     ethr =  4.08E-08,  avg # of iterations =  4.6

     total cpu time spent up to now is      535.7 secs

     total energy              =    -469.09546547 Ry
     Harris-Foulkes estimate   =    -469.09546757 Ry
     estimated scf accuracy    <       0.00002115 Ry

     iteration # 25     ecut=    40.00 Ry     beta=0.60
     Davidson diagonalization with overlap
     ethr =  4.08E-08,  avg # of iterations =  1.0

     total cpu time spent up to now is      549.5 secs

     total energy              =    -469.09546548 Ry
     Harris-Foulkes estimate   =    -469.09546601 Ry
     estimated scf accuracy    <       0.00000752 Ry

     iteration # 26     ecut=    40.00 Ry     beta=0.60
     Davidson diagonalization with overlap
     ethr =  1.50E-08,  avg # of iterations =  3.0

     total cpu time spent up to now is      566.0 secs

     total energy              =    -469.09546586 Ry
     Harris-Foulkes estimate   =    -469.09546601 Ry
     estimated scf accuracy    <       0.00000126 Ry

     iteration # 27     ecut=    40.00 Ry     beta=0.60
     Davidson diagonalization with overlap
     ethr =  2.52E-09,  avg # of iterations =  2.8

     total cpu time spent up to now is      582.5 secs

     total energy              =    -469.09546597 Ry
     Harris-Foulkes estimate   =    -469.09546599 Ry
     estimated scf accuracy    <       0.00000012 Ry

     iteration # 28     ecut=    40.00 Ry     beta=0.60
     Davidson diagonalization with overlap
     ethr =  2.43E-10,  avg # of iterations =  4.6

     total cpu time spent up to now is      604.3 secs

     total energy              =    -469.09546599 Ry
     Harris-Foulkes estimate   =    -469.09546600 Ry
     estimated scf accuracy    <       0.00000006 Ry

     iteration # 29     ecut=    40.00 Ry     beta=0.60
     Davidson diagonalization with overlap
     ethr =  1.11E-10,  avg # of iterations =  1.0

     total cpu time spent up to now is      618.2 secs

     total energy              =    -469.09546599 Ry
     Harris-Foulkes estimate   =    -469.09546600 Ry
     estimated scf accuracy    <       0.00000002 Ry

     iteration # 30     ecut=    40.00 Ry     beta=0.60
     Davidson diagonalization with overlap
     ethr =  3.46E-11,  avg # of iterations =  3.0

     total cpu time spent up to now is      634.6 secs

     total energy              =    -469.09546600 Ry
     Harris-Foulkes estimate   =    -469.09546600 Ry
     estimated scf accuracy    <          1.7E-09 Ry

     iteration # 31     ecut=    40.00 Ry     beta=0.60
     Davidson diagonalization with overlap
     ethr =  3.34E-12,  avg # of iterations =  4.1

     total cpu time spent up to now is      654.3 secs

     total energy              =    -469.09546600 Ry
     Harris-Foulkes estimate   =    -469.09546600 Ry
     estimated scf accuracy    <          6.2E-10 Ry

     iteration # 32     ecut=    40.00 Ry     beta=0.60
     Davidson diagonalization with overlap
     ethr =  1.24E-12,  avg # of iterations =  1.4

     total cpu time spent up to now is      668.6 secs

     End of self-consistent calculation

     Number of k-points >= 100: set verbosity='high' to print the bands.

     the Fermi energy is    13.8286 ev

!    total energy              =    -469.09546600 Ry
     Harris-Foulkes estimate   =    -469.09546600 Ry
     estimated scf accuracy    <          9.2E-11 Ry

     The total energy is the sum of the following terms:

     one-electron contribution =    -137.35680248 Ry
     hartree contribution      =      85.59023127 Ry
     xc contribution           =     -65.50525984 Ry
     ewald contribution        =    -351.82030886 Ry
     smearing contrib. (-TS)   =      -0.00332609 Ry

     convergence has been achieved in  32 iterations

     Forces acting on atoms (Ry/au):

     atom    1 type  2   force =     0.00000000   -0.00000000   -0.00550580
     atom    2 type  2   force =     0.00000000    0.00000000    0.00550516
     atom    3 type  1   force =     0.00000000    0.00000000    0.01864373
     atom    4 type  1   force =     0.00000000   -0.00000000   -0.01864308

     Total force =     0.027491     Total SCF correction =     0.000043


     entering subroutine stress ...

          total   stress  (Ry/bohr**3)                   (kbar)     P= -120.19
  -0.00089405  -0.00000000   0.00000000       -131.52     -0.00      0.00
  -0.00000000  -0.00089405   0.00000000         -0.00   -131.52      0.00
   0.00000000   0.00000000  -0.00066294          0.00      0.00    -97.52


     BFGS Geometry Optimization

     number of scf cycles    =   1
     number of bfgs steps    =   0

     enthalpy new            =    -469.0954659966 Ry

     new trust radius        =       0.1037724851 bohr
     new conv_thr            =            1.0E-10 Ry

     new unit-cell volume =    506.53794 a.u.^3 (    75.06118 Ang^3 )

CELL_PARAMETERS (alat=  1.88972599)
  -1.488472313  -2.578109857   0.000000000
   2.976944626   0.000000000   0.000000000
   0.000000000   0.000000000   9.780100041

ATOMIC_POSITIONS (angstrom)
Ti       1.488472313  -2.578109857   4.887184762
Ti       0.000001489  -1.718740764   2.447889936
Nb       1.488472313  -2.578109857   9.789802365
Nb       0.000001489  -1.718740764   7.325373041


     NEW-OLD atomic charge density approx. for the potential

     Check: negative/imaginary core charge=   -0.000001    0.000000
     extrapolated charge   46.93415, renormalised to   50.00000

     total cpu time spent up to now is      680.9 secs

     per-process dynamical memory:   146.8 Mb

     Self-consistent Calculation

     iteration #  1     ecut=    40.00 Ry     beta=0.60
     Davidson diagonalization with overlap
     c_bands:  1 eigenvalues not converged
     c_bands:  1 eigenvalues not converged
     c_bands:  1 eigenvalues not converged
     c_bands:  2 eigenvalues not converged
     c_bands:  1 eigenvalues not converged
     c_bands:  1 eigenvalues not converged
     c_bands:  1 eigenvalues not converged
     c_bands:  3 eigenvalues not converged
     c_bands:  1 eigenvalues not converged
     ethr =  1.00E-06,  avg # of iterations = 13.4

     total cpu time spent up to now is      748.1 secs

     total energy              =    -465.15109460 Ry
     Harris-Foulkes estimate   =    -474.93045448 Ry
     estimated scf accuracy    <       4.55838193 Ry

     iteration #  2     ecut=    40.00 Ry     beta=0.60
     Davidson diagonalization with overlap
     ethr =  9.12E-03,  avg # of iterations =  5.8

     total cpu time spent up to now is      784.8 secs

     total energy              =    -466.02024492 Ry
     Harris-Foulkes estimate   =    -487.25830883 Ry
     estimated scf accuracy    <     127.25508413 Ry

     iteration #  3     ecut=    40.00 Ry     beta=0.60
     Davidson diagonalization with overlap
     ethr =  9.12E-03,  avg # of iterations =  5.1

     total cpu time spent up to now is      818.9 secs

     total energy              =    -468.97040940 Ry
     Harris-Foulkes estimate   =    -469.78337615 Ry
     estimated scf accuracy    <       5.73573248 Ry

     iteration #  4     ecut=    40.00 Ry     beta=0.60
     Davidson diagonalization with overlap
     ethr =  9.12E-03,  avg # of iterations =  1.0

     total cpu time spent up to now is      833.4 secs

     total energy              =    -469.12527241 Ry
     Harris-Foulkes estimate   =    -469.18525860 Ry
     estimated scf accuracy    <       0.44195790 Ry

     iteration #  5     ecut=    40.00 Ry     beta=0.60
     Davidson diagonalization with overlap
     ethr =  8.84E-04,  avg # of iterations =  2.7

     total cpu time spent up to now is      850.8 secs

     total energy              =    -469.16310043 Ry
     Harris-Foulkes estimate   =    -469.18930928 Ry
     estimated scf accuracy    <       0.84714124 Ry

     iteration #  6     ecut=    40.00 Ry     beta=0.60
     Davidson diagonalization with overlap
     ethr =  8.84E-04,  avg # of iterations =  1.0

     total cpu time spent up to now is      864.6 secs

     total energy              =    -469.13274517 Ry
     Harris-Foulkes estimate   =    -469.17809441 Ry
     estimated scf accuracy    <       0.72151629 Ry

     iteration #  7     ecut=    40.00 Ry     beta=0.60
     Davidson diagonalization with overlap
     ethr =  8.84E-04,  avg # of iterations =  1.0

     total cpu time spent up to now is      878.5 secs

     total energy              =    -469.12705981 Ry
     Harris-Foulkes estimate   =    -469.14429097 Ry
     estimated scf accuracy    <       0.16105621 Ry

     iteration #  8     ecut=    40.00 Ry     beta=0.60
     Davidson diagonalization with overlap
     ethr =  3.22E-04,  avg # of iterations =  1.4

     total cpu time spent up to now is      892.9 secs

     total energy              =    -469.12114379 Ry
     Harris-Foulkes estimate   =    -469.12968443 Ry
     estimated scf accuracy    <       0.10622387 Ry

     iteration #  9     ecut=    40.00 Ry     beta=0.60
     Davidson diagonalization with overlap
     ethr =  2.12E-04,  avg # of iterations =  1.5

     total cpu time spent up to now is      907.4 secs

     total energy              =    -469.11941535 Ry
     Harris-Foulkes estimate   =    -469.12303895 Ry
     estimated scf accuracy    <       0.05531045 Ry

     iteration # 10     ecut=    40.00 Ry     beta=0.60
     Davidson diagonalization with overlap
     ethr =  1.11E-04,  avg # of iterations =  2.3

     total cpu time spent up to now is      922.8 secs

     total energy              =    -469.10978577 Ry
     Harris-Foulkes estimate   =    -469.12047822 Ry
     estimated scf accuracy    <       0.03307484 Ry

     iteration # 11     ecut=    40.00 Ry     beta=0.60
     Davidson diagonalization with overlap
     ethr =  6.61E-05,  avg # of iterations =  4.6

     total cpu time spent up to now is      944.7 secs

     total energy              =    -469.11610994 Ry
     Harris-Foulkes estimate   =    -469.11623071 Ry
     estimated scf accuracy    <       0.00108358 Ry

     iteration # 12     ecut=    40.00 Ry     beta=0.60
     Davidson diagonalization with overlap
     ethr =  2.17E-06,  avg # of iterations =  6.5

     total cpu time spent up to now is      970.9 secs

     total energy              =    -469.11627542 Ry
     Harris-Foulkes estimate   =    -469.11630917 Ry
     estimated scf accuracy    <       0.00018914 Ry

     iteration # 13     ecut=    40.00 Ry     beta=0.60
     Davidson diagonalization with overlap
     ethr =  3.78E-07,  avg # of iterations =  2.6

     total cpu time spent up to now is      987.5 secs

     total energy              =    -469.11629359 Ry
     Harris-Foulkes estimate   =    -469.11629587 Ry
     estimated scf accuracy    <       0.00000866 Ry

     iteration # 14     ecut=    40.00 Ry     beta=0.60
     Davidson diagonalization with overlap
     ethr =  1.73E-08,  avg # of iterations =  4.5

     total cpu time spent up to now is     1011.8 secs

     total energy              =    -469.11629711 Ry
     Harris-Foulkes estimate   =    -469.11629753 Ry
     estimated scf accuracy    <       0.00000568 Ry

     iteration # 15     ecut=    40.00 Ry     beta=0.60
     Davidson diagonalization with overlap
     ethr =  1.14E-08,  avg # of iterations =  1.1

     total cpu time spent up to now is     1025.8 secs

     total energy              =    -469.11629719 Ry
     Harris-Foulkes estimate   =    -469.11629732 Ry
     estimated scf accuracy    <       0.00000069 Ry

     iteration # 16     ecut=    40.00 Ry     beta=0.60
     Davidson diagonalization with overlap
     ethr =  1.38E-09,  avg # of iterations =  4.3

     total cpu time spent up to now is     1045.4 secs

     total energy              =    -469.11629721 Ry
     Harris-Foulkes estimate   =    -469.11629735 Ry
     estimated scf accuracy    <       0.00000223 Ry

     iteration # 17     ecut=    40.00 Ry     beta=0.60
     Davidson diagonalization with overlap
     ethr =  1.38E-09,  avg # of iterations =  1.3

     total cpu time spent up to now is     1059.6 secs

     total energy              =    -469.11629723 Ry
     Harris-Foulkes estimate   =    -469.11629728 Ry
     estimated scf accuracy    <       0.00000035 Ry

     iteration # 18     ecut=    40.00 Ry     beta=0.60
     Davidson diagonalization with overlap
     ethr =  7.00E-10,  avg # of iterations =  2.5

     total cpu time spent up to now is     1075.4 secs

     total energy              =    -469.11629725 Ry
     Harris-Foulkes estimate   =    -469.11629725 Ry
     estimated scf accuracy    <       0.00000004 Ry

     iteration # 19     ecut=    40.00 Ry     beta=0.60
     Davidson diagonalization with overlap
     ethr =  7.85E-11,  avg # of iterations =  4.2

     total cpu time spent up to now is     1095.0 secs

     total energy              =    -469.11629726 Ry
     Harris-Foulkes estimate   =    -469.11629726 Ry
     estimated scf accuracy    <          4.5E-09 Ry

     iteration # 20     ecut=    40.00 Ry     beta=0.60
     Davidson diagonalization with overlap
     ethr =  9.01E-12,  avg # of iterations =  3.6

     total cpu time spent up to now is     1113.9 secs

     total energy              =    -469.11629726 Ry
     Harris-Foulkes estimate   =    -469.11629726 Ry
     estimated scf accuracy    <          3.5E-09 Ry

     iteration # 21     ecut=    40.00 Ry     beta=0.60
     Davidson diagonalization with overlap
     ethr =  7.05E-12,  avg # of iterations =  1.0

     total cpu time spent up to now is     1127.9 secs

     total energy              =    -469.11629726 Ry
     Harris-Foulkes estimate   =    -469.11629726 Ry
     estimated scf accuracy    <          1.2E-10 Ry

     iteration # 22     ecut=    40.00 Ry     beta=0.60
     Davidson diagonalization with overlap
     ethr =  2.46E-13,  avg # of iterations =  5.0

     total cpu time spent up to now is     1151.8 secs

     End of self-consistent calculation

     Number of k-points >= 100: set verbosity='high' to print the bands.

     the Fermi energy is    14.8767 ev

!    total energy              =    -469.11629726 Ry
     Harris-Foulkes estimate   =    -469.11629726 Ry
     estimated scf accuracy    <          6.2E-11 Ry

     The total energy is the sum of the following terms:

     one-electron contribution =    -126.38186175 Ry
     hartree contribution      =      82.26215276 Ry
     xc contribution           =     -65.71800234 Ry
     ewald contribution        =    -359.27583102 Ry
     smearing contrib. (-TS)   =      -0.00275491 Ry

     convergence has been achieved in  22 iterations

     Forces acting on atoms (Ry/au):

     atom    1 type  2   force =     0.00000000    0.00000000   -0.01090149
     atom    2 type  2   force =     0.00000000    0.00000000    0.01090112
     atom    3 type  1   force =     0.00000000   -0.00000000    0.01882661
     atom    4 type  1   force =    -0.00000000    0.00000000   -0.01882623

     Total force =     0.030766     Total SCF correction =     0.000036


     entering subroutine stress ...

          total   stress  (Ry/bohr**3)                   (kbar)     P=  -54.39
  -0.00044762   0.00000000   0.00000000        -65.85      0.00      0.00
   0.00000000  -0.00044762   0.00000000          0.00    -65.85      0.00
   0.00000000  -0.00000000  -0.00021390          0.00     -0.00    -31.47


     number of scf cycles    =   2
     number of bfgs steps    =   1

     enthalpy old            =    -469.0954659966 Ry
     enthalpy new            =    -469.1162972568 Ry

     CASE: enthalpy_new < enthalpy_old

     new trust radius        =       0.0978648085 bohr
     new conv_thr            =            1.0E-10 Ry

     new unit-cell volume =    479.60340 a.u.^3 (    71.06989 Ang^3 )

CELL_PARAMETERS (alat=  1.88972599)
  -1.456110613  -2.522057752   0.000000000
   2.912221225   0.000000000   0.000000000
   0.000000000   0.000000000   9.676233792

ATOMIC_POSITIONS (angstrom)
Ti       1.456110613  -2.522057752   4.824879398
Ti       0.000001457  -1.681372676   2.432295244
Nb       1.456110613  -2.522057752   9.704072074
Nb       0.000001457  -1.681372676   7.229337765


     NEW-OLD atomic charge density approx. for the potential
     extrapolated charge   47.30463, renormalised to   50.00000

     total cpu time spent up to now is     1164.2 secs

     per-process dynamical memory:   146.8 Mb

     Self-consistent Calculation

     iteration #  1     ecut=    40.00 Ry     beta=0.60
     Davidson diagonalization with overlap
     c_bands:  1 eigenvalues not converged
     c_bands:  1 eigenvalues not converged
     c_bands:  1 eigenvalues not converged
     c_bands:  1 eigenvalues not converged
     c_bands:  1 eigenvalues not converged
     c_bands:  1 eigenvalues not converged
     ethr =  1.00E-06,  avg # of iterations = 12.3

     total cpu time spent up to now is     1225.8 secs

     total energy              =    -467.28919947 Ry
     Harris-Foulkes estimate   =    -473.80855720 Ry
     estimated scf accuracy    <       2.01828927 Ry

     iteration #  2     ecut=    40.00 Ry     beta=0.60
     Davidson diagonalization with overlap
     ethr =  4.04E-03,  avg # of iterations =  6.1

     total cpu time spent up to now is     1261.4 secs

     total energy              =    -465.52588264 Ry
     Harris-Foulkes estimate   =    -478.11006709 Ry
     estimated scf accuracy    <     103.20952685 Ry

     iteration #  3     ecut=    40.00 Ry     beta=0.60
     Davidson diagonalization with overlap
     ethr =  4.04E-03,  avg # of iterations =  5.2

     total cpu time spent up to now is     1292.9 secs

     total energy              =    -469.11236207 Ry
     Harris-Foulkes estimate   =    -469.52793232 Ry
     estimated scf accuracy    <       1.39578728 Ry

     iteration #  4     ecut=    40.00 Ry     beta=0.60
     Davidson diagonalization with overlap
     ethr =  2.79E-03,  avg # of iterations =  1.1

     total cpu time spent up to now is     1306.9 secs

     total energy              =    -469.09531353 Ry
     Harris-Foulkes estimate   =    -469.17600563 Ry
     estimated scf accuracy    <       0.36617520 Ry

     iteration #  5     ecut=    40.00 Ry     beta=0.60
     Davidson diagonalization with overlap
     ethr =  7.32E-04,  avg # of iterations =  3.2

     total cpu time spent up to now is     1324.9 secs

     total energy              =    -469.14200635 Ry
     Harris-Foulkes estimate   =    -469.14782009 Ry
     estimated scf accuracy    <       0.09853300 Ry

     iteration #  6     ecut=    40.00 Ry     beta=0.60
     Davidson diagonalization with overlap
     ethr =  1.97E-04,  avg # of iterations =  3.7

     total cpu time spent up to now is     1341.6 secs

     total energy              =    -469.14209761 Ry
     Harris-Foulkes estimate   =    -469.14567682 Ry
     estimated scf accuracy    <       0.10562545 Ry

     iteration #  7     ecut=    40.00 Ry     beta=0.60
     Davidson diagonalization with overlap
     ethr =  1.97E-04,  avg # of iterations =  1.1

     total cpu time spent up to now is     1355.6 secs

     total energy              =    -469.12572227 Ry
     Harris-Foulkes estimate   =    -469.14364757 Ry
     estimated scf accuracy    <       0.06720144 Ry

     iteration #  8     ecut=    40.00 Ry     beta=0.60
     Davidson diagonalization with overlap
     ethr =  1.34E-04,  avg # of iterations =  1.2

     total cpu time spent up to now is     1369.6 secs

     total energy              =    -469.12392125 Ry
     Harris-Foulkes estimate   =    -469.12792144 Ry
     estimated scf accuracy    <       0.02484036 Ry

     iteration #  9     ecut=    40.00 Ry     beta=0.60
     Davidson diagonalization with overlap
     ethr =  4.97E-05,  avg # of iterations =  3.7

     total cpu time spent up to now is     1387.4 secs

     total energy              =    -469.12303546 Ry
     Harris-Foulkes estimate   =    -469.12553220 Ry
     estimated scf accuracy    <       0.01023976 Ry

     iteration # 10     ecut=    40.00 Ry     beta=0.60
     Davidson diagonalization with overlap
     ethr =  2.05E-05,  avg # of iterations =  3.9

     total cpu time spent up to now is     1404.6 secs

     total energy              =    -469.12109410 Ry
     Harris-Foulkes estimate   =    -469.12348081 Ry
     estimated scf accuracy    <       0.00487058 Ry

     iteration # 11     ecut=    40.00 Ry     beta=0.60
     Davidson diagonalization with overlap
     ethr =  9.74E-06,  avg # of iterations =  4.4

     total cpu time spent up to now is     1427.1 secs

     total energy              =    -469.12238068 Ry
     Harris-Foulkes estimate   =    -469.12239275 Ry
     estimated scf accuracy    <       0.00002174 Ry

     iteration # 12     ecut=    40.00 Ry     beta=0.60
     Davidson diagonalization with overlap
     c_bands:  1 eigenvalues not converged
     c_bands:  2 eigenvalues not converged
     c_bands:  1 eigenvalues not converged
     c_bands:  1 eigenvalues not converged
     ethr =  4.35E-08,  avg # of iterations =  5.8

     total cpu time spent up to now is     1460.5 secs

     total energy              =    -469.12241834 Ry
     Harris-Foulkes estimate   =    -469.12242501 Ry
     estimated scf accuracy    <       0.00002766 Ry

     iteration # 13     ecut=    40.00 Ry     beta=0.60
     Davidson diagonalization with overlap
     ethr =  4.35E-08,  avg # of iterations =  3.1

     total cpu time spent up to now is     1477.4 secs

     total energy              =    -469.12241931 Ry
     Harris-Foulkes estimate   =    -469.12242012 Ry
     estimated scf accuracy    <       0.00000189 Ry

     iteration # 14     ecut=    40.00 Ry     beta=0.60
     Davidson diagonalization with overlap
     ethr =  3.79E-09,  avg # of iterations =  4.6

     total cpu time spent up to now is     1500.9 secs

     total energy              =    -469.12242005 Ry
     Harris-Foulkes estimate   =    -469.12242014 Ry
     estimated scf accuracy    <       0.00000023 Ry

     iteration # 15     ecut=    40.00 Ry     beta=0.60
     Davidson diagonalization with overlap
     ethr =  4.58E-10,  avg # of iterations =  3.2

     total cpu time spent up to now is     1520.4 secs

     total energy              =    -469.12242009 Ry
     Harris-Foulkes estimate   =    -469.12242012 Ry
     estimated scf accuracy    <       0.00000013 Ry

     iteration # 16     ecut=    40.00 Ry     beta=0.60
     Davidson diagonalization with overlap
     ethr =  2.51E-10,  avg # of iterations =  2.4

     total cpu time spent up to now is     1536.5 secs

     total energy              =    -469.12242011 Ry
     Harris-Foulkes estimate   =    -469.12242011 Ry
     estimated scf accuracy    <       0.00000004 Ry

     iteration # 17     ecut=    40.00 Ry     beta=0.60
     Davidson diagonalization with overlap
     ethr =  7.67E-11,  avg # of iterations =  2.1

     total cpu time spent up to now is     1551.6 secs

     total energy              =    -469.12242010 Ry
     Harris-Foulkes estimate   =    -469.12242011 Ry
     estimated scf accuracy    <       0.00000002 Ry

     iteration # 18     ecut=    40.00 Ry     beta=0.60
     Davidson diagonalization with overlap
     ethr =  3.47E-11,  avg # of iterations =  3.1

     total cpu time spent up to now is     1569.1 secs

     total energy              =    -469.12242011 Ry
     Harris-Foulkes estimate   =    -469.12242011 Ry
     estimated scf accuracy    <          2.7E-10 Ry

     iteration # 19     ecut=    40.00 Ry     beta=0.60
     Davidson diagonalization with overlap
     ethr =  5.50E-13,  avg # of iterations =  5.2

     total cpu time spent up to now is     1596.1 secs

     End of self-consistent calculation

     Number of k-points >= 100: set verbosity='high' to print the bands.

     the Fermi energy is    15.8455 ev

!    total energy              =    -469.12242011 Ry
     Harris-Foulkes estimate   =    -469.12242011 Ry
     estimated scf accuracy    <          5.3E-11 Ry

     The total energy is the sum of the following terms:

     one-electron contribution =    -116.38586807 Ry
     hartree contribution      =      79.26575679 Ry
     xc contribution           =     -65.91821220 Ry
     ewald contribution        =    -366.08192430 Ry
     smearing contrib. (-TS)   =      -0.00217233 Ry

     convergence has been achieved in  19 iterations

     Forces acting on atoms (Ry/au):

     atom    1 type  2   force =     0.00000000   -0.00000000   -0.01629272
     atom    2 type  2   force =    -0.00000000    0.00000000    0.01629226
     atom    3 type  1   force =    -0.00000000    0.00000000    0.01149645
     atom    4 type  1   force =     0.00000000   -0.00000000   -0.01149599

     Total force =     0.028200     Total SCF correction =     0.000037


     entering subroutine stress ...

          total   stress  (Ry/bohr**3)                   (kbar)     P=   16.56
   0.00005440  -0.00000000  -0.00000000          8.00     -0.00     -0.00
  -0.00000000   0.00005440   0.00000000         -0.00      8.00      0.00
  -0.00000000   0.00000000   0.00022893         -0.00      0.00     33.68


     number of scf cycles    =   3
     number of bfgs steps    =   2

     enthalpy old            =    -469.1162972568 Ry
     enthalpy new            =    -469.1224201077 Ry

     CASE: enthalpy_new < enthalpy_old

     new trust radius        =       0.0182957283 bohr
     new conv_thr            =            1.0E-10 Ry

     new unit-cell volume =    481.63020 a.u.^3 (    71.37023 Ang^3 )

CELL_PARAMETERS (alat=  1.88972599)
  -1.456146033  -2.522119101   0.000000000
   2.912292065  -0.000000000  -0.000000000
   0.000000000   0.000000000   9.716652734

ATOMIC_POSITIONS (angstrom)
Ti       1.456146033  -2.522119101   4.837181556
Ti       0.000001457  -1.681413575   2.450307057
Nb       1.456146033  -2.522119101   9.750567863
Nb       0.000001457  -1.681413575   7.253575358


     NEW-OLD atomic charge density approx. for the potential
     extrapolated charge   50.20197, renormalised to   50.00000

     total cpu time spent up to now is     1608.5 secs

     per-process dynamical memory:   146.8 Mb

     Self-consistent Calculation

     iteration #  1     ecut=    40.00 Ry     beta=0.60
     Davidson diagonalization with overlap
     c_bands:  1 eigenvalues not converged
     c_bands:  1 eigenvalues not converged
     c_bands:  1 eigenvalues not converged
     c_bands:  1 eigenvalues not converged
     c_bands:  1 eigenvalues not converged
     c_bands:  1 eigenvalues not converged
     ethr =  1.00E-06,  avg # of iterations =  8.3

     total cpu time spent up to now is     1650.6 secs

     total energy              =    -469.06373224 Ry
     Harris-Foulkes estimate   =    -468.78904998 Ry
     estimated scf accuracy    <       0.07462246 Ry

     iteration #  2     ecut=    40.00 Ry     beta=0.60
     Davidson diagonalization with overlap
     ethr =  1.49E-04,  avg # of iterations =  6.5

     total cpu time spent up to now is     1683.6 secs

     total energy              =    -468.42522971 Ry
     Harris-Foulkes estimate   =    -469.86072439 Ry
     estimated scf accuracy    <      23.51701407 Ry

     iteration #  3     ecut=    40.00 Ry     beta=0.60
     Davidson diagonalization with overlap
     ethr =  1.49E-04,  avg # of iterations =  6.1

     total cpu time spent up to now is     1716.1 secs

     total energy              =    -469.12306039 Ry
     Harris-Foulkes estimate   =    -469.12506921 Ry
     estimated scf accuracy    <       0.01682420 Ry

     iteration #  4     ecut=    40.00 Ry     beta=0.60
     Davidson diagonalization with overlap
     ethr =  3.36E-05,  avg # of iterations =  1.4

     total cpu time spent up to now is     1730.4 secs

     total energy              =    -469.12334120 Ry
     Harris-Foulkes estimate   =    -469.12348974 Ry
     estimated scf accuracy    <       0.00300188 Ry

     iteration #  5     ecut=    40.00 Ry     beta=0.60
     Davidson diagonalization with overlap
     ethr =  6.00E-06,  avg # of iterations =  3.9

     total cpu time spent up to now is     1748.7 secs

     total energy              =    -469.12351059 Ry
     Harris-Foulkes estimate   =    -469.12357911 Ry
     estimated scf accuracy    <       0.00118305 Ry

     iteration #  6     ecut=    40.00 Ry     beta=0.60
     Davidson diagonalization with overlap
     c_bands:  1 eigenvalues not converged
     ethr =  2.37E-06,  avg # of iterations =  3.5

     total cpu time spent up to now is     1765.1 secs

     total energy              =    -469.12357611 Ry
     Harris-Foulkes estimate   =    -469.12355335 Ry
     estimated scf accuracy    <       0.00063244 Ry

     iteration #  7     ecut=    40.00 Ry     beta=0.60
     Davidson diagonalization with overlap
     ethr =  1.26E-06,  avg # of iterations =  1.1

     total cpu time spent up to now is     1779.1 secs

     total energy              =    -469.12357282 Ry
     Harris-Foulkes estimate   =    -469.12358943 Ry
     estimated scf accuracy    <       0.00079597 Ry

     iteration #  8     ecut=    40.00 Ry     beta=0.60
     Davidson diagonalization with overlap
     ethr =  1.26E-06,  avg # of iterations =  1.0

     total cpu time spent up to now is     1793.0 secs

     total energy              =    -469.12351884 Ry
     Harris-Foulkes estimate   =    -469.12357942 Ry
     estimated scf accuracy    <       0.00075372 Ry

     iteration #  9     ecut=    40.00 Ry     beta=0.60
     Davidson diagonalization with overlap
     ethr =  1.26E-06,  avg # of iterations =  1.0

     total cpu time spent up to now is     1806.8 secs

     total energy              =    -469.12350000 Ry
     Harris-Foulkes estimate   =    -469.12353025 Ry
     estimated scf accuracy    <       0.00047574 Ry

     iteration # 10     ecut=    40.00 Ry     beta=0.60
     Davidson diagonalization with overlap
     ethr =  9.51E-07,  avg # of iterations =  1.0

     total cpu time spent up to now is     1820.7 secs

     total energy              =    -469.12347478 Ry
     Harris-Foulkes estimate   =    -469.12350646 Ry
     estimated scf accuracy    <       0.00023964 Ry

     iteration # 11     ecut=    40.00 Ry     beta=0.60
     Davidson diagonalization with overlap
     ethr =  4.79E-07,  avg # of iterations =  2.8

     total cpu time spent up to now is     1836.7 secs

     total energy              =    -469.12348290 Ry
     Harris-Foulkes estimate   =    -469.12348601 Ry
     estimated scf accuracy    <       0.00003055 Ry

     iteration # 12     ecut=    40.00 Ry     beta=0.60
     Davidson diagonalization with overlap
     ethr =  6.11E-08,  avg # of iterations =  4.5

     total cpu time spent up to now is     1857.3 secs

     total energy              =    -469.12348942 Ry
     Harris-Foulkes estimate   =    -469.12348930 Ry
     estimated scf accuracy    <       0.00000177 Ry

     iteration # 13     ecut=    40.00 Ry     beta=0.60
     Davidson diagonalization with overlap
     ethr =  3.54E-09,  avg # of iterations =  3.3

     total cpu time spent up to now is     1874.7 secs

     total energy              =    -469.12348900 Ry
     Harris-Foulkes estimate   =    -469.12348963 Ry
     estimated scf accuracy    <       0.00000257 Ry

     iteration # 14     ecut=    40.00 Ry     beta=0.60
     Davidson diagonalization with overlap
     ethr =  3.54E-09,  avg # of iterations =  3.0

     total cpu time spent up to now is     1892.1 secs

     total energy              =    -469.12348924 Ry
     Harris-Foulkes estimate   =    -469.12348928 Ry
     estimated scf accuracy    <       0.00000044 Ry

     iteration # 15     ecut=    40.00 Ry     beta=0.60
     Davidson diagonalization with overlap
     ethr =  8.84E-10,  avg # of iterations =  1.6

     total cpu time spent up to now is     1906.6 secs

     total energy              =    -469.12348927 Ry
     Harris-Foulkes estimate   =    -469.12348927 Ry
     estimated scf accuracy    <       0.00000002 Ry

     iteration # 16     ecut=    40.00 Ry     beta=0.60
     Davidson diagonalization with overlap
     ethr =  4.66E-11,  avg # of iterations =  4.5

     total cpu time spent up to now is     1929.8 secs

     total energy              =    -469.12348928 Ry
     Harris-Foulkes estimate   =    -469.12348928 Ry
     estimated scf accuracy    <       0.00000003 Ry

     iteration # 17     ecut=    40.00 Ry     beta=0.60
     Davidson diagonalization with overlap
     ethr =  4.66E-11,  avg # of iterations =  1.0

     total cpu time spent up to now is     1943.7 secs

     total energy              =    -469.12348928 Ry
     Harris-Foulkes estimate   =    -469.12348928 Ry
     estimated scf accuracy    <          4.8E-09 Ry

     iteration # 18     ecut=    40.00 Ry     beta=0.60
     Davidson diagonalization with overlap
     ethr =  9.69E-12,  avg # of iterations =  3.2

     total cpu time spent up to now is     1960.7 secs

     total energy              =    -469.12348928 Ry
     Harris-Foulkes estimate   =    -469.12348928 Ry
     estimated scf accuracy    <          4.6E-09 Ry

     iteration # 19     ecut=    40.00 Ry     beta=0.60
     Davidson diagonalization with overlap
     ethr =  9.26E-12,  avg # of iterations =  1.1

     total cpu time spent up to now is     1974.6 secs

     total energy              =    -469.12348928 Ry
     Harris-Foulkes estimate   =    -469.12348928 Ry
     estimated scf accuracy    <          3.3E-09 Ry

     iteration # 20     ecut=    40.00 Ry     beta=0.60
     Davidson diagonalization with overlap
     ethr =  6.61E-12,  avg # of iterations =  1.1

     total cpu time spent up to now is     1988.5 secs

     total energy              =    -469.12348928 Ry
     Harris-Foulkes estimate   =    -469.12348928 Ry
     estimated scf accuracy    <          1.9E-09 Ry

     iteration # 21     ecut=    40.00 Ry     beta=0.60
     Davidson diagonalization with overlap
     ethr =  3.75E-12,  avg # of iterations =  3.8

     total cpu time spent up to now is     2006.6 secs

     total energy              =    -469.12348928 Ry
     Harris-Foulkes estimate   =    -469.12348928 Ry
     estimated scf accuracy    <          5.4E-10 Ry

     iteration # 22     ecut=    40.00 Ry     beta=0.60
     Davidson diagonalization with overlap
     ethr =  1.08E-12,  avg # of iterations =  2.1

     total cpu time spent up to now is     2021.6 secs

     End of self-consistent calculation

     Number of k-points >= 100: set verbosity='high' to print the bands.

     the Fermi energy is    15.7645 ev

!    total energy              =    -469.12348928 Ry
     Harris-Foulkes estimate   =    -469.12348928 Ry
     estimated scf accuracy    <          2.7E-11 Ry

     The total energy is the sum of the following terms:

     one-electron contribution =    -116.99485998 Ry
     hartree contribution      =      79.41299813 Ry
     xc contribution           =     -65.90128132 Ry
     ewald contribution        =    -365.63820042 Ry
     smearing contrib. (-TS)   =      -0.00214569 Ry

     convergence has been achieved in  22 iterations

     Forces acting on atoms (Ry/au):

     atom    1 type  2   force =    -0.00000000    0.00000000   -0.01491791
     atom    2 type  2   force =     0.00000000   -0.00000000    0.01491709
     atom    3 type  1   force =    -0.00000000   -0.00000000    0.00818336
     atom    4 type  1   force =    -0.00000000   -0.00000000   -0.00818254

     Total force =     0.024062     Total SCF correction =     0.000024


     entering subroutine stress ...

          total   stress  (Ry/bohr**3)                   (kbar)     P=    9.27
   0.00001662  -0.00000000  -0.00000000          2.44     -0.00     -0.00
  -0.00000000   0.00001662   0.00000000         -0.00      2.44      0.00
  -0.00000000  -0.00000000   0.00015572         -0.00     -0.00     22.91


     number of scf cycles    =   4
     number of bfgs steps    =   3

     enthalpy old            =    -469.1224201077 Ry
     enthalpy new            =    -469.1234892768 Ry

     CASE: enthalpy_new < enthalpy_old

     new trust radius        =       0.0273871198 bohr
     new conv_thr            =            1.0E-10 Ry

     new unit-cell volume =    482.42802 a.u.^3 (    71.48846 Ang^3 )

CELL_PARAMETERS (alat=  1.88972599)
  -1.453512854  -2.517558303  -0.000000000
   2.907025709  -0.000000000  -0.000000000
   0.000000000   0.000000000   9.768043998

ATOMIC_POSITIONS (angstrom)
Ti       1.453512854  -2.517558303   4.848196062
Ti       0.000001454  -1.678373041   2.477835250
Nb       1.453512854  -2.517558303   9.811709360
Nb       0.000001454  -1.678373041   7.282369322


     NEW-OLD atomic charge density approx. for the potential
     extrapolated charge   50.07937, renormalised to   50.00000

     total cpu time spent up to now is     2034.1 secs

     per-process dynamical memory:   146.9 Mb

     Self-consistent Calculation

     iteration #  1     ecut=    40.00 Ry     beta=0.60
     Davidson diagonalization with overlap
     c_bands:  1 eigenvalues not converged
     c_bands:  1 eigenvalues not converged
     c_bands:  1 eigenvalues not converged
     c_bands:  1 eigenvalues not converged
     c_bands:  1 eigenvalues not converged
     c_bands:  1 eigenvalues not converged
     ethr =  1.00E-06,  avg # of iterations = 10.2

     total cpu time spent up to now is     2082.4 secs

     total energy              =    -469.01818518 Ry
     Harris-Foulkes estimate   =    -468.99647334 Ry
     estimated scf accuracy    <       0.13510848 Ry

     iteration #  2     ecut=    40.00 Ry     beta=0.60
     Davidson diagonalization with overlap
     ethr =  2.70E-04,  avg # of iterations =  6.7

     total cpu time spent up to now is     2116.1 secs

     total energy              =    -468.08457590 Ry
     Harris-Foulkes estimate   =    -470.46806775 Ry
     estimated scf accuracy    <      35.60149952 Ry

     iteration #  3     ecut=    40.00 Ry     beta=0.60
     Davidson diagonalization with overlap
     ethr =  2.70E-04,  avg # of iterations =  6.1

     total cpu time spent up to now is     2149.1 secs

     total energy              =    -469.12449326 Ry
     Harris-Foulkes estimate   =    -469.12484425 Ry
     estimated scf accuracy    <       0.00108710 Ry

     iteration #  4     ecut=    40.00 Ry     beta=0.60
     Davidson diagonalization with overlap
     c_bands:  1 eigenvalues not converged
     ethr =  2.17E-06,  avg # of iterations =  4.3

     total cpu time spent up to now is     2171.2 secs

     total energy              =    -469.12472699 Ry
     Harris-Foulkes estimate   =    -469.12474403 Ry
     estimated scf accuracy    <       0.00013881 Ry

     iteration #  5     ecut=    40.00 Ry     beta=0.60
     Davidson diagonalization with overlap
     ethr =  2.78E-07,  avg # of iterations =  3.2

     total cpu time spent up to now is     2188.0 secs

     total energy              =    -469.12471114 Ry
     Harris-Foulkes estimate   =    -469.12475369 Ry
     estimated scf accuracy    <       0.00049914 Ry

     iteration #  6     ecut=    40.00 Ry     beta=0.60
     Davidson diagonalization with overlap
     ethr =  2.78E-07,  avg # of iterations =  2.9

     total cpu time spent up to now is     2203.9 secs

     total energy              =    -469.12473377 Ry
     Harris-Foulkes estimate   =    -469.12474345 Ry
     estimated scf accuracy    <       0.00013702 Ry

     iteration #  7     ecut=    40.00 Ry     beta=0.60
     Davidson diagonalization with overlap
     ethr =  2.74E-07,  avg # of iterations =  1.4

     total cpu time spent up to now is     2218.1 secs

     total energy              =    -469.12473239 Ry
     Harris-Foulkes estimate   =    -469.12474516 Ry
     estimated scf accuracy    <       0.00007739 Ry

     iteration #  8     ecut=    40.00 Ry     beta=0.60
     Davidson diagonalization with overlap
     ethr =  1.55E-07,  avg # of iterations =  1.2

     total cpu time spent up to now is     2232.2 secs

     total energy              =    -469.12473839 Ry
     Harris-Foulkes estimate   =    -469.12473872 Ry
     estimated scf accuracy    <       0.00000313 Ry

     iteration #  9     ecut=    40.00 Ry     beta=0.60
     Davidson diagonalization with overlap
     ethr =  6.25E-09,  avg # of iterations =  4.5

     total cpu time spent up to now is     2253.6 secs

     total energy              =    -469.12473912 Ry
     Harris-Foulkes estimate   =    -469.12473935 Ry
     estimated scf accuracy    <       0.00000207 Ry

     iteration # 10     ecut=    40.00 Ry     beta=0.60
     Davidson diagonalization with overlap
     ethr =  4.13E-09,  avg # of iterations =  1.0

     total cpu time spent up to now is     2267.5 secs

     total energy              =    -469.12473916 Ry
     Harris-Foulkes estimate   =    -469.12473920 Ry
     estimated scf accuracy    <       0.00000032 Ry

     iteration # 11     ecut=    40.00 Ry     beta=0.60
     Davidson diagonalization with overlap
     ethr =  6.34E-10,  avg # of iterations =  4.0

     total cpu time spent up to now is     2287.4 secs

     total energy              =    -469.12473922 Ry
     Harris-Foulkes estimate   =    -469.12473923 Ry
     estimated scf accuracy    <       0.00000009 Ry

     iteration # 12     ecut=    40.00 Ry     beta=0.60
     Davidson diagonalization with overlap
     ethr =  1.89E-10,  avg # of iterations =  1.1

     total cpu time spent up to now is     2301.3 secs

     total energy              =    -469.12473922 Ry
     Harris-Foulkes estimate   =    -469.12473922 Ry
     estimated scf accuracy    <       0.00000002 Ry

     iteration # 13     ecut=    40.00 Ry     beta=0.60
     Davidson diagonalization with overlap
     ethr =  4.50E-11,  avg # of iterations =  3.8

     total cpu time spent up to now is     2320.8 secs

     total energy              =    -469.12473922 Ry
     Harris-Foulkes estimate   =    -469.12473922 Ry
     estimated scf accuracy    <       0.00000001 Ry

     iteration # 14     ecut=    40.00 Ry     beta=0.60
     Davidson diagonalization with overlap
     ethr =  2.21E-11,  avg # of iterations =  1.0

     total cpu time spent up to now is     2334.7 secs

     total energy              =    -469.12473922 Ry
     Harris-Foulkes estimate   =    -469.12473922 Ry
     estimated scf accuracy    <          3.1E-09 Ry

     iteration # 15     ecut=    40.00 Ry     beta=0.60
     Davidson diagonalization with overlap
     ethr =  6.23E-12,  avg # of iterations =  3.4

     total cpu time spent up to now is     2352.4 secs

     End of self-consistent calculation

     Number of k-points >= 100: set verbosity='high' to print the bands.

     the Fermi energy is    15.7276 ev

!    total energy              =    -469.12473922 Ry
     Harris-Foulkes estimate   =    -469.12473922 Ry
     estimated scf accuracy    <          6.6E-11 Ry

     The total energy is the sum of the following terms:

     one-electron contribution =    -117.15302130 Ry
     hartree contribution      =      79.43149421 Ry
     xc contribution           =     -65.89431566 Ry
     ewald contribution        =    -365.50681460 Ry
     smearing contrib. (-TS)   =      -0.00208187 Ry

     convergence has been achieved in  15 iterations

     Forces acting on atoms (Ry/au):

     atom    1 type  2   force =    -0.00000000    0.00000000   -0.01231464
     atom    2 type  2   force =     0.00000000   -0.00000000    0.01231453
     atom    3 type  1   force =     0.00000000   -0.00000000    0.00368749
     atom    4 type  1   force =    -0.00000000   -0.00000000   -0.00368738

     Total force =     0.018179     Total SCF correction =     0.000020


     entering subroutine stress ...

          total   stress  (Ry/bohr**3)                   (kbar)     P=    5.31
   0.00001010   0.00000000  -0.00000000          1.49      0.00     -0.00
  -0.00000000   0.00001010  -0.00000000         -0.00      1.49     -0.00
  -0.00000000   0.00000000   0.00008815         -0.00      0.00     12.97


     number of scf cycles    =   5
     number of bfgs steps    =   4

     enthalpy old            =    -469.1234892768 Ry
     enthalpy new            =    -469.1247392235 Ry

     CASE: enthalpy_new < enthalpy_old

     new trust radius        =       0.0412979549 bohr
     new conv_thr            =            1.0E-10 Ry

     new unit-cell volume =    483.19290 a.u.^3 (    71.60180 Ang^3 )

CELL_PARAMETERS (alat=  1.88972599)
  -1.449977779  -2.511435374  -0.000000000
   2.899955558  -0.000000000  -0.000000000
   0.000000000   0.000000000   9.831294108

ATOMIC_POSITIONS (angstrom)
Ti       1.449977779  -2.511435374   4.857593692
Ti       0.000001450  -1.674291086   2.515874638
Nb       1.449977779  -2.511435374   9.886671709
Nb       0.000001450  -1.674291086   7.318095231


     NEW-OLD atomic charge density approx. for the potential
     extrapolated charge   50.07597, renormalised to   50.00000

     total cpu time spent up to now is     2364.9 secs

     per-process dynamical memory:   146.9 Mb

     Self-consistent Calculation

     iteration #  1     ecut=    40.00 Ry     beta=0.60
     Davidson diagonalization with overlap
     c_bands:  1 eigenvalues not converged
     c_bands:  1 eigenvalues not converged
     c_bands:  2 eigenvalues not converged
     c_bands:  1 eigenvalues not converged
     c_bands:  1 eigenvalues not converged
     ethr =  1.00E-06,  avg # of iterations = 11.5

     total cpu time spent up to now is     2418.3 secs

     total energy              =    -468.91618314 Ry
     Harris-Foulkes estimate   =    -469.00700800 Ry
     estimated scf accuracy    <       0.26589149 Ry

     iteration #  2     ecut=    40.00 Ry     beta=0.60
     Davidson diagonalization with overlap
     ethr =  5.32E-04,  avg # of iterations =  6.6

     total cpu time spent up to now is     2451.5 secs

     total energy              =    -467.69587646 Ry
     Harris-Foulkes estimate   =    -471.56336032 Ry
     estimated scf accuracy    <      49.22890230 Ry

     iteration #  3     ecut=    40.00 Ry     beta=0.60
     Davidson diagonalization with overlap
     ethr =  5.32E-04,  avg # of iterations =  6.1

     total cpu time spent up to now is     2484.4 secs

     total energy              =    -469.12447630 Ry
     Harris-Foulkes estimate   =    -469.12749794 Ry
     estimated scf accuracy    <       0.03262688 Ry

     iteration #  4     ecut=    40.00 Ry     beta=0.60
     Davidson diagonalization with overlap
     ethr =  6.53E-05,  avg # of iterations =  1.8

     total cpu time spent up to now is     2499.1 secs

     total energy              =    -469.12534836 Ry
     Harris-Foulkes estimate   =    -469.12562539 Ry
     estimated scf accuracy    <       0.00517214 Ry

     iteration #  5     ecut=    40.00 Ry     beta=0.60
     Davidson diagonalization with overlap
     ethr =  1.03E-05,  avg # of iterations =  4.5

     total cpu time spent up to now is     2517.7 secs

     total energy              =    -469.12536761 Ry
     Harris-Foulkes estimate   =    -469.12599432 Ry
     estimated scf accuracy    <       0.01028540 Ry

     iteration #  6     ecut=    40.00 Ry     beta=0.60
     Davidson diagonalization with overlap
     ethr =  1.03E-05,  avg # of iterations =  1.1

     total cpu time spent up to now is     2531.8 secs

     total energy              =    -469.12567699 Ry
     Harris-Foulkes estimate   =    -469.12570242 Ry
     estimated scf accuracy    <       0.00006821 Ry

     iteration #  7     ecut=    40.00 Ry     beta=0.60
     Davidson diagonalization with overlap
     ethr =  1.36E-07,  avg # of iterations =  5.8

     total cpu time spent up to now is     2560.1 secs

     total energy              =    -469.12571539 Ry
     Harris-Foulkes estimate   =    -469.12579562 Ry
     estimated scf accuracy    <       0.00066578 Ry

     iteration #  8     ecut=    40.00 Ry     beta=0.60
     Davidson diagonalization with overlap
     ethr =  1.36E-07,  avg # of iterations =  4.1

     total cpu time spent up to now is     2580.8 secs

     total energy              =    -469.12574930 Ry
     Harris-Foulkes estimate   =    -469.12575764 Ry
     estimated scf accuracy    <       0.00016450 Ry

     iteration #  9     ecut=    40.00 Ry     beta=0.60
     Davidson diagonalization with overlap
     ethr =  1.36E-07,  avg # of iterations =  1.0

     total cpu time spent up to now is     2594.7 secs

     total energy              =    -469.12575062 Ry
     Harris-Foulkes estimate   =    -469.12575238 Ry
     estimated scf accuracy    <       0.00002093 Ry

     iteration # 10     ecut=    40.00 Ry     beta=0.60
     Davidson diagonalization with overlap
     ethr =  4.19E-08,  avg # of iterations =  3.3

     total cpu time spent up to now is     2611.6 secs

     total energy              =    -469.12575209 Ry
     Harris-Foulkes estimate   =    -469.12575215 Ry
     estimated scf accuracy    <       0.00000133 Ry

     iteration # 11     ecut=    40.00 Ry     beta=0.60
     Davidson diagonalization with overlap
     ethr =  2.67E-09,  avg # of iterations =  4.0

     total cpu time spent up to now is     2631.0 secs

     total energy              =    -469.12575227 Ry
     Harris-Foulkes estimate   =    -469.12575230 Ry
     estimated scf accuracy    <       0.00000062 Ry

     iteration # 12     ecut=    40.00 Ry     beta=0.60
     Davidson diagonalization with overlap
     ethr =  1.23E-09,  avg # of iterations =  1.0

     total cpu time spent up to now is     2644.8 secs

     total energy              =    -469.12575228 Ry
     Harris-Foulkes estimate   =    -469.12575229 Ry
     estimated scf accuracy    <       0.00000006 Ry

     iteration # 13     ecut=    40.00 Ry     beta=0.60
     Davidson diagonalization with overlap
     ethr =  1.16E-10,  avg # of iterations =  4.1

     total cpu time spent up to now is     2664.5 secs

     total energy              =    -469.12575229 Ry
     Harris-Foulkes estimate   =    -469.12575229 Ry
     estimated scf accuracy    <       0.00000002 Ry

     iteration # 14     ecut=    40.00 Ry     beta=0.60
     Davidson diagonalization with overlap
     ethr =  4.23E-11,  avg # of iterations =  1.1

     total cpu time spent up to now is     2678.5 secs

     total energy              =    -469.12575229 Ry
     Harris-Foulkes estimate   =    -469.12575229 Ry
     estimated scf accuracy    <          1.4E-09 Ry

     iteration # 15     ecut=    40.00 Ry     beta=0.60
     Davidson diagonalization with overlap
     ethr =  2.86E-12,  avg # of iterations =  4.4

     total cpu time spent up to now is     2701.0 secs

     total energy              =    -469.12575229 Ry
     Harris-Foulkes estimate   =    -469.12575229 Ry
     estimated scf accuracy    <          7.0E-10 Ry

     iteration # 16     ecut=    40.00 Ry     beta=0.60
     Davidson diagonalization with overlap
     ethr =  1.39E-12,  avg # of iterations =  1.0

     total cpu time spent up to now is     2714.9 secs

     total energy              =    -469.12575229 Ry
     Harris-Foulkes estimate   =    -469.12575229 Ry
     estimated scf accuracy    <          1.9E-10 Ry

     iteration # 17     ecut=    40.00 Ry     beta=0.60
     Davidson diagonalization with overlap
     ethr =  3.81E-13,  avg # of iterations =  2.1

     total cpu time spent up to now is     2729.8 secs

     End of self-consistent calculation

     Number of k-points >= 100: set verbosity='high' to print the bands.

     the Fermi energy is    15.6904 ev

!    total energy              =    -469.12575229 Ry
     Harris-Foulkes estimate   =    -469.12575229 Ry
     estimated scf accuracy    <          4.3E-11 Ry

     The total energy is the sum of the following terms:

     one-electron contribution =    -117.47100972 Ry
     hartree contribution      =      79.53329635 Ry
     xc contribution           =     -65.88873031 Ry
     ewald contribution        =    -365.29727380 Ry
     smearing contrib. (-TS)   =      -0.00203481 Ry

     convergence has been achieved in  17 iterations

     Forces acting on atoms (Ry/au):

     atom    1 type  2   force =    -0.00000000   -0.00000000   -0.00734955
     atom    2 type  2   force =     0.00000000   -0.00000000    0.00735034
     atom    3 type  1   force =    -0.00000000    0.00000000   -0.00057866
     atom    4 type  1   force =     0.00000000    0.00000000    0.00057787

     Total force =     0.010427     Total SCF correction =     0.000039


     entering subroutine stress ...

          total   stress  (Ry/bohr**3)                   (kbar)     P=    1.51
   0.00001050   0.00000000  -0.00000000          1.54      0.00     -0.00
   0.00000000   0.00001050   0.00000000          0.00      1.54      0.00
  -0.00000000   0.00000000   0.00000986         -0.00      0.00      1.45


     number of scf cycles    =   6
     number of bfgs steps    =   5

     enthalpy old            =    -469.1247392235 Ry
     enthalpy new            =    -469.1257522913 Ry

     CASE: enthalpy_new < enthalpy_old

     new trust radius        =       0.0343313844 bohr
     new conv_thr            =            1.0E-10 Ry

     new unit-cell volume =    483.84571 a.u.^3 (    71.69854 Ang^3 )

CELL_PARAMETERS (alat=  1.88972599)
  -1.448110109  -2.508200475  -0.000000000
   2.896220219  -0.000000000  -0.000000000
   0.000000000   0.000000000   9.869986614

ATOMIC_POSITIONS (angstrom)
Ti       1.448110109  -2.508200475   4.858472903
Ti       0.000001449  -1.672134486   2.544015120
Nb       1.448110109  -2.508200475   9.932233322
Nb       0.000001449  -1.672134486   7.340245191


     NEW-OLD atomic charge density approx. for the potential
     extrapolated charge   50.06475, renormalised to   50.00000

     total cpu time spent up to now is     2742.3 secs

     per-process dynamical memory:   146.8 Mb

     Self-consistent Calculation

     iteration #  1     ecut=    40.00 Ry     beta=0.60
     Davidson diagonalization with overlap
     c_bands:  1 eigenvalues not converged
     c_bands:  1 eigenvalues not converged
     c_bands:  1 eigenvalues not converged
     c_bands:  1 eigenvalues not converged
     c_bands:  1 eigenvalues not converged
     c_bands:  1 eigenvalues not converged
     c_bands:  1 eigenvalues not converged
     c_bands:  1 eigenvalues not converged
     c_bands:  2 eigenvalues not converged
     c_bands:  1 eigenvalues not converged
     c_bands:  2 eigenvalues not converged
     c_bands:  1 eigenvalues not converged
     c_bands:  1 eigenvalues not converged
     ethr =  1.00E-06,  avg # of iterations = 11.0

     total cpu time spent up to now is     2792.4 secs

     total energy              =    -469.00569856 Ry
     Harris-Foulkes estimate   =    -469.02220671 Ry
     estimated scf accuracy    <       0.15318751 Ry

     iteration #  2     ecut=    40.00 Ry     beta=0.60
     Davidson diagonalization with overlap
     ethr =  3.06E-04,  avg # of iterations =  6.7

     total cpu time spent up to now is     2826.0 secs

     total energy              =    -467.96636208 Ry
     Harris-Foulkes estimate   =    -470.64628307 Ry
     estimated scf accuracy    <      39.83230946 Ry

     iteration #  3     ecut=    40.00 Ry     beta=0.60
     Davidson diagonalization with overlap
     ethr =  3.06E-04,  avg # of iterations =  6.2

     total cpu time spent up to now is     2859.3 secs

     total energy              =    -469.12559482 Ry
     Harris-Foulkes estimate   =    -469.12629660 Ry
     estimated scf accuracy    <       0.00179582 Ry

     iteration #  4     ecut=    40.00 Ry     beta=0.60
     Davidson diagonalization with overlap
     ethr =  3.59E-06,  avg # of iterations =  3.9

     total cpu time spent up to now is     2880.6 secs

     total energy              =    -469.12596752 Ry
     Harris-Foulkes estimate   =    -469.12602082 Ry
     estimated scf accuracy    <       0.00020969 Ry

     iteration #  5     ecut=    40.00 Ry     beta=0.60
     Davidson diagonalization with overlap
     ethr =  4.19E-07,  avg # of iterations =  4.5

     total cpu time spent up to now is     2901.8 secs

     total energy              =    -469.12587416 Ry
     Harris-Foulkes estimate   =    -469.12614677 Ry
     estimated scf accuracy    <       0.00466277 Ry

     iteration #  6     ecut=    40.00 Ry     beta=0.60
     Davidson diagonalization with overlap
     ethr =  4.19E-07,  avg # of iterations =  4.3

     total cpu time spent up to now is     2921.2 secs

     total energy              =    -469.12600567 Ry
     Harris-Foulkes estimate   =    -469.12601792 Ry
     estimated scf accuracy    <       0.00005759 Ry

     iteration #  7     ecut=    40.00 Ry     beta=0.60
     Davidson diagonalization with overlap
     ethr =  1.15E-07,  avg # of iterations =  4.3

     total cpu time spent up to now is     2942.5 secs

     total energy              =    -469.12598751 Ry
     Harris-Foulkes estimate   =    -469.12604500 Ry
     estimated scf accuracy    <       0.00043546 Ry

     iteration #  8     ecut=    40.00 Ry     beta=0.60
     Davidson diagonalization with overlap
     ethr =  1.15E-07,  avg # of iterations =  4.0

     total cpu time spent up to now is     2962.7 secs

     total energy              =    -469.12601475 Ry
     Harris-Foulkes estimate   =    -469.12601653 Ry
     estimated scf accuracy    <       0.00001730 Ry

     iteration #  9     ecut=    40.00 Ry     beta=0.60
     Davidson diagonalization with overlap
     ethr =  3.46E-08,  avg # of iterations =  1.1

     total cpu time spent up to now is     2976.6 secs

     total energy              =    -469.12601521 Ry
     Harris-Foulkes estimate   =    -469.12601543 Ry
     estimated scf accuracy    <       0.00000143 Ry

     iteration # 10     ecut=    40.00 Ry     beta=0.60
     Davidson diagonalization with overlap
     ethr =  2.87E-09,  avg # of iterations =  4.4

     total cpu time spent up to now is     2997.5 secs

     total energy              =    -469.12601558 Ry
     Harris-Foulkes estimate   =    -469.12601563 Ry
     estimated scf accuracy    <       0.00000050 Ry

     iteration # 11     ecut=    40.00 Ry     beta=0.60
     Davidson diagonalization with overlap
     ethr =  9.92E-10,  avg # of iterations =  1.1

     total cpu time spent up to now is     3011.5 secs

     total energy              =    -469.12601558 Ry
     Harris-Foulkes estimate   =    -469.12601560 Ry
     estimated scf accuracy    <       0.00000013 Ry

     iteration # 12     ecut=    40.00 Ry     beta=0.60
     Davidson diagonalization with overlap
     ethr =  2.60E-10,  avg # of iterations =  3.8

     total cpu time spent up to now is     3030.2 secs

     total energy              =    -469.12601559 Ry
     Harris-Foulkes estimate   =    -469.12601560 Ry
     estimated scf accuracy    <       0.00000002 Ry

     iteration # 13     ecut=    40.00 Ry     beta=0.60
     Davidson diagonalization with overlap
     ethr =  3.65E-11,  avg # of iterations =  3.2

     total cpu time spent up to now is     3048.0 secs

     total energy              =    -469.12601560 Ry
     Harris-Foulkes estimate   =    -469.12601560 Ry
     estimated scf accuracy    <          3.5E-10 Ry

     iteration # 14     ecut=    40.00 Ry     beta=0.60
     Davidson diagonalization with overlap
     ethr =  7.05E-13,  avg # of iterations =  5.0

     total cpu time spent up to now is     3078.3 secs

     End of self-consistent calculation

     Number of k-points >= 100: set verbosity='high' to print the bands.

     the Fermi energy is    15.6607 ev

!    total energy              =    -469.12601560 Ry
     Harris-Foulkes estimate   =    -469.12601560 Ry
     estimated scf accuracy    <          9.4E-11 Ry

     The total energy is the sum of the following terms:

     one-electron contribution =    -117.91388925 Ry
     hartree contribution      =      79.70575967 Ry
     xc contribution           =     -65.88476194 Ry
     ewald contribution        =    -365.03108456 Ry
     smearing contrib. (-TS)   =      -0.00203951 Ry

     convergence has been achieved in  14 iterations

     Forces acting on atoms (Ry/au):

     atom    1 type  2   force =     0.00000000    0.00000000   -0.00231739
     atom    2 type  2   force =     0.00000000   -0.00000000    0.00231729
     atom    3 type  1   force =    -0.00000000    0.00000000   -0.00211184
     atom    4 type  1   force =     0.00000000   -0.00000000    0.00211194

     Total force =     0.004434     Total SCF correction =     0.000064


     entering subroutine stress ...

          total   stress  (Ry/bohr**3)                   (kbar)     P=   -0.99
   0.00000834   0.00000000  -0.00000000          1.23      0.00     -0.00
   0.00000000   0.00000834  -0.00000000          0.00      1.23     -0.00
  -0.00000000   0.00000000  -0.00003694         -0.00      0.00     -5.43


     number of scf cycles    =   7
     number of bfgs steps    =   6

     enthalpy old            =    -469.1257522913 Ry
     enthalpy new            =    -469.1260155976 Ry

     CASE: enthalpy_new < enthalpy_old

     new trust radius        =       0.0041461699 bohr
     new conv_thr            =            1.0E-10 Ry

     new unit-cell volume =    483.91908 a.u.^3 (    71.70941 Ang^3 )

CELL_PARAMETERS (alat=  1.88972599)
  -1.448586048  -2.509024824  -0.000000000
   2.897172095  -0.000000000  -0.000000000
   0.000000000   0.000000000   9.864997654

ATOMIC_POSITIONS (angstrom)
Ti       1.448586048  -2.509024824   4.853824152
Ti       0.000001449  -1.672684052   2.544922111
Nb       1.448586048  -2.509024824   9.926428640
Nb       0.000001449  -1.672684052   7.337319233


     NEW-OLD atomic charge density approx. for the potential
     extrapolated charge   50.00728, renormalised to   50.00000

     total cpu time spent up to now is     3090.8 secs

     per-process dynamical memory:   146.9 Mb

     Self-consistent Calculation

     iteration #  1     ecut=    40.00 Ry     beta=0.60
     Davidson diagonalization with overlap
     ethr =  1.00E-06,  avg # of iterations =  4.1

     total cpu time spent up to now is     3119.4 secs

     total energy              =    -469.12519390 Ry
     Harris-Foulkes estimate   =    -469.11384134 Ry
     estimated scf accuracy    <       0.00110209 Ry

     iteration #  2     ecut=    40.00 Ry     beta=0.60
     Davidson diagonalization with overlap
     ethr =  2.20E-06,  avg # of iterations =  6.2

     total cpu time spent up to now is     3152.1 secs

     total energy              =    -469.11583747 Ry
     Harris-Foulkes estimate   =    -469.13654913 Ry
     estimated scf accuracy    <       0.33566373 Ry

     iteration #  3     ecut=    40.00 Ry     beta=0.60
     Davidson diagonalization with overlap
     ethr =  2.20E-06,  avg # of iterations =  6.6

     total cpu time spent up to now is     3185.2 secs

     total energy              =    -469.12603519 Ry
     Harris-Foulkes estimate   =    -469.12606035 Ry
     estimated scf accuracy    <       0.00011258 Ry

     iteration #  4     ecut=    40.00 Ry     beta=0.60
     Davidson diagonalization with overlap
     ethr =  2.25E-07,  avg # of iterations =  2.0

     total cpu time spent up to now is     3200.7 secs

     total energy              =    -469.12604491 Ry
     Harris-Foulkes estimate   =    -469.12604556 Ry
     estimated scf accuracy    <       0.00000778 Ry

     iteration #  5     ecut=    40.00 Ry     beta=0.60
     Davidson diagonalization with overlap
     ethr =  1.56E-08,  avg # of iterations =  3.9

     total cpu time spent up to now is     3221.1 secs

     total energy              =    -469.12604567 Ry
     Harris-Foulkes estimate   =    -469.12604680 Ry
     estimated scf accuracy    <       0.00001670 Ry

     iteration #  6     ecut=    40.00 Ry     beta=0.60
     Davidson diagonalization with overlap
     ethr =  1.56E-08,  avg # of iterations =  1.0

     total cpu time spent up to now is     3235.0 secs

     total energy              =    -469.12604610 Ry
     Harris-Foulkes estimate   =    -469.12604633 Ry
     estimated scf accuracy    <       0.00000150 Ry

     iteration #  7     ecut=    40.00 Ry     beta=0.60
     Davidson diagonalization with overlap
     ethr =  3.01E-09,  avg # of iterations =  3.5

     total cpu time spent up to now is     3253.4 secs

     total energy              =    -469.12604607 Ry
     Harris-Foulkes estimate   =    -469.12604653 Ry
     estimated scf accuracy    <       0.00000316 Ry

     iteration #  8     ecut=    40.00 Ry     beta=0.60
     Davidson diagonalization with overlap
     ethr =  3.01E-09,  avg # of iterations =  3.0

     total cpu time spent up to now is     3269.7 secs

     total energy              =    -469.12604629 Ry
     Harris-Foulkes estimate   =    -469.12604632 Ry
     estimated scf accuracy    <       0.00000021 Ry

     iteration #  9     ecut=    40.00 Ry     beta=0.60
     Davidson diagonalization with overlap
     ethr =  4.19E-10,  avg # of iterations =  3.6

     total cpu time spent up to now is     3288.5 secs

     total energy              =    -469.12604632 Ry
     Harris-Foulkes estimate   =    -469.12604633 Ry
     estimated scf accuracy    <       0.00000005 Ry

     iteration # 10     ecut=    40.00 Ry     beta=0.60
     Davidson diagonalization with overlap
     ethr =  1.05E-10,  avg # of iterations =  1.9

     total cpu time spent up to now is     3303.4 secs

     total energy              =    -469.12604632 Ry
     Harris-Foulkes estimate   =    -469.12604633 Ry
     estimated scf accuracy    <          4.3E-09 Ry

     iteration # 11     ecut=    40.00 Ry     beta=0.60
     Davidson diagonalization with overlap
     ethr =  8.63E-12,  avg # of iterations =  4.5

     total cpu time spent up to now is     3325.2 secs

     total energy              =    -469.12604633 Ry
     Harris-Foulkes estimate   =    -469.12604633 Ry
     estimated scf accuracy    <          3.4E-09 Ry

     iteration # 12     ecut=    40.00 Ry     beta=0.60
     Davidson diagonalization with overlap
     ethr =  6.75E-12,  avg # of iterations =  1.0

     total cpu time spent up to now is     3339.0 secs

     total energy              =    -469.12604633 Ry
[...]
        Nb            13.00    92.90638     Nb( 1.00)
        Ti            12.00    47.86700     Ti( 1.00)

      6 Sym. Ops. (no inversion) found
          (note:  6 additional sym.ops. were found but ignored
           their fractional translations are incommensurate with FFT grid)


   Cartesian axes

     site n.     atom                  positions (alat units)
         1           Ti  tau(   1) = (   1.4497487  -2.5110385   4.8385749  )
         2           Ti  tau(   2) = (   0.0000015  -1.6740265   2.5413490  )
         3           Nb  tau(   3) = (   1.4497487  -2.5110385   9.9000117  )
         4           Nb  tau(   4) = (   0.0000015  -1.6740265   7.3198156  )

     number of k points=   220  Marzari-Vanderbilt smearing, width (Ry)=  0.0200

     Number of k-points >= 100: set verbosity='high' to print them.

     Dense  grid:    65405 G-vectors     FFT dimensions: (  40,  40, 120)

     Smooth grid:    16359 G-vectors     FFT dimensions: (  24,  24,  75)

     Estimated max dynamical RAM per process >      65.13Mb

     Estimated total allocated dynamical RAM >     260.52Mb

     Initial potential from superposition of free atoms

     starting charge   47.99445, renormalised to   50.00000
     Starting wfc are   46 randomized atomic wfcs

     total cpu time spent up to now is     5358.7 secs

     per-process dynamical memory:   131.5 Mb

     Self-consistent Calculation

     iteration #  1     ecut=    40.00 Ry     beta=0.60
     Davidson diagonalization with overlap
     c_bands:  1 eigenvalues not converged
     c_bands:  1 eigenvalues not converged
     c_bands:  1 eigenvalues not converged
     c_bands:  1 eigenvalues not converged
     c_bands:  1 eigenvalues not converged
     c_bands:  1 eigenvalues not converged
     c_bands:  1 eigenvalues not converged
     c_bands:  1 eigenvalues not converged
     c_bands:  1 eigenvalues not converged
     c_bands:  1 eigenvalues not converged
     c_bands:  1 eigenvalues not converged
     c_bands:  1 eigenvalues not converged
     ethr =  1.00E-06,  avg # of iterations = 13.6

     total cpu time spent up to now is     5417.4 secs

     total energy              =    -381.42449437 Ry
     Harris-Foulkes estimate   =    -483.81856435 Ry
     estimated scf accuracy    <     124.16019312 Ry

     iteration #  2     ecut=    40.00 Ry     beta=0.60
     Davidson diagonalization with overlap
     c_bands:  1 eigenvalues not converged
     c_bands:  1 eigenvalues not converged
     c_bands:  1 eigenvalues not converged
     c_bands:  1 eigenvalues not converged
     c_bands:  1 eigenvalues not converged
     c_bands:  1 eigenvalues not converged
     ethr =  1.00E-02,  avg # of iterations = 13.6

     total cpu time spent up to now is     5485.5 secs

     total energy              =    -431.72634288 Ry
     Harris-Foulkes estimate   =    -733.09115730 Ry
     estimated scf accuracy    <    1122.39730106 Ry

     iteration #  3     ecut=    40.00 Ry     beta=0.60
     Davidson diagonalization with overlap
     ethr =  1.00E-02,  avg # of iterations =  7.1

     total cpu time spent up to now is     5529.7 secs

     total energy              =    -472.74644311 Ry
     Harris-Foulkes estimate   =    -483.13752810 Ry
     estimated scf accuracy    <      69.95118191 Ry

     iteration #  4     ecut=    40.00 Ry     beta=0.60
     Davidson diagonalization with overlap
     ethr =  1.00E-02,  avg # of iterations =  2.9

     total cpu time spent up to now is     5547.6 secs

     total energy              =    -470.43423637 Ry
     Harris-Foulkes estimate   =    -473.50515742 Ry
     estimated scf accuracy    <      47.42184130 Ry

     iteration #  5     ecut=    40.00 Ry     beta=0.60
     Davidson diagonalization with overlap
     ethr =  1.00E-02,  avg # of iterations =  2.1

     total cpu time spent up to now is     5561.5 secs

     total energy              =    -470.65640213 Ry
     Harris-Foulkes estimate   =    -470.63109446 Ry
     estimated scf accuracy    <      31.20483027 Ry

     iteration #  6     ecut=    40.00 Ry     beta=0.60
     Davidson diagonalization with overlap
     ethr =  1.00E-02,  avg # of iterations =  1.0

     total cpu time spent up to now is     5574.4 secs

     total energy              =    -471.24590581 Ry
     Harris-Foulkes estimate   =    -470.68150255 Ry
     estimated scf accuracy    <      30.95772098 Ry

     iteration #  7     ecut=    40.00 Ry     beta=0.60
     Davidson diagonalization with overlap
     ethr =  1.00E-02,  avg # of iterations =  1.0

     total cpu time spent up to now is     5587.3 secs

     total energy              =    -471.35360220 Ry
     Harris-Foulkes estimate   =    -471.26408871 Ry
     estimated scf accuracy    <      33.03331713 Ry

     iteration #  8     ecut=    40.00 Ry     beta=0.60
     Davidson diagonalization with overlap
     ethr =  1.00E-02,  avg # of iterations =  1.0

     total cpu time spent up to now is     5600.2 secs

     total energy              =    -464.21751379 Ry
     Harris-Foulkes estimate   =    -471.35754272 Ry
     estimated scf accuracy    <      33.26233407 Ry

     iteration #  9     ecut=    40.00 Ry     beta=0.60
     Davidson diagonalization with overlap
     ethr =  1.00E-02,  avg # of iterations =  5.1

     total cpu time spent up to now is     5629.5 secs

     total energy              =    -467.36846723 Ry
     Harris-Foulkes estimate   =    -473.24302603 Ry
     estimated scf accuracy    <      99.15486082 Ry

     iteration # 10     ecut=    40.00 Ry     beta=0.60
     Davidson diagonalization with overlap
     ethr =  1.00E-02,  avg # of iterations =  4.7

     total cpu time spent up to now is     5648.5 secs

     total energy              =    -469.49999710 Ry
     Harris-Foulkes estimate   =    -469.21843083 Ry
     estimated scf accuracy    <       4.59054835 Ry

     iteration # 11     ecut=    40.00 Ry     beta=0.60
     Davidson diagonalization with overlap
     ethr =  9.18E-03,  avg # of iterations =  1.1

     total cpu time spent up to now is     5661.5 secs

     total energy              =    -470.29550401 Ry
     Harris-Foulkes estimate   =    -469.62648497 Ry
     estimated scf accuracy    <      12.85137587 Ry

     iteration # 12     ecut=    40.00 Ry     beta=0.60
     Davidson diagonalization with overlap
     ethr =  9.18E-03,  avg # of iterations =  1.6

     total cpu time spent up to now is     5675.0 secs

     total energy              =    -469.75379837 Ry
     Harris-Foulkes estimate   =    -470.59876225 Ry
     estimated scf accuracy    <      43.02668043 Ry

     iteration # 13     ecut=    40.00 Ry     beta=0.60
     Davidson diagonalization with overlap
     ethr =  9.18E-03,  avg # of iterations =  1.0

     total cpu time spent up to now is     5687.9 secs

     total energy              =    -467.24301268 Ry
     Harris-Foulkes estimate   =    -469.85812689 Ry
     estimated scf accuracy    <      23.38170126 Ry

     iteration # 14     ecut=    40.00 Ry     beta=0.60
     Davidson diagonalization with overlap
     ethr =  9.18E-03,  avg # of iterations =  5.2

     total cpu time spent up to now is     5709.1 secs

     total energy              =    -469.23903902 Ry
     Harris-Foulkes estimate   =    -469.54102315 Ry
     estimated scf accuracy    <       9.91738658 Ry

     iteration # 15     ecut=    40.00 Ry     beta=0.60
     Davidson diagonalization with overlap
     ethr =  9.18E-03,  avg # of iterations =  1.0

     total cpu time spent up to now is     5722.0 secs

     total energy              =    -469.18033379 Ry
     Harris-Foulkes estimate   =    -469.29572692 Ry
     estimated scf accuracy    <       4.74059202 Ry

     iteration # 16     ecut=    40.00 Ry     beta=0.60
     Davidson diagonalization with overlap
     ethr =  9.18E-03,  avg # of iterations =  1.0

     total cpu time spent up to now is     5734.9 secs

     total energy              =    -469.19079658 Ry
     Harris-Foulkes estimate   =    -469.20664944 Ry
     estimated scf accuracy    <       2.17439724 Ry

     iteration # 17     ecut=    40.00 Ry     beta=0.60
     Davidson diagonalization with overlap
     ethr =  4.35E-03,  avg # of iterations =  1.0

     total cpu time spent up to now is     5747.8 secs

     total energy              =    -469.11804906 Ry
     Harris-Foulkes estimate   =    -469.20074992 Ry
     estimated scf accuracy    <       1.88801432 Ry

     iteration # 18     ecut=    40.00 Ry     beta=0.60
     Davidson diagonalization with overlap
     ethr =  3.78E-03,  avg # of iterations =  1.0

     total cpu time spent up to now is     5760.6 secs

     total energy              =    -469.13500841 Ry
     Harris-Foulkes estimate   =    -469.14413230 Ry
     estimated scf accuracy    <       0.47694255 Ry

     iteration # 19     ecut=    40.00 Ry     beta=0.60
     Davidson diagonalization with overlap
     ethr =  9.54E-04,  avg # of iterations =  1.8

     total cpu time spent up to now is     5774.3 secs

     total energy              =    -469.13029554 Ry
     Harris-Foulkes estimate   =    -469.13915308 Ry
     estimated scf accuracy    <       0.31773146 Ry

     iteration # 20     ecut=    40.00 Ry     beta=0.60
     Davidson diagonalization with overlap
     ethr =  6.35E-04,  avg # of iterations =  2.3

     total cpu time spent up to now is     5788.4 secs

     total energy              =    -469.13296631 Ry
     Harris-Foulkes estimate   =    -469.13470522 Ry
     estimated scf accuracy    <       0.16496063 Ry

     iteration # 21     ecut=    40.00 Ry     beta=0.60
     Davidson diagonalization with overlap
     ethr =  3.30E-04,  avg # of iterations =  2.6

     total cpu time spent up to now is     5802.9 secs

     total energy              =    -469.13048137 Ry
     Harris-Foulkes estimate   =    -469.13441172 Ry
     estimated scf accuracy    <       0.13232829 Ry

     iteration # 22     ecut=    40.00 Ry     beta=0.60
     Davidson diagonalization with overlap
     ethr =  2.65E-04,  avg # of iterations =  1.7

     total cpu time spent up to now is     5816.5 secs

     total energy              =    -469.11783944 Ry
     Harris-Foulkes estimate   =    -469.13591459 Ry
     estimated scf accuracy    <       0.21664714 Ry

     iteration # 23     ecut=    40.00 Ry     beta=0.60
     Davidson diagonalization with overlap
     ethr =  2.65E-04,  avg # of iterations =  1.1

     total cpu time spent up to now is     5829.4 secs

     total energy              =    -469.11951848 Ry
     Harris-Foulkes estimate   =    -469.12401781 Ry
     estimated scf accuracy    <       0.05501791 Ry

     iteration # 24     ecut=    40.00 Ry     beta=0.60
     Davidson diagonalization with overlap
     ethr =  1.10E-04,  avg # of iterations =  4.4

     total cpu time spent up to now is     5846.9 secs

     total energy              =    -469.12327920 Ry
     Harris-Foulkes estimate   =    -469.12349569 Ry
     estimated scf accuracy    <       0.00068863 Ry

     iteration # 25     ecut=    40.00 Ry     beta=0.60
     Davidson diagonalization with overlap
     ethr =  1.38E-06,  avg # of iterations =  7.0

     total cpu time spent up to now is     5877.4 secs

     total energy              =    -469.12371297 Ry
     Harris-Foulkes estimate   =    -469.12375547 Ry
     estimated scf accuracy    <       0.00021421 Ry

     iteration # 26     ecut=    40.00 Ry     beta=0.60
     Davidson diagonalization with overlap
     ethr =  4.28E-07,  avg # of iterations =  3.0

     total cpu time spent up to now is     5893.9 secs

     total energy              =    -469.12369637 Ry
     Harris-Foulkes estimate   =    -469.12376918 Ry
     estimated scf accuracy    <       0.00062833 Ry

     iteration # 27     ecut=    40.00 Ry     beta=0.60
     Davidson diagonalization with overlap
     ethr =  4.28E-07,  avg # of iterations =  2.9

     total cpu time spent up to now is     5909.1 secs

     total energy              =    -469.12373328 Ry
     Harris-Foulkes estimate   =    -469.12374339 Ry
     estimated scf accuracy    <       0.00008610 Ry

     iteration # 28     ecut=    40.00 Ry     beta=0.60
     Davidson diagonalization with overlap
     ethr =  1.72E-07,  avg # of iterations =  1.2

     total cpu time spent up to now is     5922.1 secs

     total energy              =    -469.12373822 Ry
     Harris-Foulkes estimate   =    -469.12373932 Ry
     estimated scf accuracy    <       0.00000922 Ry

     iteration # 29     ecut=    40.00 Ry     beta=0.60
     Davidson diagonalization with overlap
     ethr =  1.84E-08,  avg # of iterations =  3.2

     total cpu time spent up to now is     5938.4 secs

     total energy              =    -469.12373942 Ry
     Harris-Foulkes estimate   =    -469.12373944 Ry
     estimated scf accuracy    <       0.00000029 Ry

     iteration # 30     ecut=    40.00 Ry     beta=0.60
     Davidson diagonalization with overlap
     ethr =  5.75E-10,  avg # of iterations =  4.4

     total cpu time spent up to now is     5959.1 secs

     total energy              =    -469.12373949 Ry
     Harris-Foulkes estimate   =    -469.12373950 Ry
     estimated scf accuracy    <       0.00000007 Ry

     iteration # 31     ecut=    40.00 Ry     beta=0.60
     Davidson diagonalization with overlap
     ethr =  1.35E-10,  avg # of iterations =  3.0

     total cpu time spent up to now is     5975.0 secs

     total energy              =    -469.12373950 Ry
     Harris-Foulkes estimate   =    -469.12373950 Ry
     estimated scf accuracy    <          3.0E-09 Ry

     iteration # 32     ecut=    40.00 Ry     beta=0.60
     Davidson diagonalization with overlap
     ethr =  5.98E-12,  avg # of iterations =  4.5

     total cpu time spent up to now is     5998.1 secs

     total energy              =    -469.12373950 Ry
     Harris-Foulkes estimate   =    -469.12373950 Ry
     estimated scf accuracy    <          8.5E-09 Ry

     iteration # 33     ecut=    40.00 Ry     beta=0.60
     Davidson diagonalization with overlap
     ethr =  5.98E-12,  avg # of iterations =  3.1

     total cpu time spent up to now is     6013.1 secs

     total energy              =    -469.12373950 Ry
     Harris-Foulkes estimate   =    -469.12373950 Ry
     estimated scf accuracy    <          1.7E-09 Ry

     iteration # 34     ecut=    40.00 Ry     beta=0.60
     Davidson diagonalization with overlap
     ethr =  3.39E-12,  avg # of iterations =  1.5

     total cpu time spent up to now is     6026.4 secs

     total energy              =    -469.12373950 Ry
     Harris-Foulkes estimate   =    -469.12373950 Ry
     estimated scf accuracy    <          1.6E-10 Ry

     iteration # 35     ecut=    40.00 Ry     beta=0.60
     Davidson diagonalization with overlap
     ethr =  3.30E-13,  avg # of iterations =  4.2

     total cpu time spent up to now is     6044.6 secs

     total energy              =    -469.12373950 Ry
     Harris-Foulkes estimate   =    -469.12373950 Ry
     estimated scf accuracy    <          3.4E-11 Ry

     iteration # 36     ecut=    40.00 Ry     beta=0.60
     Davidson diagonalization with overlap
     ethr =  1.00E-13,  avg # of iterations =  1.7

     total cpu time spent up to now is     6058.2 secs

     total energy              =    -469.12373950 Ry
     Harris-Foulkes estimate   =    -469.12373950 Ry
     estimated scf accuracy    <          7.7E-12 Ry

     iteration # 37     ecut=    40.00 Ry     beta=0.60
     Davidson diagonalization with overlap
     ethr =  1.00E-13,  avg # of iterations =  1.9

     total cpu time spent up to now is     6072.3 secs

     total energy              =    -469.12373950 Ry
     Harris-Foulkes estimate   =    -469.12373950 Ry
     estimated scf accuracy    <          8.5E-12 Ry

     iteration # 38     ecut=    40.00 Ry     beta=0.60
     Davidson diagonalization with overlap
     ethr =  1.00E-13,  avg # of iterations =  1.0

     total cpu time spent up to now is     6085.1 secs

     End of self-consistent calculation

     Number of k-points >= 100: set verbosity='high' to print the bands.

     the Fermi energy is    15.6770 ev

!    total energy              =    -469.12373950 Ry
     Harris-Foulkes estimate   =    -469.12373950 Ry
     estimated scf accuracy    <          7.9E-13 Ry

     The total energy is the sum of the following terms:

     one-electron contribution =    -117.77828497 Ry
     hartree contribution      =      79.66477794 Ry
     xc contribution           =     -65.88489508 Ry
     ewald contribution        =    -365.12327766 Ry
     smearing contrib. (-TS)   =      -0.00205973 Ry

     convergence has been achieved in  38 iterations

     Forces acting on atoms (Ry/au):

     atom    1 type  2   force =     0.00000000   -0.00000000    0.00010498
     atom    2 type  2   force =     0.00000000    0.00000000   -0.00010525
     atom    3 type  1   force =     0.00000000    0.00000000   -0.00002800
     atom    4 type  1   force =    -0.00000000   -0.00000000    0.00002827

     Total force =     0.000154     Total SCF correction =     0.000003


     entering subroutine stress ...

          total   stress  (Ry/bohr**3)                   (kbar)     P=   -2.82
  -0.00002214  -0.00000000   0.00000000         -3.26     -0.00      0.00
   0.00000000  -0.00002214   0.00000000          0.00     -3.26      0.00
   0.00000000   0.00000000  -0.00001320          0.00      0.00     -1.94


     init_run     :     17.64s CPU     18.29s WALL (       2 calls)
     electrons    :   5679.23s CPU   5881.83s WALL (      16 calls)
     update_pot   :     25.82s CPU     25.99s WALL (      14 calls)
     forces       :     57.91s CPU     59.29s WALL (      16 calls)
     stress       :    101.34s CPU    104.04s WALL (      16 calls)

     Called by init_run:
     wfcinit      :     14.70s CPU     15.19s WALL (       2 calls)
     potinit      :      0.81s CPU      0.82s WALL (       2 calls)

     Called by electrons:
     c_bands      :   4990.91s CPU   5141.67s WALL (     297 calls)
     sum_band     :    623.52s CPU    663.21s WALL (     297 calls)
     v_of_rho     :     15.25s CPU     15.60s WALL (     308 calls)
     newd         :     49.18s CPU     61.42s WALL (     308 calls)
     mix_rho      :      2.14s CPU      2.19s WALL (     297 calls)

     Called by c_bands:
     init_us_2    :     78.73s CPU     81.01s WALL (  138160 calls)
     cegterg      :   4810.89s CPU   4957.51s WALL (   65340 calls)

     Called by sum_band:
     sum_band:bec :      4.90s CPU      5.09s WALL (   65340 calls)
     addusdens    :     45.68s CPU     60.42s WALL (     297 calls)

     Called by *egterg:
     h_psi        :   2496.01s CPU   2608.05s WALL (  275847 calls)
     s_psi        :    350.81s CPU    355.79s WALL (  275847 calls)
     g_psi        :     13.43s CPU     13.57s WALL (  210067 calls)
     cdiaghg      :    688.20s CPU    696.60s WALL (  271227 calls)

     Called by h_psi:
     h_psi:pot    :   2463.56s CPU   2574.90s WALL (  275847 calls)
     h_psi:calbec :    436.74s CPU    457.94s WALL (  275847 calls)
     vloc_psi     :   1685.19s CPU   1767.22s WALL (  275847 calls)
     add_vuspsi   :    340.17s CPU    348.55s WALL (  275847 calls)

     General routines
     calbec       :    621.88s CPU    651.27s WALL (  358787 calls)
     fft          :      8.37s CPU      8.73s WALL (    5298 calls)
     ffts         :      0.16s CPU      0.17s WALL (     605 calls)
     fftw         :   1622.08s CPU   1700.07s WALL (12119844 calls)
     interpolate  :      1.39s CPU      1.45s WALL (     605 calls)

     Parallel routines
     fft_scatter  :    354.39s CPU    373.43s WALL (12125747 calls)

     PWSCF        :     1h38m CPU        1h41m WALL


   This run was terminated on:  14:39:30  28Apr2018            

=------------------------------------------------------------------------------=
   JOB DONE.
=------------------------------------------------------------------------------=
