
     Program PWSCF v.6.0 (svn rev. 13079) starts on 11Mar2018 at 16:22:13 

     This program is part of the open-source Quantum ESPRESSO suite
     for quantum simulation of materials; please cite
         "P. Giannozzi et al., J. Phys.:Condens. Matter 21 395502 (2009);
          URL http://www.quantum-espresso.org", 
     in publications or presentations arising from this work. More details at
     http://www.quantum-espresso.org/quote

     Parallel version (MPI), running on     4 processors
     R & G space division:  proc/nbgrp/npool/nimage =       4
     Waiting for input...
     Reading input from standard input

     Current dimensions of program PWSCF are:
     Max number of different atomic species (ntypx) = 10
     Max number of k-points (npk) =  40000
     Max angular momentum in pseudopotentials (lmaxx) =  3

     Subspace diagonalization in iterative solution of the eigenvalue problem:
     a serial algorithm will be used


     Parallelization info
     --------------------
     sticks:   dense  smooth     PW     G-vecs:    dense   smooth      PW
     Min         565     225     81                20489     5191    1118
     Max         567     226     83                20490     5194    1119
     Sum        2263     901    327                81957    20767    4475



     bravais-lattice index     =            0
     lattice parameter (alat)  =       1.8897  a.u.
     unit-cell volume          =     808.3427 (a.u.)^3
     number of atoms/cell      =            6
     number of atomic types    =            2
     number of electrons       =        76.00
     number of Kohn-Sham states=           46
     kinetic-energy cutoff     =      33.0700  Ry
     charge density cutoff     =     330.7000  Ry
     convergence threshold     =      1.0E-10
     mixing beta               =       0.6000
     number of iterations used =            8  plain     mixing
     Exchange-correlation      = SLA  PW   PBE  PBE ( 1  4  3  4 0 0)
     nstep                     =           50


     celldm(1)=   1.889726  celldm(2)=   0.000000  celldm(3)=   0.000000
     celldm(4)=   0.000000  celldm(5)=   0.000000  celldm(6)=   0.000000

     crystal axes: (cart. coord. in units of alat)
               a(1) = (   6.090008   5.274102   0.000000 )  
               a(2) = (  -7.612510  -2.637051   0.000000 )  
               a(3) = (   0.000000   0.000000   4.972461 )  

     reciprocal axes: (cart. coord. in units 2 pi/alat)
               b(1) = ( -0.109469  0.316010  0.000000 )  
               b(2) = ( -0.218938  0.252808  0.000000 )  
               b(3) = (  0.000000 -0.000000  0.201108 )  


     PseudoPot. # 1 for Nb read from file:
     ./Nb.pbe-nsp-van.UPF
     MD5 check sum: 2636d8d3a061c4aefa0a317108b12435
     Pseudo is Ultrasoft + core correction, Zval = 13.0
     Generated by new atomic code, or converted to UPF format
     Using radial grid of  887 points,  6 beta functions with: 
                l(1) =   0
                l(2) =   0
                l(3) =   1
                l(4) =   1
                l(5) =   2
                l(6) =   2
     Q(r) pseudized with  6 coefficients,  rinner =    1.000   1.000   1.000
                                                       1.000   1.000

     PseudoPot. # 2 for Ti read from file:
     ./Ti.pbe-sp-van_ak.UPF
     MD5 check sum: 8e4df49b7f0d34bbd5052bf3f5ea0213
     Pseudo is Ultrasoft, Zval = 12.0
     Generated by new atomic code, or converted to UPF format
     Using radial grid of  851 points,  6 beta functions with: 
                l(1) =   0
                l(2) =   0
                l(3) =   1
                l(4) =   1
                l(5) =   2
                l(6) =   2
     Q(r) pseudized with  8 coefficients,  rinner =    1.000   1.000   1.000
                                                       1.000   1.000

     atomic species   valence    mass     pseudopotential
        Nb            13.00    92.90600     Nb( 1.00)
        Ti            12.00    47.86700     Ti( 1.00)

      4 Sym. Ops. (no inversion) found



   Cartesian axes

     site n.     atom                  positions (alat units)
         1           Ti  tau(   1) = (  -1.5225021   2.6370512   4.9724614  )
         2           Ti  tau(   2) = (  -1.5225006   0.8790162   2.4862307  )
         3           Nb  tau(   3) = (   1.5225021   2.6370512   4.9724614  )
         4           Nb  tau(   4) = (  -6.0900069  -1.7580350   2.4862307  )
         5           Nb  tau(   5) = (  -3.0450042   0.0000000   4.9724614  )
         6           Nb  tau(   6) = (   3.0450058   3.5160674   2.4862307  )

     number of k points=   147  Marzari-Vanderbilt smearing, width (Ry)=  0.2000

     Number of k-points >= 100: set verbosity='high' to print them.

     Dense  grid:    81957 G-vectors     FFT dimensions: (  90,  90,  60)

     Smooth grid:    20767 G-vectors     FFT dimensions: (  60,  60,  36)

     Estimated max dynamical RAM per process >      89.99Mb

     Estimated total allocated dynamical RAM >     359.95Mb

     Check: negative/imaginary core charge=   -0.000002    0.000000

     Initial potential from superposition of free atoms

     starting charge   73.98898, renormalised to   76.00000
     Starting wfc are   72 randomized atomic wfcs

     total cpu time spent up to now is       18.4 secs

     per-process dynamical memory:    96.4 Mb

     Self-consistent Calculation

     iteration #  1     ecut=    33.07 Ry     beta=0.60
     Davidson diagonalization with overlap
     ethr =  1.00E-02,  avg # of iterations =  3.5

     total cpu time spent up to now is       59.5 secs

     total energy              =    -601.31426639 Ry
     Harris-Foulkes estimate   =    -714.87705092 Ry
     estimated scf accuracy    <     139.13824917 Ry

     iteration #  2     ecut=    33.07 Ry     beta=0.60
     Davidson diagonalization with overlap
     ethr =  1.00E-02,  avg # of iterations = 10.8

     total cpu time spent up to now is      172.3 secs

     total energy              =    -680.39063244 Ry
     Harris-Foulkes estimate   =    -932.88113799 Ry
     estimated scf accuracy    <     826.97701569 Ry

     iteration #  3     ecut=    33.07 Ry     beta=0.60
     Davidson diagonalization with overlap
     ethr =  1.00E-02,  avg # of iterations =  8.0

     total cpu time spent up to now is      255.7 secs

     total energy              =    -711.67783702 Ry
     Harris-Foulkes estimate   =    -726.56887982 Ry
     estimated scf accuracy    <      75.15417276 Ry

     iteration #  4     ecut=    33.07 Ry     beta=0.60
     Davidson diagonalization with overlap
     ethr =  1.00E-02,  avg # of iterations =  4.1

     total cpu time spent up to now is      297.3 secs

     total energy              =    -710.44872985 Ry
     Harris-Foulkes estimate   =    -717.04276333 Ry
     estimated scf accuracy    <      58.32506519 Ry

     iteration #  5     ecut=    33.07 Ry     beta=0.60
     Davidson diagonalization with overlap
     ethr =  1.00E-02,  avg # of iterations =  2.4

     total cpu time spent up to now is      331.0 secs

     total energy              =    -709.23276325 Ry
     Harris-Foulkes estimate   =    -711.14865419 Ry
     estimated scf accuracy    <      33.17050079 Ry

     iteration #  6     ecut=    33.07 Ry     beta=0.60
     Davidson diagonalization with overlap
     ethr =  1.00E-02,  avg # of iterations =  1.0

     total cpu time spent up to now is      360.3 secs

     total energy              =    -706.96031470 Ry
     Harris-Foulkes estimate   =    -709.31043909 Ry
     estimated scf accuracy    <      27.28058023 Ry

     iteration #  7     ecut=    33.07 Ry     beta=0.60
     Davidson diagonalization with overlap
     ethr =  1.00E-02,  avg # of iterations =  2.8

     total cpu time spent up to now is      392.0 secs

     total energy              =    -706.71117965 Ry
     Harris-Foulkes estimate   =    -707.12096992 Ry
     estimated scf accuracy    <      18.70597972 Ry

     iteration #  8     ecut=    33.07 Ry     beta=0.60
     Davidson diagonalization with overlap
     ethr =  1.00E-02,  avg # of iterations =  1.0

     total cpu time spent up to now is      421.2 secs

     total energy              =    -706.18623988 Ry
     Harris-Foulkes estimate   =    -706.75902637 Ry
     estimated scf accuracy    <      16.78949650 Ry

     iteration #  9     ecut=    33.07 Ry     beta=0.60
     Davidson diagonalization with overlap
     ethr =  1.00E-02,  avg # of iterations =  1.1

     total cpu time spent up to now is      450.5 secs

     total energy              =    -706.08366039 Ry
     Harris-Foulkes estimate   =    -706.23106119 Ry
     estimated scf accuracy    <      13.68829694 Ry

     iteration # 10     ecut=    33.07 Ry     beta=0.60
     Davidson diagonalization with overlap
     ethr =  1.00E-02,  avg # of iterations =  1.0

     total cpu time spent up to now is      479.8 secs

     total energy              =    -702.21457110 Ry
     Harris-Foulkes estimate   =    -706.10251765 Ry
     estimated scf accuracy    <      13.18637354 Ry

     iteration # 11     ecut=    33.07 Ry     beta=0.60
     Davidson diagonalization with overlap
     ethr =  1.00E-02,  avg # of iterations =  4.5

     total cpu time spent up to now is      535.3 secs

     total energy              =    -707.27029532 Ry
     Harris-Foulkes estimate   =    -710.51219064 Ry
     estimated scf accuracy    <     119.44487283 Ry

     iteration # 12     ecut=    33.07 Ry     beta=0.60
     Davidson diagonalization with overlap
     ethr =  1.00E-02,  avg # of iterations =  1.0

     total cpu time spent up to now is      564.6 secs

     total energy              =    -705.12356208 Ry
     Harris-Foulkes estimate   =    -707.68923122 Ry
     estimated scf accuracy    <      72.42636275 Ry

     iteration # 13     ecut=    33.07 Ry     beta=0.60
     Davidson diagonalization with overlap
     ethr =  1.00E-02,  avg # of iterations =  2.1

     total cpu time spent up to now is      596.0 secs

     total energy              =    -704.83689132 Ry
     Harris-Foulkes estimate   =    -705.82906546 Ry
     estimated scf accuracy    <      23.43395687 Ry

     iteration # 14     ecut=    33.07 Ry     beta=0.60
     Davidson diagonalization with overlap
     ethr =  1.00E-02,  avg # of iterations =  3.1

     total cpu time spent up to now is      628.2 secs

     total energy              =    -704.59391085 Ry
     Harris-Foulkes estimate   =    -705.17932619 Ry
     estimated scf accuracy    <       5.90627159 Ry

     iteration # 15     ecut=    33.07 Ry     beta=0.60
     Davidson diagonalization with overlap
     ethr =  7.77E-03,  avg # of iterations =  5.4

     total cpu time spent up to now is      667.5 secs

     total energy              =    -705.00431820 Ry
     Harris-Foulkes estimate   =    -705.04560940 Ry
     estimated scf accuracy    <       0.11966417 Ry

     iteration # 16     ecut=    33.07 Ry     beta=0.60
     Davidson diagonalization with overlap
     c_bands:  1 eigenvalues not converged
     ethr =  1.57E-04,  avg # of iterations =  6.8

     total cpu time spent up to now is      736.6 secs

     total energy              =    -704.41385488 Ry
     Harris-Foulkes estimate   =    -705.65623497 Ry
     estimated scf accuracy    <      15.25502687 Ry

     iteration # 17     ecut=    33.07 Ry     beta=0.60
     Davidson diagonalization with overlap
     ethr =  1.57E-04,  avg # of iterations =  7.2

     total cpu time spent up to now is      803.8 secs

     total energy              =    -705.07331086 Ry
     Harris-Foulkes estimate   =    -705.09574904 Ry
     estimated scf accuracy    <       0.14439435 Ry

     iteration # 18     ecut=    33.07 Ry     beta=0.60
     Davidson diagonalization with overlap
     ethr =  1.57E-04,  avg # of iterations =  2.1

     total cpu time spent up to now is      834.9 secs

     total energy              =    -705.07998746 Ry
     Harris-Foulkes estimate   =    -705.07972896 Ry
     estimated scf accuracy    <       0.03565089 Ry

     iteration # 19     ecut=    33.07 Ry     beta=0.60
     Davidson diagonalization with overlap
     ethr =  4.69E-05,  avg # of iterations =  4.2

     total cpu time spent up to now is      869.0 secs

     total energy              =    -705.08025095 Ry
     Harris-Foulkes estimate   =    -705.08166766 Ry
     estimated scf accuracy    <       0.05038543 Ry

     iteration # 20     ecut=    33.07 Ry     beta=0.60
     Davidson diagonalization with overlap
     ethr =  4.69E-05,  avg # of iterations =  1.0

     total cpu time spent up to now is      898.2 secs

     total energy              =    -705.07733086 Ry
     Harris-Foulkes estimate   =    -705.08064790 Ry
     estimated scf accuracy    <       0.03550451 Ry

     iteration # 21     ecut=    33.07 Ry     beta=0.60
     Davidson diagonalization with overlap
     ethr =  4.67E-05,  avg # of iterations =  1.1

     total cpu time spent up to now is      927.6 secs

     total energy              =    -705.07698392 Ry
     Harris-Foulkes estimate   =    -705.07825264 Ry
     estimated scf accuracy    <       0.01898355 Ry

     iteration # 22     ecut=    33.07 Ry     beta=0.60
     Davidson diagonalization with overlap
     ethr =  2.50E-05,  avg # of iterations =  2.8

     total cpu time spent up to now is      959.4 secs

     total energy              =    -705.07715866 Ry
     Harris-Foulkes estimate   =    -705.07768841 Ry
     estimated scf accuracy    <       0.00540975 Ry

     iteration # 23     ecut=    33.07 Ry     beta=0.60
     Davidson diagonalization with overlap
     ethr =  7.12E-06,  avg # of iterations =  6.2

     total cpu time spent up to now is     1004.4 secs

     total energy              =    -705.07776179 Ry
     Harris-Foulkes estimate   =    -705.07785485 Ry
     estimated scf accuracy    <       0.00053059 Ry

     iteration # 24     ecut=    33.07 Ry     beta=0.60
     Davidson diagonalization with overlap
     c_bands:  1 eigenvalues not converged
     c_bands:  1 eigenvalues not converged
     c_bands:  1 eigenvalues not converged
     ethr =  6.98E-07,  avg # of iterations =  6.9

     total cpu time spent up to now is     1046.0 secs

     total energy              =    -705.07778887 Ry
     Harris-Foulkes estimate   =    -705.07781732 Ry
     estimated scf accuracy    <       0.00015324 Ry

     iteration # 25     ecut=    33.07 Ry     beta=0.60
     Davidson diagonalization with overlap
     c_bands:  1 eigenvalues not converged
     ethr =  2.02E-07,  avg # of iterations =  5.0

     total cpu time spent up to now is     1085.3 secs

     total energy              =    -705.07779587 Ry
     Harris-Foulkes estimate   =    -705.07780216 Ry
     estimated scf accuracy    <       0.00005053 Ry

     iteration # 26     ecut=    33.07 Ry     beta=0.60
     Davidson diagonalization with overlap
     c_bands:  1 eigenvalues not converged
     ethr =  6.65E-08,  avg # of iterations =  6.2

     total cpu time spent up to now is     1126.2 secs

     total energy              =    -705.07779863 Ry
     Harris-Foulkes estimate   =    -705.07780051 Ry
     estimated scf accuracy    <       0.00000959 Ry

     iteration # 27     ecut=    33.07 Ry     beta=0.60
     Davidson diagonalization with overlap
     ethr =  1.26E-08,  avg # of iterations =  7.1

     total cpu time spent up to now is     1174.7 secs

     total energy              =    -705.07780003 Ry
     Harris-Foulkes estimate   =    -705.07780051 Ry
     estimated scf accuracy    <       0.00000479 Ry

     iteration # 28     ecut=    33.07 Ry     beta=0.60
     Davidson diagonalization with overlap
     ethr =  6.30E-09,  avg # of iterations =  2.6

     total cpu time spent up to now is     1205.8 secs

     total energy              =    -705.07780010 Ry
     Harris-Foulkes estimate   =    -705.07780021 Ry
     estimated scf accuracy    <       0.00000048 Ry

     iteration # 29     ecut=    33.07 Ry     beta=0.60
     Davidson diagonalization with overlap
     ethr =  6.26E-10,  avg # of iterations =  6.9

     total cpu time spent up to now is     1260.3 secs

     total energy              =    -705.07780021 Ry
     Harris-Foulkes estimate   =    -705.07780034 Ry
     estimated scf accuracy    <       0.00000121 Ry

     iteration # 30     ecut=    33.07 Ry     beta=0.60
     Davidson diagonalization with overlap
     c_bands:  1 eigenvalues not converged
     ethr =  6.26E-10,  avg # of iterations =  7.2

     total cpu time spent up to now is     1302.5 secs

     total energy              =    -705.07780026 Ry
     Harris-Foulkes estimate   =    -705.07780026 Ry
     estimated scf accuracy    <       0.00000004 Ry

     iteration # 31     ecut=    33.07 Ry     beta=0.60
     Davidson diagonalization with overlap
     c_bands:  1 eigenvalues not converged
     ethr =  5.28E-11,  avg # of iterations =  6.7

     total cpu time spent up to now is     1347.3 secs

     total energy              =    -705.07780026 Ry
     Harris-Foulkes estimate   =    -705.07780027 Ry
     estimated scf accuracy    <          7.7E-09 Ry

     iteration # 32     ecut=    33.07 Ry     beta=0.60
     Davidson diagonalization with overlap
     ethr =  1.01E-11,  avg # of iterations =  6.8

     total cpu time spent up to now is     1400.6 secs

     total energy              =    -705.07780026 Ry
     Harris-Foulkes estimate   =    -705.07780027 Ry
     estimated scf accuracy    <       0.00000001 Ry

     iteration # 33     ecut=    33.07 Ry     beta=0.60
     Davidson diagonalization with overlap
     ethr =  1.01E-11,  avg # of iterations =  1.6

     total cpu time spent up to now is     1430.7 secs

     total energy              =    -705.07780026 Ry
     Harris-Foulkes estimate   =    -705.07780027 Ry
     estimated scf accuracy    <          4.4E-09 Ry

     iteration # 34     ecut=    33.07 Ry     beta=0.60
     Davidson diagonalization with overlap
     ethr =  5.75E-12,  avg # of iterations =  6.4

     total cpu time spent up to now is     1473.5 secs

     total energy              =    -705.07780027 Ry
     Harris-Foulkes estimate   =    -705.07780027 Ry
     estimated scf accuracy    <          8.5E-10 Ry

     iteration # 35     ecut=    33.07 Ry     beta=0.60
     Davidson diagonalization with overlap
     c_bands:  1 eigenvalues not converged
     ethr =  1.12E-12,  avg # of iterations =  4.9

     total cpu time spent up to now is     1508.2 secs

     total energy              =    -705.07780027 Ry
     Harris-Foulkes estimate   =    -705.07780027 Ry
     estimated scf accuracy    <          2.5E-10 Ry

     iteration # 36     ecut=    33.07 Ry     beta=0.60
     Davidson diagonalization with overlap
     c_bands:  1 eigenvalues not converged
     ethr =  3.31E-13,  avg # of iterations =  6.8

     total cpu time spent up to now is     1553.3 secs

     End of self-consistent calculation

     Number of k-points >= 100: set verbosity='high' to print the bands.

     the Fermi energy is    14.8743 ev

!    total energy              =    -705.07780027 Ry
     Harris-Foulkes estimate   =    -705.07780027 Ry
     estimated scf accuracy    <          2.6E-11 Ry

     The total energy is the sum of the following terms:

     one-electron contribution =    -178.36048513 Ry
     hartree contribution      =     118.42898777 Ry
     xc contribution           =    -102.26204736 Ry
     ewald contribution        =    -542.38578772 Ry
     smearing contrib. (-TS)   =      -0.49846783 Ry

     convergence has been achieved in  36 iterations

     Forces acting on atoms (Ry/au):

     atom    1 type  2   force =     0.00007136    0.00004120    0.00000000
     atom    2 type  2   force =    -0.00007127   -0.00004115    0.00000000
     atom    3 type  1   force =     0.00173314    0.00100063    0.00000000
     atom    4 type  1   force =     0.00425657    0.00245753    0.00000000
     atom    5 type  1   force =    -0.00425662   -0.00245756    0.00000000
     atom    6 type  1   force =    -0.00173318   -0.00100065    0.00000000

     Total force =     0.007506     Total SCF correction =     0.000017


     entering subroutine stress ...

          total   stress  (Ry/bohr**3)                   (kbar)     P=  -45.54
  -0.00031471   0.00002107   0.00000000        -46.30      3.10      0.00
   0.00002107  -0.00033904   0.00000000          3.10    -49.87      0.00
   0.00000000   0.00000000  -0.00027498          0.00      0.00    -40.45


     BFGS Geometry Optimization

     number of scf cycles    =   1
     number of bfgs steps    =   0

     enthalpy new            =    -705.0778002652 Ry

     new trust radius        =       0.0482901316 bohr
     new conv_thr            =            1.0E-10 Ry

     new unit-cell volume =    789.71847 a.u.^3 (   117.02420 Ang^3 )

CELL_PARAMETERS (alat=  1.88972599)
   6.044870963   5.232606291   0.000000000
  -7.554005140  -2.618709037   0.000000000
   0.000000000   0.000000000   4.938277810

ATOMIC_POSITIONS (angstrom)
Ti      -1.509096703   2.613918890   4.938277810
Ti      -1.510096125   0.870741961   2.469138905
Nb       1.512822465   2.616026687   4.938277810
Nb      -6.040781954  -1.745050905   2.469138905
Nb      -3.023281906  -0.002894575   4.938277810
Nb       3.021989783   3.487343163   2.469138905


     NEW-OLD atomic charge density approx. for the potential

     Check: negative/imaginary core charge=   -0.000002    0.000000
     extrapolated charge   74.25509, renormalised to   76.00000

     total cpu time spent up to now is     1566.1 secs

     per-process dynamical memory:   107.4 Mb

     Self-consistent Calculation

     iteration #  1     ecut=    33.07 Ry     beta=0.60
     Davidson diagonalization with overlap
     c_bands:  1 eigenvalues not converged
     c_bands:  1 eigenvalues not converged
     ethr =  1.00E-06,  avg # of iterations = 13.1

     total cpu time spent up to now is     1667.1 secs

     total energy              =    -704.84655040 Ry
     Harris-Foulkes estimate   =    -707.89865418 Ry
     estimated scf accuracy    <       0.20417992 Ry

     iteration #  2     ecut=    33.07 Ry     beta=0.60
     Davidson diagonalization with overlap
     ethr =  2.69E-04,  avg # of iterations =  6.1

     total cpu time spent up to now is     1734.0 secs

     total energy              =    -704.95149188 Ry
     Harris-Foulkes estimate   =    -705.28392634 Ry
     estimated scf accuracy    <       1.21350890 Ry

     iteration #  3     ecut=    33.07 Ry     beta=0.60
     Davidson diagonalization with overlap
     ethr =  2.69E-04,  avg # of iterations =  6.2

     total cpu time spent up to now is     1788.6 secs

     total energy              =    -705.01075520 Ry
     Harris-Foulkes estimate   =    -705.19681498 Ry
     estimated scf accuracy    <       1.59587693 Ry

     iteration #  4     ecut=    33.07 Ry     beta=0.60
     Davidson diagonalization with overlap
     ethr =  2.69E-04,  avg # of iterations =  6.5

     total cpu time spent up to now is     1839.6 secs

     total energy              =    -705.06912595 Ry
     Harris-Foulkes estimate   =    -705.11886518 Ry
     estimated scf accuracy    <       0.29413748 Ry

     iteration #  5     ecut=    33.07 Ry     beta=0.60
     Davidson diagonalization with overlap
     ethr =  2.69E-04,  avg # of iterations =  5.0

     total cpu time spent up to now is     1878.1 secs

     total energy              =    -705.08833016 Ry
     Harris-Foulkes estimate   =    -705.09610679 Ry
     estimated scf accuracy    <       0.06987920 Ry

     iteration #  6     ecut=    33.07 Ry     beta=0.60
     Davidson diagonalization with overlap
     ethr =  9.19E-05,  avg # of iterations =  1.7

     total cpu time spent up to now is     1908.2 secs

     total energy              =    -705.08377509 Ry
     Harris-Foulkes estimate   =    -705.08966937 Ry
     estimated scf accuracy    <       0.04386117 Ry

     iteration #  7     ecut=    33.07 Ry     beta=0.60
     Davidson diagonalization with overlap
     ethr =  5.77E-05,  avg # of iterations =  2.0

     total cpu time spent up to now is     1938.5 secs

     total energy              =    -705.08252577 Ry
     Harris-Foulkes estimate   =    -705.08469183 Ry
     estimated scf accuracy    <       0.02181548 Ry

     iteration #  8     ecut=    33.07 Ry     beta=0.60
     Davidson diagonalization with overlap
     ethr =  2.87E-05,  avg # of iterations =  3.7

     total cpu time spent up to now is     1971.6 secs

     total energy              =    -705.08107975 Ry
     Harris-Foulkes estimate   =    -705.08310581 Ry
     estimated scf accuracy    <       0.00998401 Ry

     iteration #  9     ecut=    33.07 Ry     beta=0.60
     Davidson diagonalization with overlap
     ethr =  1.31E-05,  avg # of iterations =  5.7

     total cpu time spent up to now is     2013.1 secs

     total energy              =    -705.08198393 Ry
     Harris-Foulkes estimate   =    -705.08203094 Ry
     estimated scf accuracy    <       0.00046762 Ry

     iteration # 10     ecut=    33.07 Ry     beta=0.60
     Davidson diagonalization with overlap
     c_bands:  1 eigenvalues not converged
     ethr =  6.15E-07,  avg # of iterations =  6.2

     total cpu time spent up to now is     2058.9 secs

     total energy              =    -705.08192844 Ry
     Harris-Foulkes estimate   =    -705.08210893 Ry
     estimated scf accuracy    <       0.00026341 Ry

     iteration # 11     ecut=    33.07 Ry     beta=0.60
     Davidson diagonalization with overlap
     ethr =  3.47E-07,  avg # of iterations =  6.8

     total cpu time spent up to now is     2120.0 secs

     total energy              =    -705.08204710 Ry
     Harris-Foulkes estimate   =    -705.08213475 Ry
     estimated scf accuracy    <       0.00098466 Ry

     iteration # 12     ecut=    33.07 Ry     beta=0.60
     Davidson diagonalization with overlap
     ethr =  3.47E-07,  avg # of iterations =  5.5

     total cpu time spent up to now is     2156.4 secs

     total energy              =    -705.08204317 Ry
     Harris-Foulkes estimate   =    -705.08206779 Ry
     estimated scf accuracy    <       0.00023181 Ry

     iteration # 13     ecut=    33.07 Ry     beta=0.60
     Davidson diagonalization with overlap
     ethr =  3.05E-07,  avg # of iterations =  5.0

     total cpu time spent up to now is     2195.5 secs

     total energy              =    -705.08206290 Ry
     Harris-Foulkes estimate   =    -705.08206516 Ry
     estimated scf accuracy    <       0.00001171 Ry

     iteration # 14     ecut=    33.07 Ry     beta=0.60
     Davidson diagonalization with overlap
     ethr =  1.54E-08,  avg # of iterations =  7.1

     total cpu time spent up to now is     2250.6 secs

     total energy              =    -705.08207982 Ry
     Harris-Foulkes estimate   =    -705.08208172 Ry
     estimated scf accuracy    <       0.00004209 Ry

     iteration # 15     ecut=    33.07 Ry     beta=0.60
     Davidson diagonalization with overlap
     ethr =  1.54E-08,  avg # of iterations =  1.1

     total cpu time spent up to now is     2279.9 secs

     total energy              =    -705.08207956 Ry
     Harris-Foulkes estimate   =    -705.08208007 Ry
     estimated scf accuracy    <       0.00002630 Ry

     iteration # 16     ecut=    33.07 Ry     beta=0.60
     Davidson diagonalization with overlap
     ethr =  1.54E-08,  avg # of iterations =  1.9

     total cpu time spent up to now is     2310.2 secs

     total energy              =    -705.08207802 Ry
     Harris-Foulkes estimate   =    -705.08207971 Ry
     estimated scf accuracy    <       0.00001826 Ry

     iteration # 17     ecut=    33.07 Ry     beta=0.60
     Davidson diagonalization with overlap
     ethr =  1.54E-08,  avg # of iterations =  6.9

     total cpu time spent up to now is     2352.2 secs

     total energy              =    -705.08207888 Ry
     Harris-Foulkes estimate   =    -705.08207924 Ry
     estimated scf accuracy    <       0.00000179 Ry

     iteration # 18     ecut=    33.07 Ry     beta=0.60
     Davidson diagonalization with overlap
     ethr =  2.36E-09,  avg # of iterations =  6.9

     total cpu time spent up to now is     2401.0 secs

     total energy              =    -705.08207902 Ry
     Harris-Foulkes estimate   =    -705.08207932 Ry
     estimated scf accuracy    <       0.00000224 Ry

     iteration # 19     ecut=    33.07 Ry     beta=0.60
     Davidson diagonalization with overlap
     c_bands:  1 eigenvalues not converged
     ethr =  2.36E-09,  avg # of iterations =  6.5

     total cpu time spent up to now is     2444.2 secs

     total energy              =    -705.08208620 Ry
     Harris-Foulkes estimate   =    -705.08208633 Ry
     estimated scf accuracy    <       0.00000113 Ry

     iteration # 20     ecut=    33.07 Ry     beta=0.60
     Davidson diagonalization with overlap
     c_bands:  2 eigenvalues not converged
     ethr =  1.48E-09,  avg # of iterations =  1.6

     total cpu time spent up to now is     2474.2 secs

     total energy              =    -705.08208657 Ry
     Harris-Foulkes estimate   =    -705.08208659 Ry
     estimated scf accuracy    <       0.00000021 Ry

     iteration # 21     ecut=    33.07 Ry     beta=0.60
     Davidson diagonalization with overlap
     c_bands:  1 eigenvalues not converged
     ethr =  2.78E-10,  avg # of iterations =  6.6

     total cpu time spent up to now is     2520.5 secs

     total energy              =    -705.08208664 Ry
     Harris-Foulkes estimate   =    -705.08208665 Ry
     estimated scf accuracy    <       0.00000002 Ry

     iteration # 22     ecut=    33.07 Ry     beta=0.60
     Davidson diagonalization with overlap
     c_bands:  1 eigenvalues not converged
     ethr =  2.38E-11,  avg # of iterations =  6.3

     total cpu time spent up to now is     2569.6 secs

     total energy              =    -705.08209027 Ry
     Harris-Foulkes estimate   =    -705.08209027 Ry
     estimated scf accuracy    <       0.00000006 Ry

     iteration # 23     ecut=    33.07 Ry     beta=0.60
     Davidson diagonalization with overlap
     c_bands:  1 eigenvalues not converged
     ethr =  2.38E-11,  avg # of iterations =  1.1

     total cpu time spent up to now is     2598.9 secs

     total energy              =    -705.08209035 Ry
     Harris-Foulkes estimate   =    -705.08209036 Ry
     estimated scf accuracy    <       0.00000004 Ry

     iteration # 24     ecut=    33.07 Ry     beta=0.60
     Davidson diagonalization with overlap
     c_bands:  1 eigenvalues not converged
     ethr =  2.38E-11,  avg # of iterations =  5.7

     total cpu time spent up to now is     2638.2 secs

     total energy              =    -705.08209035 Ry
     Harris-Foulkes estimate   =    -705.08209036 Ry
     estimated scf accuracy    <       0.00000005 Ry

     iteration # 25     ecut=    33.07 Ry     beta=0.60
     Davidson diagonalization with overlap
     ethr =  2.38E-11,  avg # of iterations =  3.0

     total cpu time spent up to now is     2670.0 secs

     total energy              =    -705.08209035 Ry
     Harris-Foulkes estimate   =    -705.08209035 Ry
     estimated scf accuracy    <       0.00000002 Ry

     iteration # 26     ecut=    33.07 Ry     beta=0.60
     Davidson diagonalization with overlap
     ethr =  2.25E-11,  avg # of iterations =  1.8

     total cpu time spent up to now is     2700.2 secs

     total energy              =    -705.08209035 Ry
     Harris-Foulkes estimate   =    -705.08209035 Ry
     estimated scf accuracy    <       0.00000002 Ry

     iteration # 27     ecut=    33.07 Ry     beta=0.60
     Davidson diagonalization with overlap
     ethr =  2.14E-11,  avg # of iterations =  4.6

     total cpu time spent up to now is     2734.7 secs

     total energy              =    -705.08209035 Ry
     Harris-Foulkes estimate   =    -705.08209035 Ry
     estimated scf accuracy    <          2.4E-09 Ry

     iteration # 28     ecut=    33.07 Ry     beta=0.60
     Davidson diagonalization with overlap
     ethr =  3.16E-12,  avg # of iterations =  6.1

     total cpu time spent up to now is     2780.7 secs

     total energy              =    -705.08209035 Ry
     Harris-Foulkes estimate   =    -705.08209035 Ry
     estimated scf accuracy    <          4.4E-10 Ry

     iteration # 29     ecut=    33.07 Ry     beta=0.60
     Davidson diagonalization with overlap
     c_bands:  1 eigenvalues not converged
     ethr =  5.83E-13,  avg # of iterations =  2.9

     total cpu time spent up to now is     2812.7 secs

     total energy              =    -705.08209035 Ry
     Harris-Foulkes estimate   =    -705.08209035 Ry
     estimated scf accuracy    <          3.2E-10 Ry

     iteration # 30     ecut=    33.07 Ry     beta=0.60
     Davidson diagonalization with overlap
     ethr =  4.17E-13,  avg # of iterations =  3.1

     total cpu time spent up to now is     2844.8 secs

     total energy              =    -705.08209035 Ry
     Harris-Foulkes estimate   =    -705.08209035 Ry
     estimated scf accuracy    <          2.5E-10 Ry

     iteration # 31     ecut=    33.07 Ry     beta=0.60
     Davidson diagonalization with overlap
     ethr =  3.29E-13,  avg # of iterations =  4.2

     total cpu time spent up to now is     2878.6 secs

     End of self-consistent calculation

     Number of k-points >= 100: set verbosity='high' to print the bands.

     the Fermi energy is    15.2709 ev

!    total energy              =    -705.08209035 Ry
     Harris-Foulkes estimate   =    -705.08209035 Ry
     estimated scf accuracy    <          8.2E-12 Ry

     The total energy is the sum of the following terms:

     one-electron contribution =    -172.25687256 Ry
     hartree contribution      =     116.62656917 Ry
     xc contribution           =    -102.38489459 Ry
     ewald contribution        =    -546.58689046 Ry
     smearing contrib. (-TS)   =      -0.48000191 Ry

     convergence has been achieved in  31 iterations

     Forces acting on atoms (Ry/au):

     atom    1 type  2   force =    -0.00021185   -0.00012231    0.00000000
     atom    2 type  2   force =     0.00021174    0.00012225    0.00000000
     atom    3 type  1   force =     0.00056590    0.00032672    0.00000000
     atom    4 type  1   force =     0.00223304    0.00128924    0.00000000
     atom    5 type  1   force =    -0.00223267   -0.00128903    0.00000000
     atom    6 type  1   force =    -0.00056616   -0.00032687    0.00000000

     Total force =     0.003777     Total SCF correction =     0.000013


     entering subroutine stress ...

          total   stress  (Ry/bohr**3)                   (kbar)     P=  -20.18
  -0.00014384   0.00001724   0.00000000        -21.16      2.54      0.00
   0.00001724  -0.00016374   0.00000000          2.54    -24.09      0.00
   0.00000000   0.00000000  -0.00010401          0.00      0.00    -15.30


     number of scf cycles    =   2
     number of bfgs steps    =   1

     enthalpy old            =    -705.0778002652 Ry
     enthalpy new            =    -705.0820903510 Ry

     CASE: enthalpy_new < enthalpy_old

     new trust radius        =       0.0415233059 bohr
     new conv_thr            =            1.0E-10 Ry

     new unit-cell volume =    775.22917 a.u.^3 (   114.87711 Ang^3 )

CELL_PARAMETERS (alat=  1.88972599)
   6.009955138   5.198862587   0.000000000
  -7.507324322  -2.605342899   0.000000000
   0.000000000   0.000000000   4.915254558

ATOMIC_POSITIONS (angstrom)
Ti      -1.497528213   2.593427873   4.915254558
Ti      -1.499484091   0.863283791   2.457627279
Nb       1.505631568   2.598289978   4.915254558
Nb      -6.001093200  -1.735721623   2.457627279
Nb      -3.005873870  -0.006429085   4.915254558
Nb       3.004680252   3.463764472   2.457627279


     NEW-OLD atomic charge density approx. for the potential

     Check: negative/imaginary core charge=   -0.000002    0.000000
     extrapolated charge   74.61712, renormalised to   76.00000

     total cpu time spent up to now is     2891.5 secs

     per-process dynamical memory:   107.4 Mb

     Self-consistent Calculation

     iteration #  1     ecut=    33.07 Ry     beta=0.60
     Davidson diagonalization with overlap
     c_bands:  1 eigenvalues not converged
     ethr =  1.00E-06,  avg # of iterations = 12.8

     total cpu time spent up to now is     2986.7 secs

     total energy              =    -704.94154241 Ry
     Harris-Foulkes estimate   =    -707.25334694 Ry
     estimated scf accuracy    <       0.12301420 Ry

     iteration #  2     ecut=    33.07 Ry     beta=0.60
     Davidson diagonalization with overlap
     ethr =  1.62E-04,  avg # of iterations =  6.0

     total cpu time spent up to now is     3054.2 secs

     total energy              =    -704.96701773 Ry
     Harris-Foulkes estimate   =    -705.21563833 Ry
     estimated scf accuracy    <       1.03854051 Ry

     iteration #  3     ecut=    33.07 Ry     beta=0.60
     Davidson diagonalization with overlap
     ethr =  1.62E-04,  avg # of iterations =  6.1

     total cpu time spent up to now is     3109.7 secs

     total energy              =    -705.01605171 Ry
     Harris-Foulkes estimate   =    -705.19318837 Ry
     estimated scf accuracy    <       1.75345179 Ry

     iteration #  4     ecut=    33.07 Ry     beta=0.60
     Davidson diagonalization with overlap
     ethr =  1.62E-04,  avg # of iterations =  6.1

     total cpu time spent up to now is     3161.4 secs

     total energy              =    -705.08074076 Ry
     Harris-Foulkes estimate   =    -705.10200197 Ry
     estimated scf accuracy    <       0.08928156 Ry

     iteration #  5     ecut=    33.07 Ry     beta=0.60
     Davidson diagonalization with overlap
     ethr =  1.17E-04,  avg # of iterations =  4.8

     total cpu time spent up to now is     3199.6 secs

     total energy              =    -705.08673393 Ry
     Harris-Foulkes estimate   =    -705.09125774 Ry
     estimated scf accuracy    <       0.03737097 Ry

     iteration #  6     ecut=    33.07 Ry     beta=0.60
     Davidson diagonalization with overlap
     ethr =  4.92E-05,  avg # of iterations =  1.4

     total cpu time spent up to now is     3229.0 secs

     total energy              =    -705.08380409 Ry
     Harris-Foulkes estimate   =    -705.08738888 Ry
     estimated scf accuracy    <       0.02280000 Ry

     iteration #  7     ecut=    33.07 Ry     beta=0.60
     Davidson diagonalization with overlap
     ethr =  3.00E-05,  avg # of iterations =  2.4

     total cpu time spent up to now is     3260.0 secs

     total energy              =    -705.08383774 Ry
     Harris-Foulkes estimate   =    -705.08435704 Ry
     estimated scf accuracy    <       0.00988856 Ry

     iteration #  8     ecut=    33.07 Ry     beta=0.60
     Davidson diagonalization with overlap
     ethr =  1.30E-05,  avg # of iterations =  2.6

     total cpu time spent up to now is     3291.2 secs

     total energy              =    -705.08237575 Ry
     Harris-Foulkes estimate   =    -705.08400579 Ry
     estimated scf accuracy    <       0.00723817 Ry

     iteration #  9     ecut=    33.07 Ry     beta=0.60
     Davidson diagonalization with overlap
     ethr =  9.52E-06,  avg # of iterations =  5.8

     total cpu time spent up to now is     3333.5 secs

     total energy              =    -705.08307420 Ry
     Harris-Foulkes estimate   =    -705.08312777 Ry
     estimated scf accuracy    <       0.00025942 Ry

     iteration # 10     ecut=    33.07 Ry     beta=0.60
     Davidson diagonalization with overlap
     ethr =  3.41E-07,  avg # of iterations =  6.3

     total cpu time spent up to now is     3384.1 secs

     total energy              =    -705.08307682 Ry
     Harris-Foulkes estimate   =    -705.08313562 Ry
     estimated scf accuracy    <       0.00010571 Ry

     iteration # 11     ecut=    33.07 Ry     beta=0.60
     Davidson diagonalization with overlap
     ethr =  1.39E-07,  avg # of iterations =  6.7

     total cpu time spent up to now is     3451.0 secs

     total energy              =    -705.08308282 Ry
     Harris-Foulkes estimate   =    -705.08316198 Ry
     estimated scf accuracy    <       0.00070384 Ry

     iteration # 12     ecut=    33.07 Ry     beta=0.60
     Davidson diagonalization with overlap
     ethr =  1.39E-07,  avg # of iterations =  6.1

     total cpu time spent up to now is     3498.1 secs

     total energy              =    -705.08310684 Ry
     Harris-Foulkes estimate   =    -705.08311079 Ry
     estimated scf accuracy    <       0.00003136 Ry

     iteration # 13     ecut=    33.07 Ry     beta=0.60
     Davidson diagonalization with overlap
     ethr =  4.13E-08,  avg # of iterations =  5.5

     total cpu time spent up to now is     3534.4 secs

     total energy              =    -705.08310574 Ry
     Harris-Foulkes estimate   =    -705.08310964 Ry
     estimated scf accuracy    <       0.00001581 Ry

     iteration # 14     ecut=    33.07 Ry     beta=0.60
     Davidson diagonalization with overlap
     ethr =  2.08E-08,  avg # of iterations =  5.7

     total cpu time spent up to now is     3581.4 secs

     total energy              =    -705.08310898 Ry
     Harris-Foulkes estimate   =    -705.08311103 Ry
     estimated scf accuracy    <       0.00001212 Ry

     iteration # 15     ecut=    33.07 Ry     beta=0.60
     Davidson diagonalization with overlap
     ethr =  1.59E-08,  avg # of iterations =  3.3

     total cpu time spent up to now is     3614.1 secs

     total energy              =    -705.08310947 Ry
     Harris-Foulkes estimate   =    -705.08310973 Ry
     estimated scf accuracy    <       0.00000367 Ry

     iteration # 16     ecut=    33.07 Ry     beta=0.60
     Davidson diagonalization with overlap
     ethr =  4.83E-09,  avg # of iterations =  5.9

     total cpu time spent up to now is     3655.3 secs

     total energy              =    -705.08310978 Ry
     Harris-Foulkes estimate   =    -705.08310978 Ry
     estimated scf accuracy    <       0.00000153 Ry

     iteration # 17     ecut=    33.07 Ry     beta=0.60
     Davidson diagonalization with overlap
     c_bands:  1 eigenvalues not converged
     ethr =  2.02E-09,  avg # of iterations =  4.1

     total cpu time spent up to now is     3693.7 secs

     total energy              =    -705.08310957 Ry
     Harris-Foulkes estimate   =    -705.08310994 Ry
     estimated scf accuracy    <       0.00000175 Ry

     iteration # 18     ecut=    33.07 Ry     beta=0.60
     Davidson diagonalization with overlap
     ethr =  2.02E-09,  avg # of iterations =  3.5

     total cpu time spent up to now is     3729.2 secs

     total energy              =    -705.08310964 Ry
     Harris-Foulkes estimate   =    -705.08310969 Ry
     estimated scf accuracy    <       0.00000052 Ry

     iteration # 19     ecut=    33.07 Ry     beta=0.60
     Davidson diagonalization with overlap
     ethr =  6.81E-10,  avg # of iterations =  6.2

     total cpu time spent up to now is     3768.9 secs

     total energy              =    -705.08310968 Ry
     Harris-Foulkes estimate   =    -705.08310968 Ry
     estimated scf accuracy    <       0.00000007 Ry

     iteration # 20     ecut=    33.07 Ry     beta=0.60
     Davidson diagonalization with overlap
     c_bands:  1 eigenvalues not converged
     ethr =  9.15E-11,  avg # of iterations =  5.9

     total cpu time spent up to now is     3810.1 secs

     total energy              =    -705.08310968 Ry
     Harris-Foulkes estimate   =    -705.08310968 Ry
     estimated scf accuracy    <       0.00000003 Ry

     iteration # 21     ecut=    33.07 Ry     beta=0.60
     Davidson diagonalization with overlap
     ethr =  4.29E-11,  avg # of iterations =  4.0

     total cpu time spent up to now is     3844.0 secs

     total energy              =    -705.08310968 Ry
     Harris-Foulkes estimate   =    -705.08310968 Ry
     estimated scf accuracy    <          8.6E-09 Ry

     iteration # 22     ecut=    33.07 Ry     beta=0.60
     Davidson diagonalization with overlap
     ethr =  1.14E-11,  avg # of iterations =  6.4

     total cpu time spent up to now is     3893.7 secs

     total energy              =    -705.08310968 Ry
     Harris-Foulkes estimate   =    -705.08310968 Ry
     estimated scf accuracy    <          1.7E-09 Ry

     iteration # 23     ecut=    33.07 Ry     beta=0.60
     Davidson diagonalization with overlap
     ethr =  2.19E-12,  avg # of iterations =  2.5

     total cpu time spent up to now is     3925.1 secs

     total energy              =    -705.08310968 Ry
     Harris-Foulkes estimate   =    -705.08310968 Ry
     estimated scf accuracy    <          3.9E-10 Ry

     iteration # 24     ecut=    33.07 Ry     beta=0.60
     Davidson diagonalization with overlap
     ethr =  5.16E-13,  avg # of iterations =  5.9

     total cpu time spent up to now is     3968.1 secs

     End of self-consistent calculation

     Number of k-points >= 100: set verbosity='high' to print the bands.

     the Fermi energy is    15.5922 ev

!    total energy              =    -705.08310968 Ry
     Harris-Foulkes estimate   =    -705.08310968 Ry
     estimated scf accuracy    <          9.3E-11 Ry

     The total energy is the sum of the following terms:

     one-electron contribution =    -167.39443216 Ry
     hartree contribution      =     115.20588105 Ry
     xc contribution           =    -102.48528083 Ry
     ewald contribution        =    -549.94421655 Ry
     smearing contrib. (-TS)   =      -0.46506119 Ry

     convergence has been achieved in  24 iterations

     Forces acting on atoms (Ry/au):

     atom    1 type  2   force =    -0.00036689   -0.00021182    0.00000000
     atom    2 type  2   force =     0.00036669    0.00021171    0.00000000
     atom    3 type  1   force =    -0.00039542   -0.00022829    0.00000000
     atom    4 type  1   force =     0.00035163    0.00020301    0.00000000
     atom    5 type  1   force =    -0.00035163   -0.00020302    0.00000000
     atom    6 type  1   force =     0.00039561    0.00022841    0.00000000

     Total force =     0.001051     Total SCF correction =     0.000008


     entering subroutine stress ...

          total   stress  (Ry/bohr**3)                   (kbar)     P=    1.64
   0.00000512   0.00001187   0.00000000          0.75      1.75      0.00
   0.00001187  -0.00000858   0.00000000          1.75     -1.26      0.00
   0.00000000   0.00000000   0.00003691          0.00      0.00      5.43


     number of scf cycles    =   3
     number of bfgs steps    =   2

     enthalpy old            =    -705.0820903510 Ry
     enthalpy new            =    -705.0831096791 Ry

     CASE: enthalpy_new < enthalpy_old

     new trust radius        =       0.0049268955 bohr
     new conv_thr            =            4.0E-11 Ry

     new unit-cell volume =    775.90783 a.u.^3 (   114.97768 Ang^3 )

CELL_PARAMETERS (alat=  1.88972599)
   6.012306525   5.199664248   0.000000000
  -7.509194274  -2.606978429   0.000000000
   0.000000000   0.000000000   4.919603407

ATOMIC_POSITIONS (angstrom)
Ti      -1.497225227   2.592490976   4.919603407
Ti      -1.499299537   0.862834431   2.459801704
Nb       1.506379889   2.598166108   4.919603407
Nb      -6.002332076  -1.736992802   2.459801704
Nb      -3.006498755  -0.007345775   4.919603407
Nb       3.006289619   3.464137727   2.459801704


     NEW-OLD atomic charge density approx. for the potential

     Check: negative/imaginary core charge=   -0.000002    0.000000
     extrapolated charge   76.06472, renormalised to   76.00000

     total cpu time spent up to now is     3980.9 secs

     per-process dynamical memory:   107.4 Mb

     Self-consistent Calculation

     iteration #  1     ecut=    33.07 Ry     beta=0.60
     Davidson diagonalization with overlap
     ethr =  1.00E-06,  avg # of iterations =  3.1

     total cpu time spent up to now is     4027.4 secs

     total energy              =    -705.08284867 Ry
     Harris-Foulkes estimate   =    -704.98256916 Ry
     estimated scf accuracy    <       0.00025633 Ry

     iteration #  2     ecut=    33.07 Ry     beta=0.60
     Davidson diagonalization with overlap
     c_bands:  1 eigenvalues not converged
     c_bands:  1 eigenvalues not converged
     ethr =  3.37E-07,  avg # of iterations =  8.1

     total cpu time spent up to now is     4096.2 secs

     total energy              =    -705.08259640 Ry
     Harris-Foulkes estimate   =    -705.08357517 Ry
     estimated scf accuracy    <       0.00683278 Ry

     iteration #  3     ecut=    33.07 Ry     beta=0.60
     Davidson diagonalization with overlap
     ethr =  3.37E-07,  avg # of iterations =  6.8

     total cpu time spent up to now is     4156.1 secs

     total energy              =    -705.08299384 Ry
     Harris-Foulkes estimate   =    -705.08338634 Ry
     estimated scf accuracy    <       0.00415605 Ry

     iteration #  4     ecut=    33.07 Ry     beta=0.60
     Davidson diagonalization with overlap
     ethr =  3.37E-07,  avg # of iterations =  6.2

     total cpu time spent up to now is     4207.9 secs

     total energy              =    -705.08313430 Ry
     Harris-Foulkes estimate   =    -705.08317469 Ry
     estimated scf accuracy    <       0.00018483 Ry

     iteration #  5     ecut=    33.07 Ry     beta=0.60
     Davidson diagonalization with overlap
     ethr =  2.43E-07,  avg # of iterations =  3.7

     total cpu time spent up to now is     4242.3 secs

     total energy              =    -705.08314346 Ry
     Harris-Foulkes estimate   =    -705.08315139 Ry
     estimated scf accuracy    <       0.00006080 Ry

     iteration #  6     ecut=    33.07 Ry     beta=0.60
     Davidson diagonalization with overlap
     ethr =  8.00E-08,  avg # of iterations =  2.8

     total cpu time spent up to now is     4273.8 secs

     total energy              =    -705.08314087 Ry
     Harris-Foulkes estimate   =    -705.08314512 Ry
     estimated scf accuracy    <       0.00003831 Ry

     iteration #  7     ecut=    33.07 Ry     beta=0.60
     Davidson diagonalization with overlap
     ethr =  5.04E-08,  avg # of iterations =  1.4

     total cpu time spent up to now is     4303.2 secs

     total energy              =    -705.08313836 Ry
     Harris-Foulkes estimate   =    -705.08314166 Ry
     estimated scf accuracy    <       0.00002399 Ry

     iteration #  8     ecut=    33.07 Ry     beta=0.60
     Davidson diagonalization with overlap
     ethr =  3.16E-08,  avg # of iterations =  4.4

     total cpu time spent up to now is     4337.4 secs

     total energy              =    -705.08313844 Ry
     Harris-Foulkes estimate   =    -705.08313923 Ry
     estimated scf accuracy    <       0.00001067 Ry

     iteration #  9     ecut=    33.07 Ry     beta=0.60
     Davidson diagonalization with overlap
     ethr =  1.40E-08,  avg # of iterations =  3.9

     total cpu time spent up to now is     4370.7 secs

     total energy              =    -705.08313734 Ry
     Harris-Foulkes estimate   =    -705.08313872 Ry
     estimated scf accuracy    <       0.00000645 Ry

     iteration # 10     ecut=    33.07 Ry     beta=0.60
     Davidson diagonalization with overlap
     ethr =  8.49E-09,  avg # of iterations =  5.7

     total cpu time spent up to now is     4411.6 secs

     total energy              =    -705.08313777 Ry
     Harris-Foulkes estimate   =    -705.08313793 Ry
     estimated scf accuracy    <       0.00000033 Ry

     iteration # 11     ecut=    33.07 Ry     beta=0.60
     Davidson diagonalization with overlap
     ethr =  4.39E-10,  avg # of iterations =  6.6

     total cpu time spent up to now is     4470.2 secs

     total energy              =    -705.08313791 Ry
     Harris-Foulkes estimate   =    -705.08313794 Ry
     estimated scf accuracy    <       0.00000030 Ry

     iteration # 12     ecut=    33.07 Ry     beta=0.60
     Davidson diagonalization with overlap
     ethr =  3.99E-10,  avg # of iterations =  1.0

     total cpu time spent up to now is     4499.1 secs

     total energy              =    -705.08313789 Ry
     Harris-Foulkes estimate   =    -705.08313791 Ry
     estimated scf accuracy    <       0.00000011 Ry

     iteration # 13     ecut=    33.07 Ry     beta=0.60
     Davidson diagonalization with overlap
     ethr =  1.41E-10,  avg # of iterations =  6.5

     total cpu time spent up to now is     4546.9 secs

     total energy              =    -705.08313791 Ry
     Harris-Foulkes estimate   =    -705.08313792 Ry
     estimated scf accuracy    <       0.00000016 Ry

     iteration # 14     ecut=    33.07 Ry     beta=0.60
     Davidson diagonalization with overlap
     ethr =  1.41E-10,  avg # of iterations =  2.1

     total cpu time spent up to now is     4577.2 secs

     total energy              =    -705.08313791 Ry
     Harris-Foulkes estimate   =    -705.08313791 Ry
     estimated scf accuracy    <       0.00000002 Ry

     iteration # 15     ecut=    33.07 Ry     beta=0.60
     Davidson diagonalization with overlap
     ethr =  2.76E-11,  avg # of iterations =  6.7

     total cpu time spent up to now is     4628.4 secs

     total energy              =    -705.08313791 Ry
     Harris-Foulkes estimate   =    -705.08313792 Ry
     estimated scf accuracy    <       0.00000001 Ry

     iteration # 16     ecut=    33.07 Ry     beta=0.60
     Davidson diagonalization with overlap
     ethr =  1.85E-11,  avg # of iterations =  1.0

     total cpu time spent up to now is     4657.4 secs

     total energy              =    -705.08313791 Ry
     Harris-Foulkes estimate   =    -705.08313791 Ry
     estimated scf accuracy    <          8.1E-09 Ry

     iteration # 17     ecut=    33.07 Ry     beta=0.60
     Davidson diagonalization with overlap
     ethr =  1.06E-11,  avg # of iterations =  6.5

     total cpu time spent up to now is     4701.0 secs

     total energy              =    -705.08313791 Ry
     Harris-Foulkes estimate   =    -705.08313791 Ry
     estimated scf accuracy    <          1.1E-09 Ry

     iteration # 18     ecut=    33.07 Ry     beta=0.60
     Davidson diagonalization with overlap
     ethr =  1.39E-12,  avg # of iterations =  4.1

     total cpu time spent up to now is     4734.9 secs

     total energy              =    -705.08313791 Ry
     Harris-Foulkes estimate   =    -705.08313791 Ry
     estimated scf accuracy    <          1.0E-09 Ry

     iteration # 19     ecut=    33.07 Ry     beta=0.60
     Davidson diagonalization with overlap
     ethr =  1.32E-12,  avg # of iterations =  2.4

     total cpu time spent up to now is     4765.9 secs

     total energy              =    -705.08313791 Ry
     Harris-Foulkes estimate   =    -705.08313791 Ry
     estimated scf accuracy    <          2.8E-10 Ry

     iteration # 20     ecut=    33.07 Ry     beta=0.60
     Davidson diagonalization with overlap
     ethr =  3.70E-13,  avg # of iterations =  6.7

     total cpu time spent up to now is     4812.3 secs

     total energy              =    -705.08313791 Ry
     Harris-Foulkes estimate   =    -705.08313791 Ry
     estimated scf accuracy    <          6.6E-11 Ry

     iteration # 21     ecut=    33.07 Ry     beta=0.60
     Davidson diagonalization with overlap
     ethr =  1.00E-13,  avg # of iterations =  2.3

     total cpu time spent up to now is     4843.1 secs

     End of self-consistent calculation

     Number of k-points >= 100: set verbosity='high' to print the bands.

     the Fermi energy is    15.5768 ev

!    total energy              =    -705.08313791 Ry
     Harris-Foulkes estimate   =    -705.08313791 Ry
     estimated scf accuracy    <          2.8E-11 Ry

     The total energy is the sum of the following terms:

     one-electron contribution =    -167.62783251 Ry
     hartree contribution      =     115.27439248 Ry
     xc contribution           =    -102.48053634 Ry
     ewald contribution        =    -549.78348103 Ry
     smearing contrib. (-TS)   =      -0.46568051 Ry

     convergence has been achieved in  21 iterations

     Forces acting on atoms (Ry/au):

     atom    1 type  2   force =    -0.00028773   -0.00016612    0.00000000
     atom    2 type  2   force =     0.00028772    0.00016611    0.00000000
     atom    3 type  1   force =    -0.00027806   -0.00016054    0.00000000
     atom    4 type  1   force =     0.00034496    0.00019916    0.00000000
     atom    5 type  1   force =    -0.00034454   -0.00019892    0.00000000
     atom    6 type  1   force =     0.00027764    0.00016030    0.00000000

     Total force =     0.000862     Total SCF correction =     0.000014


     entering subroutine stress ...

          total   stress  (Ry/bohr**3)                   (kbar)     P=    0.56
  -0.00000068   0.00001014   0.00000000         -0.10      1.49      0.00
   0.00001014  -0.00001238   0.00000000          1.49     -1.82      0.00
   0.00000000   0.00000000   0.00002441          0.00      0.00      3.59


     number of scf cycles    =   4
     number of bfgs steps    =   3

     enthalpy old            =    -705.0831096791 Ry
     enthalpy new            =    -705.0831379148 Ry

     CASE: enthalpy_new < enthalpy_old

     new trust radius        =       0.0073870415 bohr
     new conv_thr            =            3.4E-11 Ry

     new unit-cell volume =    776.27780 a.u.^3 (   115.03250 Ang^3 )

CELL_PARAMETERS (alat=  1.88972599)
   6.014708178   5.199178756   0.000000000
  -7.509974652  -2.609301067   0.000000000
   0.000000000   0.000000000   4.926126681

ATOMIC_POSITIONS (angstrom)
Ti      -1.495942379   2.589487456   4.926126681
Ti      -1.498327300   0.861523668   2.463063340
Nb       1.507398147   2.596881913   4.926126681
Nb      -6.002338102  -1.738868365   2.463063340
Nb      -3.006638863  -0.009298753   4.926126681
Nb       3.008306530   3.463430107   2.463063340


     NEW-OLD atomic charge density approx. for the potential

     Check: negative/imaginary core charge=   -0.000002    0.000000
     extrapolated charge   76.03526, renormalised to   76.00000

     total cpu time spent up to now is     4856.0 secs

     per-process dynamical memory:   107.4 Mb

     Self-consistent Calculation

     iteration #  1     ecut=    33.07 Ry     beta=0.60
     Davidson diagonalization with overlap
     ethr =  1.00E-06,  avg # of iterations =  3.2

     total cpu time spent up to now is     4906.8 secs

     total energy              =    -705.08308052 Ry
     Harris-Foulkes estimate   =    -705.02831881 Ry
     estimated scf accuracy    <       0.00008176 Ry

     iteration #  2     ecut=    33.07 Ry     beta=0.60
     Davidson diagonalization with overlap
     c_bands:  1 eigenvalues not converged
     c_bands:  1 eigenvalues not converged
     c_bands:  1 eigenvalues not converged
     c_bands:  1 eigenvalues not converged
     c_bands:  1 eigenvalues not converged
     ethr =  1.08E-07,  avg # of iterations =  9.3

     total cpu time spent up to now is     4977.2 secs

     total energy              =    -705.08296296 Ry
     Harris-Foulkes estimate   =    -705.08334033 Ry
     estimated scf accuracy    <       0.00300169 Ry

     iteration #  3     ecut=    33.07 Ry     beta=0.60
     Davidson diagonalization with overlap
     ethr =  1.08E-07,  avg # of iterations =  6.8

     total cpu time spent up to now is     5038.3 secs

     total energy              =    -705.08313652 Ry
     Harris-Foulkes estimate   =    -705.08323531 Ry
     estimated scf accuracy    <       0.00098279 Ry

     iteration #  4     ecut=    33.07 Ry     beta=0.60
     Davidson diagonalization with overlap
     ethr =  1.08E-07,  avg # of iterations =  6.1

     total cpu time spent up to now is     5089.0 secs

     total energy              =    -705.08316939 Ry
     Harris-Foulkes estimate   =    -705.08318167 Ry
     estimated scf accuracy    <       0.00005632 Ry

     iteration #  5     ecut=    33.07 Ry     beta=0.60
     Davidson diagonalization with overlap
     ethr =  7.41E-08,  avg # of iterations =  3.9

     total cpu time spent up to now is     5124.0 secs

     total energy              =    -705.08317194 Ry
     Harris-Foulkes estimate   =    -705.08317470 Ry
     estimated scf accuracy    <       0.00001833 Ry

     iteration #  6     ecut=    33.07 Ry     beta=0.60
     Davidson diagonalization with overlap
     ethr =  2.41E-08,  avg # of iterations =  3.4

     total cpu time spent up to now is     5156.6 secs

     total energy              =    -705.08317177 Ry
     Harris-Foulkes estimate   =    -705.08317262 Ry
     estimated scf accuracy    <       0.00001074 Ry

     iteration #  7     ecut=    33.07 Ry     beta=0.60
     Davidson diagonalization with overlap
     ethr =  1.41E-08,  avg # of iterations =  2.9

     total cpu time spent up to now is     5188.0 secs

     total energy              =    -705.08317007 Ry
     Harris-Foulkes estimate   =    -705.08317221 Ry
     estimated scf accuracy    <       0.00000861 Ry

     iteration #  8     ecut=    33.07 Ry     beta=0.60
     Davidson diagonalization with overlap
     ethr =  1.13E-08,  avg # of iterations =  5.7

     total cpu time spent up to now is     5229.9 secs

     total energy              =    -705.08317094 Ry
     Harris-Foulkes estimate   =    -705.08317102 Ry
     estimated scf accuracy    <       0.00000050 Ry

     iteration #  9     ecut=    33.07 Ry     beta=0.60
     Davidson diagonalization with overlap
     ethr =  6.57E-10,  avg # of iterations =  6.7

     total cpu time spent up to now is     5282.7 secs

     total energy              =    -705.08317103 Ry
     Harris-Foulkes estimate   =    -705.08317107 Ry
     estimated scf accuracy    <       0.00000025 Ry

     iteration # 10     ecut=    33.07 Ry     beta=0.60
     Davidson diagonalization with overlap
     c_bands:  1 eigenvalues not converged
     c_bands:  1 eigenvalues not converged
     ethr =  3.29E-10,  avg # of iterations =  5.7

     total cpu time spent up to now is     5318.8 secs

     total energy              =    -705.08317104 Ry
     Harris-Foulkes estimate   =    -705.08317105 Ry
     estimated scf accuracy    <       0.00000006 Ry

     iteration # 11     ecut=    33.07 Ry     beta=0.60
     Davidson diagonalization with overlap
     c_bands:  1 eigenvalues not converged
     ethr =  7.59E-11,  avg # of iterations =  6.0

     total cpu time spent up to now is     5364.8 secs

     total energy              =    -705.08317104 Ry
     Harris-Foulkes estimate   =    -705.08317105 Ry
     estimated scf accuracy    <       0.00000001 Ry

     iteration # 12     ecut=    33.07 Ry     beta=0.60
     Davidson diagonalization with overlap
     ethr =  1.62E-11,  avg # of iterations =  5.2

     total cpu time spent up to now is     5401.2 secs

     total energy              =    -705.08317104 Ry
     Harris-Foulkes estimate   =    -705.08317104 Ry
     estimated scf accuracy    <          8.0E-10 Ry

     iteration # 13     ecut=    33.07 Ry     beta=0.60
     Davidson diagonalization with overlap
     ethr =  1.05E-12,  avg # of iterations =  6.6

     total cpu time spent up to now is     5457.0 secs

     total energy              =    -705.08317104 Ry
     Harris-Foulkes estimate   =    -705.08317104 Ry
     estimated scf accuracy    <          8.9E-10 Ry

     iteration # 14     ecut=    33.07 Ry     beta=0.60
     Davidson diagonalization with overlap
     ethr =  1.05E-12,  avg # of iterations =  2.0

     total cpu time spent up to now is     5487.3 secs

     total energy              =    -705.08317104 Ry
     Harris-Foulkes estimate   =    -705.08317104 Ry
     estimated scf accuracy    <          9.1E-11 Ry

     iteration # 15     ecut=    33.07 Ry     beta=0.60
     Davidson diagonalization with overlap
     ethr =  1.19E-13,  avg # of iterations =  6.2

     total cpu time spent up to now is     5540.3 secs

     total energy              =    -705.08317104 Ry
     Harris-Foulkes estimate   =    -705.08317104 Ry
     estimated scf accuracy    <          3.9E-11 Ry

     iteration # 16     ecut=    33.07 Ry     beta=0.60
     Davidson diagonalization with overlap
     ethr =  1.00E-13,  avg # of iterations =  1.0

     total cpu time spent up to now is     5569.4 secs

     End of self-consistent calculation

     Number of k-points >= 100: set verbosity='high' to print the bands.

     the Fermi energy is    15.5684 ev

!    total energy              =    -705.08317104 Ry
     Harris-Foulkes estimate   =    -705.08317104 Ry
     estimated scf accuracy    <          1.9E-11 Ry

     The total energy is the sum of the following terms:

     one-electron contribution =    -167.76034996 Ry
     hartree contribution      =     115.31431185 Ry
     xc contribution           =    -102.47804833 Ry
     ewald contribution        =    -549.69319394 Ry
     smearing contrib. (-TS)   =      -0.46589067 Ry

     convergence has been achieved in  16 iterations

     Forces acting on atoms (Ry/au):

     atom    1 type  2   force =    -0.00014845   -0.00008571    0.00000000
     atom    2 type  2   force =     0.00014870    0.00008585    0.00000000
     atom    3 type  1   force =    -0.00012376   -0.00007145    0.00000000
     atom    4 type  1   force =     0.00020824    0.00012022    0.00000000
     atom    5 type  1   force =    -0.00020836   -0.00012030    0.00000000
     atom    6 type  1   force =     0.00012363    0.00007138    0.00000000

     Total force =     0.000464     Total SCF correction =     0.000015


     entering subroutine stress ...

          total   stress  (Ry/bohr**3)                   (kbar)     P=   -0.05
  -0.00000203   0.00000651   0.00000000         -0.30      0.96      0.00
   0.00000651  -0.00000955   0.00000000          0.96     -1.40      0.00
   0.00000000   0.00000000   0.00001047          0.00      0.00      1.54


     number of scf cycles    =   5
     number of bfgs steps    =   4

     enthalpy old            =    -705.0831379148 Ry
     enthalpy new            =    -705.0831710447 Ry

     CASE: enthalpy_new < enthalpy_old

     new trust radius        =       0.0081006687 bohr
     new conv_thr            =            2.1E-11 Ry

     new unit-cell volume =    776.33196 a.u.^3 (   115.04053 Ang^3 )

CELL_PARAMETERS (alat=  1.88972599)
   6.017149454   5.197878910   0.000000000
  -7.510069590  -2.612065198   0.000000000
   0.000000000   0.000000000   4.933287915

ATOMIC_POSITIONS (angstrom)
Ti      -1.494005728   2.585186944   4.933287915
Ti      -1.496885136   0.859646986   2.466643957
Nb       1.508629376   2.594883445   4.933287915
Nb      -6.001595781  -1.741149102   2.466643957
Nb      -3.006443835  -0.011895472   4.933287915
Nb       3.010548618   3.462015261   2.466643957


     NEW-OLD atomic charge density approx. for the potential

     Check: negative/imaginary core charge=   -0.000002    0.000000
     extrapolated charge   76.00516, renormalised to   76.00000

     total cpu time spent up to now is     5582.2 secs

     per-process dynamical memory:   107.4 Mb

     Self-consistent Calculation

     iteration #  1     ecut=    33.07 Ry     beta=0.60
     Davidson diagonalization with overlap
     ethr =  1.00E-06,  avg # of iterations =  3.3

     Threshold (ethr) on eigenvalues was too large:
     Diagonalizing with lowered threshold

     Davidson diagonalization with overlap
     ethr =  1.32E-08,  avg # of iterations =  7.6

     total cpu time spent up to now is     5691.8 secs

     total energy              =    -705.08317835 Ry
     Harris-Foulkes estimate   =    -705.07515556 Ry
     estimated scf accuracy    <       0.00001255 Ry

     iteration #  2     ecut=    33.07 Ry     beta=0.60
     Davidson diagonalization with overlap
     ethr =  1.65E-08,  avg # of iterations =  6.5

     total cpu time spent up to now is     5756.8 secs

     total energy              =    -705.08313226 Ry
     Harris-Foulkes estimate   =    -705.08323589 Ry
     estimated scf accuracy    <       0.00117140 Ry

     iteration #  3     ecut=    33.07 Ry     beta=0.60
     Davidson diagonalization with overlap
     ethr =  1.65E-08,  avg # of iterations =  6.8

     total cpu time spent up to now is     5818.8 secs

     total energy              =    -705.08318490 Ry
     Harris-Foulkes estimate   =    -705.08318734 Ry
     estimated scf accuracy    <       0.00001327 Ry

     iteration #  4     ecut=    33.07 Ry     beta=0.60
     Davidson diagonalization with overlap
     ethr =  1.65E-08,  avg # of iterations =  5.4

     total cpu time spent up to now is     5859.5 secs

     total energy              =    -705.08318528 Ry
     Harris-Foulkes estimate   =    -705.08318651 Ry
     estimated scf accuracy    <       0.00000428 Ry

     iteration #  5     ecut=    33.07 Ry     beta=0.60
     Davidson diagonalization with overlap
     ethr =  5.63E-09,  avg # of iterations =  5.6

     total cpu time spent up to now is     5904.4 secs

     total energy              =    -705.08318594 Ry
     Harris-Foulkes estimate   =    -705.08318616 Ry
     estimated scf accuracy    <       0.00000083 Ry

     iteration #  6     ecut=    33.07 Ry     beta=0.60
     Davidson diagonalization with overlap
     ethr =  1.10E-09,  avg # of iterations =  6.4

     total cpu time spent up to now is     5957.0 secs

     total energy              =    -705.08318572 Ry
     Harris-Foulkes estimate   =    -705.08318641 Ry
     estimated scf accuracy    <       0.00000693 Ry

     iteration #  7     ecut=    33.07 Ry     beta=0.60
     Davidson diagonalization with overlap
     ethr =  1.10E-09,  avg # of iterations =  6.1

     total cpu time spent up to now is     6005.4 secs

     total energy              =    -705.08318606 Ry
     Harris-Foulkes estimate   =    -705.08318610 Ry
     estimated scf accuracy    <       0.00000022 Ry

     iteration #  8     ecut=    33.07 Ry     beta=0.60
     Davidson diagonalization with overlap
     ethr =  2.95E-10,  avg # of iterations =  6.0

     total cpu time spent up to now is     6052.0 secs

     total energy              =    -705.08318606 Ry
     Harris-Foulkes estimate   =    -705.08318612 Ry
     estimated scf accuracy    <       0.00000042 Ry

     iteration #  9     ecut=    33.07 Ry     beta=0.60
     Davidson diagonalization with overlap
     ethr =  2.95E-10,  avg # of iterations =  5.9

     total cpu time spent up to now is     6089.9 secs

     total energy              =    -705.08318609 Ry
     Harris-Foulkes estimate   =    -705.08318609 Ry
     estimated scf accuracy    <          9.1E-09 Ry

     iteration # 10     ecut=    33.07 Ry     beta=0.60
     Davidson diagonalization with overlap
     ethr =  1.19E-11,  avg # of iterations =  6.5

     total cpu time spent up to now is     6145.8 secs

     total energy              =    -705.08318609 Ry
     Harris-Foulkes estimate   =    -705.08318609 Ry
     estimated scf accuracy    <       0.00000001 Ry

     iteration # 11     ecut=    33.07 Ry     beta=0.60
     Davidson diagonalization with overlap
     c_bands:  1 eigenvalues not converged
     ethr =  1.19E-11,  avg # of iterations =  4.7

     total cpu time spent up to now is     6182.1 secs

     total energy              =    -705.08318609 Ry
     Harris-Foulkes estimate   =    -705.08318609 Ry
     estimated scf accuracy    <          6.4E-09 Ry

     iteration # 12     ecut=    33.07 Ry     beta=0.60
     Davidson diagonalization with overlap
     c_bands:  1 eigenvalues not converged
     c_bands:  1 eigenvalues not converged
     c_bands:  1 eigenvalues not converged
     ethr =  8.47E-12,  avg # of iterations =  2.8

     total cpu time spent up to now is     6213.3 secs

     total energy              =    -705.08318609 Ry
     Harris-Foulkes estimate   =    -705.08318609 Ry
     estimated scf accuracy    <          2.4E-09 Ry

     iteration # 13     ecut=    33.07 Ry     beta=0.60
     Davidson diagonalization with overlap
     ethr =  3.10E-12,  avg # of iterations =  6.4

     total cpu time spent up to now is     6259.3 secs

     total energy              =    -705.08318609 Ry
     Harris-Foulkes estimate   =    -705.08318609 Ry
     estimated scf accuracy    <          3.1E-09 Ry

     iteration # 14     ecut=    33.07 Ry     beta=0.60
     Davidson diagonalization with overlap
     ethr =  3.10E-12,  avg # of iterations =  2.1

     total cpu time spent up to now is     6289.5 secs

     total energy              =    -705.08318609 Ry
     Harris-Foulkes estimate   =    -705.08318609 Ry
     estimated scf accuracy    <          2.0E-10 Ry

     iteration # 15     ecut=    33.07 Ry     beta=0.60
     Davidson diagonalization with overlap
     ethr =  2.69E-13,  avg # of iterations =  6.3

     total cpu time spent up to now is     6340.1 secs

     total energy              =    -705.08318609 Ry
     Harris-Foulkes estimate   =    -705.08318609 Ry
     estimated scf accuracy    <          2.8E-10 Ry

     iteration # 16     ecut=    33.07 Ry     beta=0.60
     Davidson diagonalization with overlap
     ethr =  2.69E-13,  avg # of iterations =  1.5

     total cpu time spent up to now is     6369.6 secs

     total energy              =    -705.08318609 Ry
     Harris-Foulkes estimate   =    -705.08318609 Ry
     estimated scf accuracy    <          1.8E-10 Ry

     iteration # 17     ecut=    33.07 Ry     beta=0.60
     Davidson diagonalization with overlap
     ethr =  2.32E-13,  avg # of iterations =  4.1

     total cpu time spent up to now is     6403.6 secs

     total energy              =    -705.08318609 Ry
     Harris-Foulkes estimate   =    -705.08318609 Ry
     estimated scf accuracy    <          2.6E-11 Ry

     iteration # 18     ecut=    33.07 Ry     beta=0.60
     Davidson diagonalization with overlap
     ethr =  1.00E-13,  avg # of iterations =  2.6

     total cpu time spent up to now is     6434.7 secs

     End of self-consistent calculation

     Number of k-points >= 100: set verbosity='high' to print the bands.

     the Fermi energy is    15.5670 ev

!    total energy              =    -705.08318609 Ry
     Harris-Foulkes estimate   =    -705.08318609 Ry
     estimated scf accuracy    <          1.3E-11 Ry

     The total energy is the sum of the following terms:

     one-electron contribution =    -167.78949358 Ry
     hartree contribution      =     115.32489977 Ry
     xc contribution           =    -102.47787021 Ry
     ewald contribution        =    -549.67500873 Ry
     smearing contrib. (-TS)   =      -0.46571335 Ry

     convergence has been achieved in  18 iterations

     Forces acting on atoms (Ry/au):

     atom    1 type  2   force =     0.00002605    0.00001504    0.00000000
     atom    2 type  2   force =    -0.00002614   -0.00001509    0.00000000
     atom    3 type  1   force =     0.00003970    0.00002292    0.00000000
     atom    4 type  1   force =    -0.00001865   -0.00001077    0.00000000
     atom    5 type  1   force =     0.00001887    0.00001090    0.00000000
     atom    6 type  1   force =    -0.00003983   -0.00002299    0.00000000

     Total force =     0.000083     Total SCF correction =     0.000018
     SCF correction compared to forces is large: reduce conv_thr to get better values


     entering subroutine stress ...

          total   stress  (Ry/bohr**3)                   (kbar)     P=   -0.17
   0.00000032   0.00000170   0.00000000          0.05      0.25      0.00
   0.00000170  -0.00000164   0.00000000          0.25     -0.24      0.00
   0.00000000   0.00000000  -0.00000217          0.00      0.00     -0.32


     number of scf cycles    =   6
     number of bfgs steps    =   5

     enthalpy old            =    -705.0831710447 Ry
     enthalpy new            =    -705.0831860903 Ry

     CASE: enthalpy_new < enthalpy_old

     new trust radius        =       0.0005628462 bohr
     new conv_thr            =            4.0E-12 Ry

     new unit-cell volume =    776.24992 a.u.^3 (   115.02837 Ang^3 )

CELL_PARAMETERS (alat=  1.88972599)
   6.017436540   5.197845792   0.000000000
  -7.510184452  -2.612330380   0.000000000
   0.000000000   0.000000000   4.933189101

ATOMIC_POSITIONS (angstrom)
Ti      -1.493830862   2.584890170   4.933189101
Ti      -1.496824052   0.859483386   2.466594551
Nb       1.508794044   2.594779650   4.933189101
Nb      -6.001658746  -1.741384321   2.466594551
Nb      -3.006431838  -0.012087412   4.933189101
Nb       3.010734758   3.461923863   2.466594551


     NEW-OLD atomic charge density approx. for the potential

     Check: negative/imaginary core charge=   -0.000002    0.000000
     extrapolated charge   75.99218, renormalised to   76.00000

     total cpu time spent up to now is     6447.5 secs

     per-process dynamical memory:   107.4 Mb

     Self-consistent Calculation

     iteration #  1     ecut=    33.07 Ry     beta=0.60
     Davidson diagonalization with overlap
     ethr =  1.00E-06,  avg # of iterations =  2.0

     Threshold (ethr) on eigenvalues was too large:
     Diagonalizing with lowered threshold

     Davidson diagonalization with overlap
     ethr =  4.05E-09,  avg # of iterations =  1.9

     total cpu time spent up to now is     6519.3 secs

     total energy              =    -705.08318246 Ry
     Harris-Foulkes estimate   =    -705.09535340 Ry
     estimated scf accuracy    <       0.00000323 Ry

     iteration #  2     ecut=    33.07 Ry     beta=0.60
     Davidson diagonalization with overlap
     c_bands:  1 eigenvalues not converged
     ethr =  4.25E-09,  avg # of iterations =  6.2

     total cpu time spent up to now is     6587.2 secs

     total energy              =    -705.08318299 Ry
     Harris-Foulkes estimate   =    -705.08318971 Ry
     estimated scf accuracy    <       0.00002911 Ry

     iteration #  3     ecut=    33.07 Ry     beta=0.60
     Davidson diagonalization with overlap
     ethr =  4.25E-09,  avg # of iterations =  6.6

     total cpu time spent up to now is     6645.3 secs

     total energy              =    -705.08318377 Ry
     Harris-Foulkes estimate   =    -705.08319003 Ry
     estimated scf accuracy    <       0.00007113 Ry

     iteration #  4     ecut=    33.07 Ry     beta=0.60
     Davidson diagonalization with overlap
     ethr =  4.25E-09,  avg # of iterations =  6.0

     total cpu time spent up to now is     6697.5 secs

     total energy              =    -705.08318626 Ry
     Harris-Foulkes estimate   =    -705.08318686 Ry
     estimated scf accuracy    <       0.00000262 Ry

     iteration #  5     ecut=    33.07 Ry     beta=0.60
     Davidson diagonalization with overlap
     ethr =  3.45E-09,  avg # of iterations =  4.7

     total cpu time spent up to now is     6734.3 secs

     total energy              =    -705.08318644 Ry
     Harris-Foulkes estimate   =    -705.08318653 Ry
     estimated scf accuracy    <       0.00000083 Ry

     iteration #  6     ecut=    33.07 Ry     beta=0.60
     Davidson diagonalization with overlap
     ethr =  1.10E-09,  avg # of iterations =  4.1

     total cpu time spent up to now is     6768.2 secs

     total energy              =    -705.08318641 Ry
     Harris-Foulkes estimate   =    -705.08318649 Ry
     estimated scf accuracy    <       0.00000091 Ry

     iteration #  7     ecut=    33.07 Ry     beta=0.60
     Davidson diagonalization with overlap
     ethr =  1.10E-09,  avg # of iterations =  1.0

     total cpu time spent up to now is     6797.3 secs

     total energy              =    -705.08318635 Ry
     Harris-Foulkes estimate   =    -705.08318643 Ry
     estimated scf accuracy    <       0.00000051 Ry

     iteration #  8     ecut=    33.07 Ry     beta=0.60
     Davidson diagonalization with overlap
     ethr =  6.72E-10,  avg # of iterations =  2.2

     total cpu time spent up to now is     6827.8 secs

     total energy              =    -705.08318633 Ry
     Harris-Foulkes estimate   =    -705.08318636 Ry
     estimated scf accuracy    <       0.00000025 Ry

     iteration #  9     ecut=    33.07 Ry     beta=0.60
[...]

     Initial potential from superposition of free atoms

     starting charge   73.98898, renormalised to   76.00000
     Starting wfc are   72 randomized atomic wfcs

     total cpu time spent up to now is    26472.5 secs

     per-process dynamical memory:    96.9 Mb

     Self-consistent Calculation

     iteration #  1     ecut=    33.07 Ry     beta=0.60
     Davidson diagonalization with overlap
     c_bands:  1 eigenvalues not converged
     c_bands:  1 eigenvalues not converged
     c_bands:  1 eigenvalues not converged
     c_bands:  1 eigenvalues not converged
     c_bands:  1 eigenvalues not converged
     c_bands:  2 eigenvalues not converged
     c_bands:  1 eigenvalues not converged
     c_bands:  1 eigenvalues not converged
     c_bands:  1 eigenvalues not converged
     c_bands:  1 eigenvalues not converged
     c_bands:  1 eigenvalues not converged
     c_bands:  1 eigenvalues not converged
     c_bands:  1 eigenvalues not converged
     c_bands:  1 eigenvalues not converged
     c_bands:  1 eigenvalues not converged
     c_bands:  2 eigenvalues not converged
     c_bands:  1 eigenvalues not converged
     c_bands:  1 eigenvalues not converged
     c_bands:  2 eigenvalues not converged
     ethr =  1.00E-06,  avg # of iterations = 15.4

     total cpu time spent up to now is    26593.7 secs

     total energy              =    -601.32261263 Ry
     Harris-Foulkes estimate   =    -714.85341620 Ry
     estimated scf accuracy    <     139.06284201 Ry

     iteration #  2     ecut=    33.07 Ry     beta=0.60
     Davidson diagonalization with overlap
     c_bands:  2 eigenvalues not converged
     c_bands:  1 eigenvalues not converged
     ethr =  1.00E-02,  avg # of iterations = 11.6

     total cpu time spent up to now is    26705.7 secs

     total energy              =    -679.24457267 Ry
     Harris-Foulkes estimate   =    -934.72556613 Ry
     estimated scf accuracy    <     841.42133499 Ry

     iteration #  3     ecut=    33.07 Ry     beta=0.60
     Davidson diagonalization with overlap
     ethr =  1.00E-02,  avg # of iterations =  8.0

     total cpu time spent up to now is    26787.7 secs

     total energy              =    -711.65228875 Ry
     Harris-Foulkes estimate   =    -726.38499070 Ry
     estimated scf accuracy    <      74.01671883 Ry

     iteration #  4     ecut=    33.07 Ry     beta=0.60
     Davidson diagonalization with overlap
     ethr =  1.00E-02,  avg # of iterations =  3.9

     total cpu time spent up to now is    26827.7 secs

     total energy              =    -710.39796870 Ry
     Harris-Foulkes estimate   =    -716.93856744 Ry
     estimated scf accuracy    <      58.69736599 Ry

     iteration #  5     ecut=    33.07 Ry     beta=0.60
     Davidson diagonalization with overlap
     ethr =  1.00E-02,  avg # of iterations =  2.3

     total cpu time spent up to now is    26859.6 secs

     total energy              =    -709.06793605 Ry
     Harris-Foulkes estimate   =    -711.08281795 Ry
     estimated scf accuracy    <      33.54187276 Ry

     iteration #  6     ecut=    33.07 Ry     beta=0.60
     Davidson diagonalization with overlap
     ethr =  1.00E-02,  avg # of iterations =  1.1

     total cpu time spent up to now is    26888.2 secs

     total energy              =    -706.96294618 Ry
     Harris-Foulkes estimate   =    -709.15180770 Ry
     estimated scf accuracy    <      27.14891167 Ry

     iteration #  7     ecut=    33.07 Ry     beta=0.60
     Davidson diagonalization with overlap
     ethr =  1.00E-02,  avg # of iterations =  2.7

     total cpu time spent up to now is    26919.1 secs

     total energy              =    -705.98435417 Ry
     Harris-Foulkes estimate   =    -707.10723042 Ry
     estimated scf accuracy    <      19.13799989 Ry

     iteration #  8     ecut=    33.07 Ry     beta=0.60
     Davidson diagonalization with overlap
     ethr =  1.00E-02,  avg # of iterations =  1.3

     total cpu time spent up to now is    26947.9 secs

     total energy              =    -705.90023001 Ry
     Harris-Foulkes estimate   =    -706.07711119 Ry
     estimated scf accuracy    <      14.00598391 Ry

     iteration #  9     ecut=    33.07 Ry     beta=0.60
     Davidson diagonalization with overlap
     ethr =  1.00E-02,  avg # of iterations =  1.0

     total cpu time spent up to now is    26976.5 secs

     total energy              =    -705.82708118 Ry
     Harris-Foulkes estimate   =    -705.94352857 Ry
     estimated scf accuracy    <      12.43423151 Ry

     iteration # 10     ecut=    33.07 Ry     beta=0.60
     Davidson diagonalization with overlap
     ethr =  1.00E-02,  avg # of iterations =  1.0

     total cpu time spent up to now is    27005.0 secs

     total energy              =    -702.75946066 Ry
     Harris-Foulkes estimate   =    -705.85215332 Ry
     estimated scf accuracy    <      11.44217031 Ry

     iteration # 11     ecut=    33.07 Ry     beta=0.60
     Davidson diagonalization with overlap
     ethr =  1.00E-02,  avg # of iterations =  4.2

     total cpu time spent up to now is    27056.7 secs

     total energy              =    -706.61242206 Ry
     Harris-Foulkes estimate   =    -708.87343136 Ry
     estimated scf accuracy    <      91.47445315 Ry

     iteration # 12     ecut=    33.07 Ry     beta=0.60
     Davidson diagonalization with overlap
     ethr =  1.00E-02,  avg # of iterations =  1.0

     total cpu time spent up to now is    27085.4 secs

     total energy              =    -705.71766791 Ry
     Harris-Foulkes estimate   =    -706.99565013 Ry
     estimated scf accuracy    <      54.02484105 Ry

     iteration # 13     ecut=    33.07 Ry     beta=0.60
     Davidson diagonalization with overlap
     ethr =  1.00E-02,  avg # of iterations =  1.1

     total cpu time spent up to now is    27114.0 secs

     total energy              =    -704.61774732 Ry
     Harris-Foulkes estimate   =    -706.00152724 Ry
     estimated scf accuracy    <      27.84644026 Ry

     iteration # 14     ecut=    33.07 Ry     beta=0.60
     Davidson diagonalization with overlap
     ethr =  1.00E-02,  avg # of iterations =  3.9

     total cpu time spent up to now is    27147.3 secs

     total energy              =    -704.59095572 Ry
     Harris-Foulkes estimate   =    -705.17650197 Ry
     estimated scf accuracy    <       4.52254205 Ry

     iteration # 15     ecut=    33.07 Ry     beta=0.60
     Davidson diagonalization with overlap
     ethr =  5.95E-03,  avg # of iterations =  5.7

     total cpu time spent up to now is    27188.9 secs

     total energy              =    -704.84009873 Ry
     Harris-Foulkes estimate   =    -705.13820608 Ry
     estimated scf accuracy    <       0.96459516 Ry

     iteration # 16     ecut=    33.07 Ry     beta=0.60
     Davidson diagonalization with overlap
     ethr =  1.27E-03,  avg # of iterations =  6.0

     total cpu time spent up to now is    27240.8 secs

     total energy              =    -704.75582718 Ry
     Harris-Foulkes estimate   =    -705.35706477 Ry
     estimated scf accuracy    <       6.82292353 Ry

     iteration # 17     ecut=    33.07 Ry     beta=0.60
     Davidson diagonalization with overlap
     ethr =  1.27E-03,  avg # of iterations =  6.3

     total cpu time spent up to now is    27287.2 secs

     total energy              =    -705.07035617 Ry
     Harris-Foulkes estimate   =    -705.08776886 Ry
     estimated scf accuracy    <       0.08111997 Ry

     iteration # 18     ecut=    33.07 Ry     beta=0.60
     Davidson diagonalization with overlap
     c_bands:  1 eigenvalues not converged
     ethr =  1.07E-04,  avg # of iterations =  5.8

     total cpu time spent up to now is    27328.4 secs

     total energy              =    -705.07844645 Ry
     Harris-Foulkes estimate   =    -705.08299684 Ry
     estimated scf accuracy    <       0.04064878 Ry

     iteration # 19     ecut=    33.07 Ry     beta=0.60
     Davidson diagonalization with overlap
     ethr =  5.35E-05,  avg # of iterations =  4.1

     total cpu time spent up to now is    27362.1 secs

     total energy              =    -705.07981287 Ry
     Harris-Foulkes estimate   =    -705.08084173 Ry
     estimated scf accuracy    <       0.00965664 Ry

     iteration # 20     ecut=    33.07 Ry     beta=0.60
     Davidson diagonalization with overlap
     c_bands:  1 eigenvalues not converged
     ethr =  1.27E-05,  avg # of iterations =  5.3

     total cpu time spent up to now is    27401.3 secs

     total energy              =    -705.08049863 Ry
     Harris-Foulkes estimate   =    -705.08067856 Ry
     estimated scf accuracy    <       0.00566243 Ry

     iteration # 21     ecut=    33.07 Ry     beta=0.60
     Davidson diagonalization with overlap
     ethr =  7.45E-06,  avg # of iterations =  2.8

     total cpu time spent up to now is    27433.8 secs

     total energy              =    -705.07997156 Ry
     Harris-Foulkes estimate   =    -705.08094883 Ry
     estimated scf accuracy    <       0.00271417 Ry

     iteration # 22     ecut=    33.07 Ry     beta=0.60
     Davidson diagonalization with overlap
     ethr =  3.57E-06,  avg # of iterations =  6.6

     total cpu time spent up to now is    27486.0 secs

     total energy              =    -705.08023735 Ry
     Harris-Foulkes estimate   =    -705.08092959 Ry
     estimated scf accuracy    <       0.00630993 Ry

     iteration # 23     ecut=    33.07 Ry     beta=0.60
     Davidson diagonalization with overlap
     ethr =  3.57E-06,  avg # of iterations =  4.9

     total cpu time spent up to now is    27521.8 secs

     total energy              =    -705.08045439 Ry
     Harris-Foulkes estimate   =    -705.08053104 Ry
     estimated scf accuracy    <       0.00092531 Ry

     iteration # 24     ecut=    33.07 Ry     beta=0.60
     Davidson diagonalization with overlap
     ethr =  1.22E-06,  avg # of iterations =  6.1

     total cpu time spent up to now is    27565.6 secs

     total energy              =    -705.08048713 Ry
     Harris-Foulkes estimate   =    -705.08059626 Ry
     estimated scf accuracy    <       0.00119104 Ry

     iteration # 25     ecut=    33.07 Ry     beta=0.60
     Davidson diagonalization with overlap
     ethr =  1.22E-06,  avg # of iterations =  1.6

     total cpu time spent up to now is    27594.8 secs

     total energy              =    -705.08047248 Ry
     Harris-Foulkes estimate   =    -705.08051759 Ry
     estimated scf accuracy    <       0.00027117 Ry

     iteration # 26     ecut=    33.07 Ry     beta=0.60
     Davidson diagonalization with overlap
     ethr =  3.57E-07,  avg # of iterations =  6.8

     total cpu time spent up to now is    27642.2 secs

     total energy              =    -705.08052353 Ry
     Harris-Foulkes estimate   =    -705.08054156 Ry
     estimated scf accuracy    <       0.00023882 Ry

     iteration # 27     ecut=    33.07 Ry     beta=0.60
     Davidson diagonalization with overlap
     ethr =  3.14E-07,  avg # of iterations =  1.0

     total cpu time spent up to now is    27670.9 secs

     total energy              =    -705.08052368 Ry
     Harris-Foulkes estimate   =    -705.08052711 Ry
     estimated scf accuracy    <       0.00008703 Ry

     iteration # 28     ecut=    33.07 Ry     beta=0.60
     Davidson diagonalization with overlap
     c_bands:  1 eigenvalues not converged
     ethr =  1.15E-07,  avg # of iterations =  6.3

     total cpu time spent up to now is    27709.2 secs

     total energy              =    -705.08052620 Ry
     Harris-Foulkes estimate   =    -705.08052766 Ry
     estimated scf accuracy    <       0.00001194 Ry

     iteration # 29     ecut=    33.07 Ry     beta=0.60
     Davidson diagonalization with overlap
     c_bands:  1 eigenvalues not converged
     ethr =  1.57E-08,  avg # of iterations =  7.4

     total cpu time spent up to now is    27753.7 secs

     total energy              =    -705.08052869 Ry
     Harris-Foulkes estimate   =    -705.08052888 Ry
     estimated scf accuracy    <       0.00000094 Ry

     iteration # 30     ecut=    33.07 Ry     beta=0.60
     Davidson diagonalization with overlap
     c_bands:  1 eigenvalues not converged
     ethr =  1.24E-09,  avg # of iterations =  6.1

     total cpu time spent up to now is    27798.2 secs

     total energy              =    -705.08052892 Ry
     Harris-Foulkes estimate   =    -705.08052896 Ry
     estimated scf accuracy    <       0.00000028 Ry

     iteration # 31     ecut=    33.07 Ry     beta=0.60
     Davidson diagonalization with overlap
     c_bands:  1 eigenvalues not converged
     ethr =  3.72E-10,  avg # of iterations =  4.8

     total cpu time spent up to now is    27833.5 secs

     total energy              =    -705.08052894 Ry
     Harris-Foulkes estimate   =    -705.08052894 Ry
     estimated scf accuracy    <       0.00000002 Ry

     iteration # 32     ecut=    33.07 Ry     beta=0.60
     Davidson diagonalization with overlap
     ethr =  3.18E-11,  avg # of iterations =  6.5

     total cpu time spent up to now is    27886.5 secs

     total energy              =    -705.08052894 Ry
     Harris-Foulkes estimate   =    -705.08052895 Ry
     estimated scf accuracy    <       0.00000011 Ry

     iteration # 33     ecut=    33.07 Ry     beta=0.60
     Davidson diagonalization with overlap
     ethr =  3.18E-11,  avg # of iterations =  6.5

     total cpu time spent up to now is    27931.7 secs

     total energy              =    -705.08052894 Ry
     Harris-Foulkes estimate   =    -705.08052894 Ry
     estimated scf accuracy    <          3.2E-09 Ry

     iteration # 34     ecut=    33.07 Ry     beta=0.60
     Davidson diagonalization with overlap
     c_bands:  1 eigenvalues not converged
     ethr =  4.19E-12,  avg # of iterations =  4.6

     total cpu time spent up to now is    27965.8 secs

     total energy              =    -705.08052894 Ry
     Harris-Foulkes estimate   =    -705.08052894 Ry
     estimated scf accuracy    <          3.4E-10 Ry

     iteration # 35     ecut=    33.07 Ry     beta=0.60
     Davidson diagonalization with overlap
     ethr =  4.41E-13,  avg # of iterations =  6.6

     total cpu time spent up to now is    28017.1 secs

     total energy              =    -705.08052894 Ry
     Harris-Foulkes estimate   =    -705.08052894 Ry
     estimated scf accuracy    <          1.5E-10 Ry

     iteration # 36     ecut=    33.07 Ry     beta=0.60
     Davidson diagonalization with overlap
     c_bands:  1 eigenvalues not converged
     ethr =  2.03E-13,  avg # of iterations =  1.3

     total cpu time spent up to now is    28046.0 secs

     total energy              =    -705.08052894 Ry
     Harris-Foulkes estimate   =    -705.08052894 Ry
     estimated scf accuracy    <          3.9E-11 Ry

     iteration # 37     ecut=    33.07 Ry     beta=0.60
     Davidson diagonalization with overlap
     ethr =  1.00E-13,  avg # of iterations =  5.9

     total cpu time spent up to now is    28088.6 secs

     total energy              =    -705.08052894 Ry
     Harris-Foulkes estimate   =    -705.08052894 Ry
     estimated scf accuracy    <          8.9E-11 Ry

     iteration # 38     ecut=    33.07 Ry     beta=0.60
     Davidson diagonalization with overlap
     c_bands:  1 eigenvalues not converged
     ethr =  1.00E-13,  avg # of iterations =  2.3

     total cpu time spent up to now is    28119.0 secs

     total energy              =    -705.08052894 Ry
     Harris-Foulkes estimate   =    -705.08052894 Ry
     estimated scf accuracy    <          2.3E-11 Ry

     iteration # 39     ecut=    33.07 Ry     beta=0.60
     Davidson diagonalization with overlap
     ethr =  1.00E-13,  avg # of iterations =  1.8

     total cpu time spent up to now is    28148.6 secs

     End of self-consistent calculation

     Number of k-points >= 100: set verbosity='high' to print the bands.

     the Fermi energy is    15.5724 ev

!    total energy              =    -705.08052894 Ry
     Harris-Foulkes estimate   =    -705.08052894 Ry
     estimated scf accuracy    <          2.5E-12 Ry

     The total energy is the sum of the following terms:

     one-electron contribution =    -167.70851706 Ry
     hartree contribution      =     115.29862537 Ry
     xc contribution           =    -102.47765524 Ry
     ewald contribution        =    -549.72798801 Ry
     smearing contrib. (-TS)   =      -0.46499400 Ry

     convergence has been achieved in  39 iterations

     Forces acting on atoms (Ry/au):

     atom    1 type  2   force =    -0.00001584   -0.00000915    0.00000000
     atom    2 type  2   force =     0.00001572    0.00000908    0.00000000
     atom    3 type  1   force =     0.00001189    0.00000686    0.00000000
     atom    4 type  1   force =    -0.00001208   -0.00000698    0.00000000
     atom    5 type  1   force =     0.00001258    0.00000726    0.00000000
     atom    6 type  1   force =    -0.00001226   -0.00000708    0.00000000

     Total force =     0.000038     Total SCF correction =     0.000007
     SCF correction compared to forces is large: reduce conv_thr to get better values


     entering subroutine stress ...

          total   stress  (Ry/bohr**3)                   (kbar)     P=   -1.26
  -0.00000841   0.00000205   0.00000000         -1.24      0.30      0.00
   0.00000205  -0.00001078   0.00000000          0.30     -1.59      0.00
   0.00000000   0.00000000  -0.00000653          0.00      0.00     -0.96


     init_run     :     34.68s CPU     35.77s WALL (       2 calls)
     electrons    :  27106.84s CPU  27677.39s WALL (      35 calls)
     update_pot   :     51.47s CPU     51.78s WALL (      33 calls)
     forces       :    152.56s CPU    155.03s WALL (      35 calls)
     stress       :    226.97s CPU    231.55s WALL (      35 calls)

     Called by init_run:
     wfcinit      :     32.20s CPU     33.24s WALL (       2 calls)
     potinit      :      0.82s CPU      0.83s WALL (       2 calls)

     Called by electrons:
     c_bands      :  23009.47s CPU  23443.31s WALL (     635 calls)
     sum_band     :   3933.94s CPU   4052.14s WALL (     635 calls)
     v_of_rho     :     54.80s CPU     55.82s WALL (     641 calls)
     newd         :    106.08s CPU    124.33s WALL (     641 calls)
     mix_rho      :      5.54s CPU      5.71s WALL (     635 calls)

     Called by c_bands:
     init_us_2    :    122.95s CPU    124.82s WALL (  197274 calls)
     cegterg      :  22712.50s CPU  23142.27s WALL (   93345 calls)

     Called by sum_band:
     sum_band:bec :     14.01s CPU     14.12s WALL (   93345 calls)
     addusdens    :     95.19s CPU    114.94s WALL (     635 calls)

     Called by *egterg:
     h_psi        :  14174.42s CPU  14530.09s WALL (  555302 calls)
     s_psi        :   1052.88s CPU   1061.37s WALL (  555302 calls)
     g_psi        :     14.50s CPU     14.61s WALL (  461663 calls)
     cdiaghg      :   3501.99s CPU   3522.49s WALL (  545894 calls)

     Called by h_psi:
     h_psi:pot    :  14113.69s CPU  14468.36s WALL (  555302 calls)
     h_psi:calbec :   1458.34s CPU   1488.75s WALL (  555302 calls)
     vloc_psi     :  11604.90s CPU  11920.38s WALL (  555302 calls)
     add_vuspsi   :   1047.60s CPU   1056.88s WALL (  555302 calls)

     General routines
     calbec       :   2060.12s CPU   2101.00s WALL (  674372 calls)
     fft          :     31.52s CPU     32.49s WALL (   11140 calls)
     ffts         :      0.60s CPU      0.62s WALL (    1276 calls)
     fftw         :  10300.24s CPU  10561.73s WALL (27593942 calls)
     interpolate  :      6.05s CPU      6.18s WALL (    1276 calls)

     Parallel routines
     fft_scatter  :   1713.81s CPU   1764.90s WALL (27606358 calls)

     PWSCF        :     7h39m CPU        7h49m WALL


   This run was terminated on:   0:11:32  12Mar2018            

=------------------------------------------------------------------------------=
   JOB DONE.
=------------------------------------------------------------------------------=
